
                                        *****************
                                        * O   R   C   A *
                                        *****************

                                            #,                                       
                                            ###                                      
                                            ####                                     
                                            #####                                    
                                            ######                                   
                                           ########,                                 
                                     ,,################,,,,,                         
                               ,,#################################,,                 
                          ,,##########################################,,             
                       ,#########################################, ''#####,          
                    ,#############################################,,   '####,        
                  ,##################################################,,,,####,       
                ,###########''''           ''''###############################       
              ,#####''   ,,,,##########,,,,          '''####'''          '####       
            ,##' ,,,,###########################,,,                        '##       
           ' ,,###''''                  '''############,,,                           
         ,,##''                                '''############,,,,        ,,,,,,###''
      ,#''                                            '''#######################'''  
     '                                                          ''''####''''         
             ,#######,   #######,   ,#######,      ##                                
            ,#'     '#,  ##    ##  ,#'     '#,    #''#        ######   ,####,        
            ##       ##  ##   ,#'  ##            #'  '#       #        #'  '#        
            ##       ##  #######   ##           ,######,      #####,   #    #        
            '#,     ,#'  ##    ##  '#,     ,#' ,#      #,         ##   #,  ,#        
             '#######'   ##     ##  '#######'  #'      '#     #####' # '####'        



                  #######################################################
                  #                        -***-                        #
                  #          Department of theory and spectroscopy      #
                  #    Directorship and core code : Frank Neese         #
                  #        Max Planck Institute fuer Kohlenforschung    #
                  #                Kaiser Wilhelm Platz 1               #
                  #                 D-45470 Muelheim/Ruhr               #
                  #                      Germany                        #
                  #                                                     #
                  #                  All rights reserved                #
                  #                        -***-                        #
                  #######################################################


                         Program Version 5.0.0 -  RELEASE  -
                                (SVN: $Rev: 19529$)
                ($Date: 2021-06-28 11:36:33 +0200 (Mo, 28 Jun 2021) $)


 With contributions from (in alphabetic order):
   Daniel Aravena         : Magnetic Suceptibility
   Michael Atanasov       : Ab Initio Ligand Field Theory (pilot matlab implementation)
   Alexander A. Auer      : GIAO ZORA, VPT2 properties, NMR spectrum
   Ute Becker             : Parallelization
   Giovanni Bistoni       : ED, misc. LED, open-shell LED, HFLD
   Martin Brehm           : Molecular dynamics
   Dmytro Bykov           : SCF Hessian
   Vijay G. Chilkuri      : MRCI spin determinant printing, contributions to CSF-ICE
   Dipayan Datta          : RHF DLPNO-CCSD density
   Achintya Kumar Dutta   : EOM-CC, STEOM-CC
   Dmitry Ganyushin       : Spin-Orbit,Spin-Spin,Magnetic field MRCI
   Miquel Garcia          : C-PCM Hessian, Gaussian charge scheme
   Yang Guo               : DLPNO-NEVPT2, F12-NEVPT2, CIM, IAO-localization
   Andreas Hansen         : Spin unrestricted coupled pair/coupled cluster methods
   Benjamin Helmich-Paris : MC-RPA, TRAH-SCF, COSX integrals
   Lee Huntington         : MR-EOM, pCC
   Robert Izsak           : Overlap fitted RIJCOSX, COSX-SCS-MP3, EOM
   Marcus Kettner         : VPT2
   Christian Kollmar      : KDIIS, OOCD, Brueckner-CCSD(T), CCSD density, CASPT2, CASPT2-K
   Simone Kossmann        : Meta GGA functionals, TD-DFT gradient, OOMP2, MP2 Hessian
   Martin Krupicka        : Initial AUTO-CI
   Lucas Lang             : DCDCAS
   Marvin Lechner         : AUTO-CI (C++ implementation), FIC-MRCC
   Dagmar Lenk            : GEPOL surface, SMD
   Dimitrios Liakos       : Extrapolation schemes; Compound Job, initial MDCI parallelization
   Dimitrios Manganas     : Further ROCIS development; embedding schemes
   Dimitrios Pantazis     : SARC Basis sets
   Anastasios Papadopoulos: AUTO-CI, single reference methods and gradients
   Taras Petrenko         : DFT Hessian,TD-DFT gradient, ASA, ECA, R-Raman, ABS, FL, XAS/XES, NRVS
   Peter Pinski           : DLPNO-MP2, DLPNO-MP2 Gradient
   Christoph Reimann      : Effective Core Potentials
   Marius Retegan         : Local ZFS, SOC
   Christoph Riplinger    : Optimizer, TS searches, QM/MM, DLPNO-CCSD(T), (RO)-DLPNO pert. Triples
   Tobias Risthaus        : Range-separated hybrids, TD-DFT gradient, RPA, STAB
   Michael Roemelt        : Original ROCIS implementation
   Masaaki Saitow         : Open-shell DLPNO-CCSD energy and density
   Barbara Sandhoefer     : DKH picture change effects
   Avijit Sen             : IP-ROCIS
   Kantharuban Sivalingam : CASSCF convergence, NEVPT2, FIC-MRCI
   Bernardo de Souza      : ESD, SOC TD-DFT
   Georgi Stoychev        : AutoAux, RI-MP2 NMR
   Willem Van den Heuvel  : Paramagnetic NMR
   Boris Wezisla          : Elementary symmetry handling
   Frank Wennmohs         : Technical directorship


 We gratefully acknowledge several colleagues who have allowed us to
 interface, adapt or use parts of their codes:
   Stefan Grimme, W. Hujo, H. Kruse, P. Pracht,  : VdW corrections, initial TS optimization,
                  C. Bannwarth, S. Ehlert          DFT functionals, gCP, sTDA/sTD-DF
   Ed Valeev, F. Pavosevic, A. Kumar             : LibInt (2-el integral package), F12 methods
   Garnet Chan, S. Sharma, J. Yang, R. Olivares  : DMRG
   Ulf Ekstrom                                   : XCFun DFT Library
   Mihaly Kallay                                 : mrcc  (arbitrary order and MRCC methods)
   Jiri Pittner, Ondrej Demel                    : Mk-CCSD
   Frank Weinhold                                : gennbo (NPA and NBO analysis)
   Christopher J. Cramer and Donald G. Truhlar   : smd solvation model
   Lars Goerigk                                  : TD-DFT with DH, B97 family of functionals
   V. Asgeirsson, H. Jonsson                     : NEB implementation
   FAccTs GmbH                                   : IRC, NEB, NEB-TS, DLPNO-Multilevel, CI-OPT
                                                   MM, QMMM, 2- and 3-layer-ONIOM, Crystal-QMMM,
                                                   LR-CPCM, SF, NACMEs, symmetry and pop. for TD-DFT,
                                                   nearIR, NL-DFT gradient (VV10), updates on ESD,
                                                   ML-optimized integration grids
   S Lehtola, MJT Oliveira, MAL Marques          : LibXC Library
   Liviu Ungur et al                             : ANISO software


 Your calculation uses the libint2 library for the computation of 2-el integrals
 For citations please refer to: http://libint.valeyev.net

 Your ORCA version has been built with support for libXC version: 5.1.0
 For citations please refer to: https://tddft.org/programs/libxc/

 This ORCA versions uses:
   CBLAS   interface :  Fast vector & matrix operations
   LAPACKE interface :  Fast linear algebra routines
   SCALAPACK package :  Parallel linear algebra routines
   Shared memory     :  Shared parallel matrices
   BLAS/LAPACK       :  OpenBLAS 0.3.15  USE64BITINT DYNAMIC_ARCH NO_AFFINITY SkylakeX SINGLE_THREADED
        Core in use  :  SkylakeX
   Copyright (c) 2011-2014, The OpenBLAS Project


================================================================================

----- Orbital basis set information -----
Your calculation utilizes the basis: cc-pVTZ 
       H, B-Ne : Obtained from the ccRepo (grant-hill.group.shef.ac.uk/ccrepo) Feb. 2017
                 T. H. Dunning, Jr., J. Chem. Phys. 90, 1007 (1989)
            He : Obtained from the ccRepo (grant-hill.group.shef.ac.uk/ccrepo) Feb. 2017
                 D. E. Woon, T. H. Dunning, Jr., J. Chem. Phys. 100, 2975 (1994)
  Li-Be, Na-Mg : Obtained from the ccRepo (grant-hill.group.shef.ac.uk/ccrepo) Feb. 2017
                 B. P. Prascher, D. E. Woon, K. A. Peterson, T. H. Dunning, Jr., A. K. Wilson, Theor. Chem. Acc. 128, 69 (2011)
         Al-Ar : Obtained from the ccRepo (grant-hill.group.shef.ac.uk/ccrepo) Feb. 2017
                 D. E. Woon, T. H. Dunning, Jr., J. Chem. Phys. 98, 1358 (1993)
            Ca : Obtained from the Peterson Research Group Website (tyr0.chem.wsu.edu/~kipeters) Feb. 2017
                 J. Koput, K. A. Peterson, J. Phys. Chem. 106, 9595 (2002)
         Sc-Zn : Obtained from the ccRepo (grant-hill.group.shef.ac.uk/ccrepo) Feb. 2017
                 N. B. Balabanov, K. A. Peterson, J. Chem. Phys. 123, 064107 (2005)
                 N. B. Balabanov, K. A. Peterson, J. Chem. Phys. 125, 074110 (2006)
         Ga-Kr : Obtained from the ccRepo (grant-hill.group.shef.ac.uk/ccrepo) Feb. 2017
                 A. K. Wilson, D. E. Woon, K. A. Peterson, T. H. Dunning, Jr., J. Chem. Phys. 110, 7667 (1999)
             Y : Obtained from the ccRepo (grant-hill.group.shef.ac.uk/ccrepo) Feb. 2017
                 K. A. Peterson, D. Figgen, M. Dolg, H. Stoll, J. Chem. Phys. 126, 124101 (2007)
        Ag, Au : Obtained from the Peterson Research Group Website (tyr0.chem.wsu.edu/~kipeters) Feb. 2017
                 K. A. Peterson, C. Puzzarini, Theor. Chem. Acc. 114, 283 (2005)

----- AuxC basis set information -----
Your calculation utilizes the auxiliary basis: cc-pVTZ/C 
  Obtained from the EMSL Basis Set Exchange (bse.pnl.gov) Feb. 2017
  H-He, B-F, Al-Ar, Ga-Kr : F. Weigend, A. Kohn, C. Hattig, J. Chem. Phys. 116, 3175 (2002)
             Li-Be, Na-Mg : C. Haettig, Phys. Chem. Chem. Phys. 7, 59 (2005)
                       Ne : C. Haettig, Phys. Chem. Chem. Phys. 7, 59 (2005)
                            F. Weigend, A. Kohn, C. Hattig, J. Chem. Phys. 116, 3175 (2002)
                    Sc-Zn : J. G. Hill, J. A. Platts, J. Chem. Phys. 128, 044104 (2008)

================================================================================
                                        WARNINGS
                       Please study these warnings very carefully!
================================================================================


WARNING: No MP2 level density has been requested!
         To caclulate MP2 level properties use
         %mp2 Density relaxed end
         or
         %mp2 Density unrelaxed end

WARNING: Post HF methods need fully converged wavefunctions
  ===> : Setting SCFConvForced true
         You can overwrite this default with %scf ConvForced false 


INFO   : the flag for use of the SHARK integral package has been found!

================================================================================
                                       INPUT FILE
================================================================================
NAME = qm_input.vacu
|  1> ! RI-MP2 cc-pVTZ cc-pVTZ/c TightSCF KeepDens NoKeepInts
|  2> 
|  3> *xyz  0  1
|  4>     C    -2.3344095    6.3285696   -1.1659302
|  5>     C    -2.7217929    4.8724416   -1.4379743
|  6>     O    -2.8745376    4.7427381   -2.8377081
|  7>     C    -3.9555798    5.2017182   -3.4750427
|  8>     O    -4.9444632    5.4442043   -2.7835678
|  9>     C    -3.7569668    5.3594124   -4.9289086
| 10>     C    -2.5226460    5.4176125   -5.5106724
| 11>     C    -1.1428122    5.3626054   -4.9677481
| 12>     N    -2.5423323    5.7142033   -6.8723237
| 13>     C    -3.5236905    6.3982559   -7.4572871
| 14>     S    -3.1564814    7.0845091   -8.9590056
| 15>     N    -4.7503786    6.3642339   -6.9444086
| 16>     C    -5.0013832    5.6023381   -5.6784379
| 17>     C    -5.8682693    4.3357413   -5.8081684
| 18>     C    -6.8601537    4.1027711   -4.9129468
| 19>     C    -7.6146705    2.9067535   -4.9265781
| 20>     C    -7.3240561    1.9234273   -5.8662376
| 21>     C    -6.3436161    2.1307154   -6.8548065
| 22>     O    -6.0647902    1.2248958   -7.8090891
| 23>     C    -5.5775916    3.3453005   -6.7879588
| 24>     H    -1.4618807    6.6617151   -1.7411711
| 25>     H    -2.1054209    6.4778767   -0.1036394
| 26>     H    -3.1776862    6.9554614   -1.4807010
| 27>     H    -2.0092494    4.1114162   -1.0969291
| 28>     H    -3.6305684    4.5989501   -0.8879570
| 29>     H    -0.9137333    4.4222346   -4.4515925
| 30>     H    -1.1298337    6.0889680   -4.1459095
| 31>     H    -0.4443294    5.5046339   -5.8015000
| 32>     H    -1.6207713    5.7481702   -7.2912961
| 33>     H    -5.5720410    6.7028203   -7.4304091
| 34>     H    -5.5611237    6.3791100   -5.1431757
| 35>     H    -7.0421905    4.7793738   -4.0832011
| 36>     H    -8.2267440    2.5638044   -4.0976342
| 37>     H    -7.8254440    0.9603474   -5.8441203
| 38>     H    -6.8344252    0.6373288   -7.9047784
| 39>     H    -4.8005402    3.6328910   -7.4900121
| 40> *
| 41> 
| 42>                          ****END OF INPUT****
================================================================================

                       ****************************
                       * Single Point Calculation *
                       ****************************

---------------------------------
CARTESIAN COORDINATES (ANGSTROEM)
---------------------------------
  C     -2.334410    6.328570   -1.165930
  C     -2.721793    4.872442   -1.437974
  O     -2.874538    4.742738   -2.837708
  C     -3.955580    5.201718   -3.475043
  O     -4.944463    5.444204   -2.783568
  C     -3.756967    5.359412   -4.928909
  C     -2.522646    5.417612   -5.510672
  C     -1.142812    5.362605   -4.967748
  N     -2.542332    5.714203   -6.872324
  C     -3.523690    6.398256   -7.457287
  S     -3.156481    7.084509   -8.959006
  N     -4.750379    6.364234   -6.944409
  C     -5.001383    5.602338   -5.678438
  C     -5.868269    4.335741   -5.808168
  C     -6.860154    4.102771   -4.912947
  C     -7.614670    2.906754   -4.926578
  C     -7.324056    1.923427   -5.866238
  C     -6.343616    2.130715   -6.854806
  O     -6.064790    1.224896   -7.809089
  C     -5.577592    3.345301   -6.787959
  H     -1.461881    6.661715   -1.741171
  H     -2.105421    6.477877   -0.103639
  H     -3.177686    6.955461   -1.480701
  H     -2.009249    4.111416   -1.096929
  H     -3.630568    4.598950   -0.887957
  H     -0.913733    4.422235   -4.451593
  H     -1.129834    6.088968   -4.145910
  H     -0.444329    5.504634   -5.801500
  H     -1.620771    5.748170   -7.291296
  H     -5.572041    6.702820   -7.430409
  H     -5.561124    6.379110   -5.143176
  H     -7.042191    4.779374   -4.083201
  H     -8.226744    2.563804   -4.097634
  H     -7.825444    0.960347   -5.844120
  H     -6.834425    0.637329   -7.904778
  H     -4.800540    3.632891   -7.490012

----------------------------
CARTESIAN COORDINATES (A.U.)
----------------------------
  NO LB      ZA    FRAG     MASS         X           Y           Z
   0 C     6.0000    0    12.011   -4.411395   11.959263   -2.203289
   1 C     6.0000    0    12.011   -5.143443    9.207580   -2.717378
   2 O     8.0000    0    15.999   -5.432089    8.962476   -5.362491
   3 C     6.0000    0    12.011   -7.474963    9.829823   -6.566879
   4 O     8.0000    0    15.999   -9.343681   10.288055   -5.260181
   5 C     6.0000    0    12.011   -7.099638   10.127822   -9.314287
   6 C     6.0000    0    12.011   -4.767110   10.237804  -10.413662
   7 C     6.0000    0    12.011   -2.159602   10.133856   -9.387683
   8 N     7.0000    0    14.007   -4.804312   10.798279  -12.986810
   9 C     6.0000    0    12.011   -6.658810   12.090951  -14.092230
  10 S    16.0000    0    32.060   -5.964885   13.387782  -16.930067
  11 N     7.0000    0    14.007   -8.976915   12.026659  -13.123030
  12 C     6.0000    0    12.011   -9.451245   10.586885  -10.730692
  13 C     6.0000    0    12.011  -11.089422    8.193364  -10.975848
  14 C     6.0000    0    12.011  -12.963812    7.753114   -9.284124
  15 C     6.0000    0    12.011  -14.389642    5.492968   -9.309883
  16 C     6.0000    0    12.011  -13.840460    3.634751  -11.085583
  17 C     6.0000    0    12.011  -11.987697    4.026469  -12.953707
  18 O     8.0000    0    15.999  -11.460793    2.314718  -14.757040
  19 C     6.0000    0    12.011  -10.540121    6.321702  -12.827383
  20 H     1.0000    0     1.008   -2.762554   12.588817   -3.290337
  21 H     1.0000    0     1.008   -3.978669   12.241413   -0.195850
  22 H     1.0000    0     1.008   -6.004957   13.143917   -2.798119
  23 H     1.0000    0     1.008   -3.796931    7.769451   -2.072896
  24 H     1.0000    0     1.008   -6.860780    8.690756   -1.677996
  25 H     1.0000    0     1.008   -1.726706    8.356812   -8.412291
  26 H     1.0000    0     1.008   -2.135076   11.506482   -7.834634
  27 H     1.0000    0     1.008   -0.839661   10.402251  -10.963246
  28 H     1.0000    0     1.008   -3.062814   10.862467  -13.778553
  29 H     1.0000    0     1.008  -10.529631   12.666495  -14.041438
  30 H     1.0000    0     1.008  -10.509001   12.054771   -9.719194
  31 H     1.0000    0     1.008  -13.307811    9.031708   -7.716132
  32 H     1.0000    0     1.008  -15.546293    4.844888   -7.743406
  33 H     1.0000    0     1.008  -14.787946    1.814794  -11.043787
  34 H     1.0000    0     1.008  -12.915192    1.204377  -14.937866
  35 H     1.0000    0     1.008   -9.071706    6.865169  -14.154072

--------------------------------
INTERNAL COORDINATES (ANGSTROEM)
--------------------------------
 C      0   0   0     0.000000000000     0.00000000     0.00000000
 C      1   0   0     1.531137695743     0.00000000     0.00000000
 O      2   1   0     1.414004473880   106.88463342     0.00000000
 C      3   2   1     1.336229906391   121.87289349   283.56499254
 O      4   3   2     1.230783256637   116.72596911   342.88237170
 C      4   3   2     1.475818633730   113.43418742   161.95392322
 C      6   4   3     1.365790689653   123.07899879   341.81499207
 C      7   6   4     1.483824077242   133.07617300   359.47173869
 N      7   6   4     1.393717301265   114.35924597   186.65554993
 C      9   7   6     1.331605818406   123.29252387    26.16669414
 S     10   9   7     1.691432656323   116.00473223   160.92812674
 N     10   9   7     1.330024641474   119.81332816   332.28884941
 C      6   4   3     1.472881272835   113.90597508   168.42466772
 C     13   6   4     1.540321059641   112.50321006   286.20675464
 C     14  13   6     1.356293290612   119.81740903    94.53308856
 C     15  14  13     1.414192176945   121.94402001   184.99444157
 C     16  15  14     1.390808082028   119.53607633     1.16435535
 C     17  16  15     1.407657422830   121.05752662   356.21774086
 O     18  17  16     1.344956620459   122.92242013   182.35712220
 C     14  13   6     1.423185065799   121.01727611   279.76035398
 H      1   2   3     1.096902239961   113.38519028   306.35397915
 H      1   2   3     1.096900238310   110.75265944   185.42737326
 H      1   2   3     1.096899985506   107.33892268    63.94152439
 H      2   1   3     1.096900053460   116.11760864   120.97320827
 H      2   1   3     1.096899968216   110.95518783   236.90939648
 H      8   7   6     1.096900627828   113.46331932    61.45702890
 H      8   7   6     1.096900064997   105.10548127   310.52282651
 H      8   7   6     1.096901338983   108.01312976   183.18921488
 H      9   7   6     1.012899945196   113.47848924   180.37001309
 H     12  10   9     1.012899963392   123.68305609   192.60200951
 H     13   6   4     1.096900011268   107.43427153    46.97389651
 H     15  14  13     1.086004851218   121.32351276   358.26898656
 H     16  15  14     1.086000020230   124.08453966   163.46363695
 H     17  16  15     1.086002714089   121.11530528   174.44700845
 H     19  18  17     0.973000233735   108.20991984    21.74420944
 H     20  14  13     1.086000004592   114.01021102   352.23232532

---------------------------
INTERNAL COORDINATES (A.U.)
---------------------------
 C      0   0   0     0.000000000000     0.00000000     0.00000000
 C      1   0   0     2.893430918277     0.00000000     0.00000000
 O      2   1   0     2.672081207773   106.88463342     0.00000000
 C      3   2   1     2.525108575034   121.87289349   283.56499254
 O      4   3   2     2.325843285260   116.72596911   342.88237170
 C      4   3   2     2.788893041088   113.43418742   161.95392322
 C      6   4   3     2.580970359704   123.07899879   341.81499207
 C      7   6   4     2.804021136906   133.07617300   359.47173869
 N      7   6   4     2.633744007498   114.35924597   186.65554993
 C      9   7   6     2.516370315124   123.29252387    26.16669414
 S     10   9   7     3.196344494421   116.00473223   160.92812674
 N     10   9   7     2.513382323753   119.81332816   332.28884941
 C      6   4   3     2.783342233439   113.90597508   168.42466772
 C     13   6   4     2.910784961033   112.50321006   286.20675464
 C     14  13   6     2.563022876531   119.81740903    94.53308856
 C     15  14  13     2.672435915159   121.94402001   184.99444157
 C     16  15  14     2.628246379877   119.53607633     1.16435535
 C     17  16  15     2.660087019530   121.05752662   356.21774086
 O     18  17  16     2.541599674673   122.92242013   182.35712220
 C     14  13   6     2.689430012247   121.01727611   279.76035398
 H      1   2   3     2.072844829212   113.38519028   306.35397915
 H      1   2   3     2.072841046639   110.75265944   185.42737326
 H      1   2   3     2.072840568908   107.33892268    63.94152439
 H      2   1   3     2.072840697323   116.11760864   120.97320827
 H      2   1   3     2.072840536235   110.95518783   236.90939648
 H      8   7   6     2.072841782721   113.46331932    61.45702890
 H      8   7   6     2.072840719125   105.10548127   310.52282651
 H      8   7   6     2.072843126609   108.01312976   183.18921488
 H      9   7   6     1.914103497485   113.47848924   180.37001309
 H     12  10   9     1.914103531869   123.68305609   192.60200951
 H     13   6   4     2.072840617591   107.43427153    46.97389651
 H     15  14  13     2.052251748913   121.32351276   358.26898656
 H     16  15  14     2.052242619668   124.08453966   163.46363695
 H     17  16  15     2.052247710324   121.11530528   174.44700845
 H     19  18  17     1.838703970001   108.20991984    21.74420944
 H     20  14  13     2.052242590115   114.01021102   352.23232532

---------------------
BASIS SET INFORMATION
---------------------
There are 5 groups of distinct atoms

 Group   1 Type C   : 18s5p2d1f contracted to 4s3p2d1f pattern {8811/311/11/1}
 Group   2 Type O   : 18s5p2d1f contracted to 4s3p2d1f pattern {8811/311/11/1}
 Group   3 Type N   : 18s5p2d1f contracted to 4s3p2d1f pattern {8811/311/11/1}
 Group   4 Type S   : 41s16p2d1f contracted to 5s4p2d1f pattern {13131311/7711/11/1}
 Group   5 Type H   : 5s2p1d contracted to 3s2p1d pattern {311/11/1}

Atom   0C    basis set group =>   1
Atom   1C    basis set group =>   1
Atom   2O    basis set group =>   2
Atom   3C    basis set group =>   1
Atom   4O    basis set group =>   2
Atom   5C    basis set group =>   1
Atom   6C    basis set group =>   1
Atom   7C    basis set group =>   1
Atom   8N    basis set group =>   3
Atom   9C    basis set group =>   1
Atom  10S    basis set group =>   4
Atom  11N    basis set group =>   3
Atom  12C    basis set group =>   1
Atom  13C    basis set group =>   1
Atom  14C    basis set group =>   1
Atom  15C    basis set group =>   1
Atom  16C    basis set group =>   1
Atom  17C    basis set group =>   1
Atom  18O    basis set group =>   2
Atom  19C    basis set group =>   1
Atom  20H    basis set group =>   5
Atom  21H    basis set group =>   5
Atom  22H    basis set group =>   5
Atom  23H    basis set group =>   5
Atom  24H    basis set group =>   5
Atom  25H    basis set group =>   5
Atom  26H    basis set group =>   5
Atom  27H    basis set group =>   5
Atom  28H    basis set group =>   5
Atom  29H    basis set group =>   5
Atom  30H    basis set group =>   5
Atom  31H    basis set group =>   5
Atom  32H    basis set group =>   5
Atom  33H    basis set group =>   5
Atom  34H    basis set group =>   5
Atom  35H    basis set group =>   5
---------------------------------
AUXILIARY/C BASIS SET INFORMATION
---------------------------------
There are 5 groups of distinct atoms

 Group   1 Type C   : 8s6p5d3f1g contracted to 8s6p5d3f1g pattern {11111111/111111/11111/111/1}
 Group   2 Type O   : 8s6p5d3f1g contracted to 8s6p5d3f1g pattern {11111111/111111/11111/111/1}
 Group   3 Type N   : 8s6p5d3f1g contracted to 8s6p5d3f1g pattern {11111111/111111/11111/111/1}
 Group   4 Type S   : 10s8p7d5f2g contracted to 10s8p7d5f2g pattern {1111111111/11111111/1111111/11111/11}
 Group   5 Type H   : 4s3p2d1f contracted to 4s3p2d1f pattern {1111/111/11/1}

Atom   0C    basis set group =>   1
Atom   1C    basis set group =>   1
Atom   2O    basis set group =>   2
Atom   3C    basis set group =>   1
Atom   4O    basis set group =>   2
Atom   5C    basis set group =>   1
Atom   6C    basis set group =>   1
Atom   7C    basis set group =>   1
Atom   8N    basis set group =>   3
Atom   9C    basis set group =>   1
Atom  10S    basis set group =>   4
Atom  11N    basis set group =>   3
Atom  12C    basis set group =>   1
Atom  13C    basis set group =>   1
Atom  14C    basis set group =>   1
Atom  15C    basis set group =>   1
Atom  16C    basis set group =>   1
Atom  17C    basis set group =>   1
Atom  18O    basis set group =>   2
Atom  19C    basis set group =>   1
Atom  20H    basis set group =>   5
Atom  21H    basis set group =>   5
Atom  22H    basis set group =>   5
Atom  23H    basis set group =>   5
Atom  24H    basis set group =>   5
Atom  25H    basis set group =>   5
Atom  26H    basis set group =>   5
Atom  27H    basis set group =>   5
Atom  28H    basis set group =>   5
Atom  29H    basis set group =>   5
Atom  30H    basis set group =>   5
Atom  31H    basis set group =>   5
Atom  32H    basis set group =>   5
Atom  33H    basis set group =>   5
Atom  34H    basis set group =>   5
Atom  35H    basis set group =>   5
------------------------------------------------------------------------------
                           ORCA GTO INTEGRAL CALCULATION
------------------------------------------------------------------------------
------------------------------------------------------------------------------
                   ___                                                        
                  /   \      - P O W E R E D   B Y -                         
                 /     \                                                     
                 |  |  |   _    _      __       _____    __    __             
                 |  |  |  | |  | |    /  \     |  _  \  |  |  /  |          
                  \  \/   | |  | |   /    \    | | | |  |  | /  /          
                 / \  \   | |__| |  /  /\  \   | |_| |  |  |/  /          
                |  |  |   |  __  | /  /__\  \  |    /   |      \           
                |  |  |   | |  | | |   __   |  |    \   |  |\   \          
                \     /   | |  | | |  |  |  |  | |\  \  |  | \   \       
                 \___/    |_|  |_| |__|  |__|  |_| \__\ |__|  \__/        
                                                                              
                      - O R C A' S   B I G   F R I E N D -                    
                                      &                                       
                       - I N T E G R A L  F E E D E R -                       
                                                                              
 v1 FN, 2020, v2 2021                                                         
------------------------------------------------------------------------------


Reading SHARK input file qm_input.vacu.SHARKINP.tmp ... ok
----------------------
SHARK INTEGRAL PACKAGE
----------------------

Number of atoms                             ...     36
Number of basis functions                   ...    828
Number of shells                            ...    298
Maximum angular momentum                    ...      3
Integral batch strategy                     ... SHARK/LIBINT Hybrid
RI-J (if used) integral strategy            ... SPLIT-RIJ (Revised 2003 algorithm where possible)
Printlevel                                  ...      1
Contraction scheme used                     ... SEGMENTED contraction
Coulomb Range Separation                    ... NOT USED
Exchange Range Separation                   ... NOT USED
Finite Nucleus Model                        ... NOT USED
Auxiliary Coulomb fitting basis             ... NOT available
Auxiliary J/K fitting basis                 ... NOT available
Auxiliary Correlation fitting basis         ... AVAILABLE
   # of basis functions in Aux-C            ...   2141
   # of shells in Aux-C                     ...    629
   Maximum angular momentum in Aux-C        ...      4
Auxiliary 'external' fitting basis          ... NOT available
Integral threshold                          ...     2.500000e-11
Primitive cut-off                           ...     2.500000e-12
Primitive pair pre-selection threshold      ...     2.500000e-12

Calculating pre-screening integrals         ... done (  0.6 sec) Dimension = 298
Organizing shell pair data                  ... done (  0.4 sec)
Shell pair information
Total number of shell pairs                 ...     44551
Shell pairs after pre-screening             ...     32258
Total number of primitive shell pairs       ...    234348
Primitive shell pairs kept                  ...     93700
          la=0 lb=0:   6451 shell pairs
          la=1 lb=0:   8974 shell pairs
          la=1 lb=1:   3180 shell pairs
          la=2 lb=0:   5145 shell pairs
          la=2 lb=1:   3523 shell pairs
          la=2 lb=2:   1002 shell pairs
          la=3 lb=0:   1862 shell pairs
          la=3 lb=1:   1265 shell pairs
          la=3 lb=2:    719 shell pairs
          la=3 lb=3:    137 shell pairs

Calculating one electron integrals          ... done (  0.3 sec)
Calculating RI/C V-Matrix + Cholesky decomp.... done (  0.3 sec)
Calculating Nuclear repulsion               ... done (  0.0 sec) ENN=   1692.417064399001 Eh

SHARK setup successfully completed in   1.8 seconds

Maximum memory used throughout the entire GTOINT-calculation: 479.4 MB
-------------------------------------------------------------------------------
                                 ORCA SCF
-------------------------------------------------------------------------------

------------
SCF SETTINGS
------------
Hamiltonian:
 Ab initio Hamiltonian  Method          .... Hartree-Fock(GTOs)


General Settings:
 Integral files         IntName         .... qm_input.vacu
 Hartree-Fock type      HFTyp           .... RHF
 Total Charge           Charge          ....    0
 Multiplicity           Mult            ....    1
 Number of Electrons    NEL             ....  154
 Basis Dimension        Dim             ....  828
 Nuclear Repulsion      ENuc            ....   1692.4170643990 Eh

Convergence Acceleration:
 DIIS                   CNVDIIS         .... on
   Start iteration      DIISMaxIt       ....    12
   Startup error        DIISStart       ....  0.200000
   # of expansion vecs  DIISMaxEq       ....     5
   Bias factor          DIISBfac        ....   1.050
   Max. coefficient     DIISMaxC        ....  10.000
 Trust-Rad. Augm. Hess. CNVTRAH         .... auto
   Auto Start mean grad. ratio tolernc. ....  1.125000
   Auto Start start iteration           ....    20
   Auto Start num. interpolation iter.  ....    10
   Max. Number of Micro iterations      ....    16
   Max. Number of Macro iterations      .... Maxiter - #DIIS iter
   Number of Davidson start vectors     ....     2
   Converg. threshold I  (grad. norm)   ....   1.000e-05
   Converg. threshold II (energy diff.) ....   1.000e-08
   Grad. Scal. Fac. for Micro threshold ....   0.100
   Minimum threshold for Micro iter.    ....   0.010
   NR start threshold (gradient norm)   ....   0.001
   Initial trust radius                 ....   0.400
   Minimum AH scaling param. (alpha)    ....   1.000
   Maximum AH scaling param. (alpha)    .... 1000.000
   Orbital update algorithm             .... Taylor
   White noise on init. David. guess    .... on
   Maximum white noise                  ....   0.010
   Quad. conv. algorithm                .... NR
 SOSCF                  CNVSOSCF        .... on
   Start iteration      SOSCFMaxIt      ....   150
   Startup grad/error   SOSCFStart      ....  0.003300
 Level Shifting         CNVShift        .... on
   Level shift para.    LevelShift      ....    0.2500
   Turn off err/grad.   ShiftErr        ....    0.0010
 Zerner damping         CNVZerner       .... off
 Static damping         CNVDamp         .... on
   Fraction old density DampFac         ....    0.7000
   Max. Damping (<1)    DampMax         ....    0.9800
   Min. Damping (>=0)   DampMin         ....    0.0000
   Turn off err/grad.   DampErr         ....    0.1000
 Fernandez-Rico         CNVRico         .... off

SCF Procedure:
 Maximum # iterations   MaxIter         ....   125
 SCF integral mode      SCFMode         .... Direct
   Integral package                     .... SHARK and LIBINT hybrid scheme
 Reset frequency        DirectResetFreq ....    20
 Integral Threshold     Thresh          ....  2.500e-11 Eh
 Primitive CutOff       TCut            ....  2.500e-12 Eh

Convergence Tolerance:
 Convergence Check Mode ConvCheckMode   .... Total+1el-Energy
 Convergence forced     ConvForced      .... 1
 Energy Change          TolE            ....  1.000e-08 Eh
 1-El. energy change                    ....  1.000e-05 Eh
 Orbital Gradient       TolG            ....  1.000e-05
 Orbital Rotation angle TolX            ....  1.000e-05
 DIIS Error             TolErr          ....  5.000e-07


Diagonalization of the overlap matrix:
Smallest eigenvalue                        ... 4.068e-05
Time for diagonalization                   ...    0.134 sec
Threshold for overlap eigenvalues          ... 1.000e-08
Number of eigenvalues below threshold      ... 0
Time for construction of square roots      ...    0.070 sec
Total time needed                          ...    0.206 sec

Time for model grid setup =    1.380 sec

------------------------------
INITIAL GUESS: MODEL POTENTIAL
------------------------------
Loading Hartree-Fock densities                     ... done
Calculating cut-offs                               ... done
Initializing the effective Hamiltonian             ... done
Setting up the integral package (SHARK)            ... done
Starting the Coulomb interaction                   ... done (   4.1 sec)
Reading the grid                                   ... done
Mapping shells                                     ... done
Starting the XC term evaluation                    ... done (   1.4 sec)
Transforming the Hamiltonian                       ... done (   0.0 sec)
Diagonalizing the Hamiltonian                      ... done (   0.1 sec)
Back transforming the eigenvectors                 ... done (   0.0 sec)
Now organizing SCF variables                       ... done
                      ------------------
                      INITIAL GUESS DONE (   7.1 sec)
                      ------------------
--------------
SCF ITERATIONS
--------------
ITER       Energy         Delta-E        Max-DP      RMS-DP      [F,P]     Damp
               ***  Starting incremental Fock matrix formation  ***
  0  -1269.9756280810   0.000000000000 0.04895948  0.00044630  0.3258006 0.7000
  1  -1270.2459356496  -0.270307568660 0.03592792  0.00036735  0.1943092 0.7000
                               ***Turning on DIIS***
  2  -1270.4147774968  -0.168841847172 0.02579787  0.00024795  0.1096995 0.7000
  3  -1272.5854383156  -2.170660818786 0.06331602  0.00053616  0.0829612 0.0000
  4  -1270.7225480460   1.862890269588 0.00898696  0.00010513  0.0070959 0.0000
  5  -1270.7873931642  -0.064845118171 0.00524738  0.00005424  0.0043287 0.0000
                      *** Initiating the SOSCF procedure ***
                           *** Shutting down DIIS ***
                      *** Re-Reading the Fockian *** 
                      *** Removing any level shift *** 
ITER      Energy       Delta-E        Grad      Rot      Max-DP    RMS-DP
  6  -1270.76667809   0.0207150699  0.001928  0.001928  0.002050  0.000027
               *** Restarting incremental Fock matrix formation ***
  7  -1270.78132564  -0.0146475416  0.001114  0.002907  0.001534  0.000016
  8  -1270.78137362  -0.0000479862  0.000499  0.003394  0.001601  0.000018
  9  -1270.78139245  -0.0000188324  0.000134  0.000323  0.000380  0.000005
 10  -1270.78139473  -0.0000022735  0.000048  0.000130  0.000129  0.000002
 11  -1270.78139499  -0.0000002602  0.000020  0.000115  0.000083  0.000001
 12  -1270.78139506  -0.0000000681  0.000010  0.000039  0.000031  0.000000
 13  -1270.78139506  -0.0000000034  0.000004  0.000009  0.000005  0.000000
                  ***Gradient check signals convergence***
              ***Rediagonalizing the Fockian in SOSCF/NRSCF***

               *****************************************************
               *                     SUCCESS                       *
               *           SCF CONVERGED AFTER  14 CYCLES          *
               *****************************************************


----------------
TOTAL SCF ENERGY
----------------

Total Energy       :        -1270.78139506 Eh          -34579.71976 eV

Components:
Nuclear Repulsion  :         1692.41706440 Eh           46053.00961 eV
Electronic Energy  :        -2963.19845946 Eh          -80632.72937 eV
One Electron Energy:        -5105.82478545 Eh         -138936.55581 eV
Two Electron Energy:         2142.62632599 Eh           58303.82644 eV

Virial components:
Potential Energy   :        -2540.22517548 Eh          -69123.04117 eV
Kinetic Energy     :         1269.44378042 Eh           34543.32141 eV
Virial Ratio       :            2.00105370


---------------
SCF CONVERGENCE
---------------

  Last Energy change         ...   -1.2460e-10  Tolerance :   1.0000e-08
  Last MAX-Density change    ...    2.8013e-06  Tolerance :   1.0000e-07
  Last RMS-Density change    ...    4.3458e-08  Tolerance :   5.0000e-09
  Last Orbital Gradient      ...    1.5820e-06  Tolerance :   1.0000e-05
  Last Orbital Rotation      ...    6.1725e-06  Tolerance :   1.0000e-05

             **** THE GBW FILE WAS UPDATED (qm_input.vacu.gbw) ****
             **** DENSITY qm_input.vacu.scfp WAS UPDATED ****
             **** ENERGY FILE WAS UPDATED (qm_input.vacu.en.tmp) ****
             **** THE GBW FILE WAS UPDATED (qm_input.vacu.gbw) ****
             **** DENSITY qm_input.vacu.scfp WAS UPDATED ****
----------------
ORBITAL ENERGIES
----------------

  NO   OCC          E(Eh)            E(eV) 
   0   2.0000     -91.879834     -2500.1774 
   1   2.0000     -20.598487      -560.5133 
   2   2.0000     -20.597308      -560.4812 
   3   2.0000     -20.537738      -558.8603 
   4   2.0000     -15.628198      -425.2649 
   5   2.0000     -15.617152      -424.9643 
   6   2.0000     -11.390858      -309.9610 
   7   2.0000     -11.379428      -309.6500 
   8   2.0000     -11.339985      -308.5767 
   9   2.0000     -11.315500      -307.9104 
  10   2.0000     -11.304881      -307.6214 
  11   2.0000     -11.296865      -307.4033 
  12   2.0000     -11.266039      -306.5645 
  13   2.0000     -11.258667      -306.3639 
  14   2.0000     -11.252501      -306.1961 
  15   2.0000     -11.246407      -306.0303 
  16   2.0000     -11.240856      -305.8792 
  17   2.0000     -11.239092      -305.8312 
  18   2.0000     -11.231877      -305.6349 
  19   2.0000     -11.226534      -305.4895 
  20   2.0000      -8.884157      -241.7502 
  21   2.0000      -6.565656      -178.6606 
  22   2.0000      -6.563698      -178.6073 
  23   2.0000      -6.563177      -178.5931 
  24   2.0000      -1.469105       -39.9764 
  25   2.0000      -1.418277       -38.5933 
  26   2.0000      -1.362144       -37.0658 
  27   2.0000      -1.347089       -36.6562 
  28   2.0000      -1.251301       -34.0496 
  29   2.0000      -1.159152       -31.5421 
  30   2.0000      -1.130216       -30.7547 
  31   2.0000      -1.051597       -28.6154 
  32   2.0000      -1.046298       -28.4712 
  33   2.0000      -1.014045       -27.5936 
  34   2.0000      -1.002420       -27.2772 
  35   2.0000      -0.976457       -26.5708 
  36   2.0000      -0.926802       -25.2196 
  37   2.0000      -0.903225       -24.5780 
  38   2.0000      -0.857935       -23.3456 
  39   2.0000      -0.837329       -22.7849 
  40   2.0000      -0.836264       -22.7559 
  41   2.0000      -0.817528       -22.2461 
  42   2.0000      -0.761185       -20.7129 
  43   2.0000      -0.753437       -20.5021 
  44   2.0000      -0.733897       -19.9703 
  45   2.0000      -0.696619       -18.9560 
  46   2.0000      -0.688950       -18.7473 
  47   2.0000      -0.686289       -18.6749 
  48   2.0000      -0.677446       -18.4342 
  49   2.0000      -0.661281       -17.9944 
  50   2.0000      -0.646771       -17.5995 
  51   2.0000      -0.644929       -17.5494 
  52   2.0000      -0.639203       -17.3936 
  53   2.0000      -0.616503       -16.7759 
  54   2.0000      -0.611222       -16.6322 
  55   2.0000      -0.601918       -16.3790 
  56   2.0000      -0.600475       -16.3398 
  57   2.0000      -0.595218       -16.1967 
  58   2.0000      -0.572404       -15.5759 
  59   2.0000      -0.568105       -15.4589 
  60   2.0000      -0.563287       -15.3278 
  61   2.0000      -0.557029       -15.1575 
  62   2.0000      -0.543071       -14.7777 
  63   2.0000      -0.538280       -14.6474 
  64   2.0000      -0.511546       -13.9199 
  65   2.0000      -0.503023       -13.6880 
  66   2.0000      -0.491923       -13.3859 
  67   2.0000      -0.488327       -13.2880 
  68   2.0000      -0.483823       -13.1655 
  69   2.0000      -0.467117       -12.7109 
  70   2.0000      -0.454321       -12.3627 
  71   2.0000      -0.450429       -12.2568 
  72   2.0000      -0.357458        -9.7269 
  73   2.0000      -0.344410        -9.3719 
  74   2.0000      -0.318574        -8.6688 
  75   2.0000      -0.314634        -8.5616 
  76   2.0000      -0.310863        -8.4590 
  77   0.0000       0.073007         1.9866 
  78   0.0000       0.109042         2.9672 
  79   0.0000       0.120938         3.2909 
  80   0.0000       0.133065         3.6209 
  81   0.0000       0.137647         3.7456 
  82   0.0000       0.139875         3.8062 
  83   0.0000       0.148008         4.0275 
  84   0.0000       0.160648         4.3715 
  85   0.0000       0.165101         4.4926 
  86   0.0000       0.166448         4.5293 
  87   0.0000       0.172574         4.6960 
  88   0.0000       0.191644         5.2149 
  89   0.0000       0.198670         5.4061 
  90   0.0000       0.209416         5.6985 
  91   0.0000       0.211734         5.7616 
  92   0.0000       0.217085         5.9072 
  93   0.0000       0.228783         6.2255 
  94   0.0000       0.231553         6.3009 
  95   0.0000       0.238551         6.4913 
  96   0.0000       0.249058         6.7772 
  97   0.0000       0.250665         6.8210 
  98   0.0000       0.258811         7.0426 
  99   0.0000       0.272220         7.4075 
 100   0.0000       0.298784         8.1303 
 101   0.0000       0.304712         8.2916 
 102   0.0000       0.309192         8.4135 
 103   0.0000       0.322884         8.7861 
 104   0.0000       0.327384         8.9086 
 105   0.0000       0.330305         8.9880 
 106   0.0000       0.349978         9.5234 
 107   0.0000       0.353265         9.6128 
 108   0.0000       0.355556         9.6752 
 109   0.0000       0.361402         9.8343 
 110   0.0000       0.373532        10.1643 
 111   0.0000       0.381233        10.3739 
 112   0.0000       0.384063        10.4509 
 113   0.0000       0.387618        10.5476 
 114   0.0000       0.398972        10.8566 
 115   0.0000       0.401661        10.9298 
 116   0.0000       0.407050        11.0764 
 117   0.0000       0.421299        11.4641 
 118   0.0000       0.427504        11.6330 
 119   0.0000       0.431715        11.7476 
 120   0.0000       0.438333        11.9276 
 121   0.0000       0.448563        12.2060 
 122   0.0000       0.450968        12.2715 
 123   0.0000       0.462428        12.5833 
 124   0.0000       0.464077        12.6282 
 125   0.0000       0.473144        12.8749 
 126   0.0000       0.476325        12.9615 
 127   0.0000       0.491529        13.3752 
 128   0.0000       0.492649        13.4057 
 129   0.0000       0.503395        13.6981 
 130   0.0000       0.504995        13.7416 
 131   0.0000       0.507358        13.8059 
 132   0.0000       0.514201        13.9921 
 133   0.0000       0.519898        14.1472 
 134   0.0000       0.522846        14.2274 
 135   0.0000       0.533584        14.5195 
 136   0.0000       0.538610        14.6563 
 137   0.0000       0.541360        14.7311 
 138   0.0000       0.544604        14.8194 
 139   0.0000       0.546888        14.8816 
 140   0.0000       0.556768        15.1504 
 141   0.0000       0.567146        15.4328 
 142   0.0000       0.569805        15.5052 
 143   0.0000       0.574271        15.6267 
 144   0.0000       0.577660        15.7189 
 145   0.0000       0.587180        15.9780 
 146   0.0000       0.590070        16.0566 
 147   0.0000       0.594547        16.1785 
 148   0.0000       0.596626        16.2350 
 149   0.0000       0.603376        16.4187 
 150   0.0000       0.604698        16.4547 
 151   0.0000       0.610430        16.6107 
 152   0.0000       0.616130        16.7658 
 153   0.0000       0.617360        16.7992 
 154   0.0000       0.620901        16.8956 
 155   0.0000       0.621062        16.8999 
 156   0.0000       0.625711        17.0264 
 157   0.0000       0.633806        17.2467 
 158   0.0000       0.636586        17.3224 
 159   0.0000       0.642791        17.4912 
 160   0.0000       0.644576        17.5398 
 161   0.0000       0.654433        17.8080 
 162   0.0000       0.655351        17.8330 
 163   0.0000       0.657584        17.8938 
 164   0.0000       0.662819        18.0362 
 165   0.0000       0.672539        18.3007 
 166   0.0000       0.677668        18.4403 
 167   0.0000       0.682115        18.5613 
 168   0.0000       0.692114        18.8334 
 169   0.0000       0.695891        18.9362 
 170   0.0000       0.701294        19.0832 
 171   0.0000       0.703192        19.1348 
 172   0.0000       0.714177        19.4337 
 173   0.0000       0.722140        19.6504 
 174   0.0000       0.727456        19.7951 
 175   0.0000       0.734486        19.9864 
 176   0.0000       0.741050        20.1650 
 177   0.0000       0.748402        20.3650 
 178   0.0000       0.754540        20.5321 
 179   0.0000       0.759018        20.6539 
 180   0.0000       0.762972        20.7615 
 181   0.0000       0.770124        20.9561 
 182   0.0000       0.773110        21.0374 
 183   0.0000       0.789168        21.4744 
 184   0.0000       0.800098        21.7718 
 185   0.0000       0.803292        21.8587 
 186   0.0000       0.811962        22.0946 
 187   0.0000       0.816512        22.2184 
 188   0.0000       0.825458        22.4618 
 189   0.0000       0.831311        22.6211 
 190   0.0000       0.838027        22.8039 
 191   0.0000       0.850914        23.1545 
 192   0.0000       0.852692        23.2029 
 193   0.0000       0.856825        23.3154 
 194   0.0000       0.865475        23.5508 
 195   0.0000       0.872953        23.7543 
 196   0.0000       0.882728        24.0203 
 197   0.0000       0.889195        24.1962 
 198   0.0000       0.896087        24.3838 
 199   0.0000       0.900054        24.4917 
 200   0.0000       0.907013        24.6811 
 201   0.0000       0.925943        25.1962 
 202   0.0000       0.929272        25.2868 
 203   0.0000       0.935202        25.4482 
 204   0.0000       0.942754        25.6536 
 205   0.0000       0.950585        25.8667 
 206   0.0000       0.954737        25.9797 
 207   0.0000       0.959693        26.1146 
 208   0.0000       0.969632        26.3850 
 209   0.0000       0.978262        26.6199 
 210   0.0000       0.985941        26.8288 
 211   0.0000       0.990071        26.9412 
 212   0.0000       0.999773        27.2052 
 213   0.0000       1.009199        27.4617 
 214   0.0000       1.012878        27.5618 
 215   0.0000       1.021182        27.7878 
 216   0.0000       1.025121        27.8949 
 217   0.0000       1.033890        28.1336 
 218   0.0000       1.034937        28.1621 
 219   0.0000       1.042967        28.3806 
 220   0.0000       1.043539        28.3961 
 221   0.0000       1.051945        28.6249 
 222   0.0000       1.057171        28.7671 
 223   0.0000       1.077249        29.3134 
 224   0.0000       1.082506        29.4565 
 225   0.0000       1.091641        29.7050 
 226   0.0000       1.098322        29.8869 
 227   0.0000       1.101698        29.9787 
 228   0.0000       1.112381        30.2694 
 229   0.0000       1.125889        30.6370 
 230   0.0000       1.128799        30.7162 
 231   0.0000       1.134030        30.8585 
 232   0.0000       1.143279        31.1102 
 233   0.0000       1.147241        31.2180 
 234   0.0000       1.155865        31.4527 
 235   0.0000       1.164187        31.6791 
 236   0.0000       1.168508        31.7967 
 237   0.0000       1.171093        31.8670 
 238   0.0000       1.174982        31.9729 
 239   0.0000       1.185420        32.2569 
 240   0.0000       1.197425        32.5836 
 241   0.0000       1.204985        32.7893 
 242   0.0000       1.212094        32.9828 
 243   0.0000       1.216588        33.1050 
 244   0.0000       1.224535        33.3213 
 245   0.0000       1.226360        33.3709 
 246   0.0000       1.232555        33.5395 
 247   0.0000       1.241102        33.7721 
 248   0.0000       1.244481        33.8641 
 249   0.0000       1.252613        34.0853 
 250   0.0000       1.261367        34.3236 
 251   0.0000       1.275022        34.6951 
 252   0.0000       1.279392        34.8140 
 253   0.0000       1.281722        34.8774 
 254   0.0000       1.290532        35.1172 
 255   0.0000       1.300148        35.3788 
 256   0.0000       1.312344        35.7107 
 257   0.0000       1.314892        35.7800 
 258   0.0000       1.319691        35.9106 
 259   0.0000       1.328409        36.1479 
 260   0.0000       1.336092        36.3569 
 261   0.0000       1.341725        36.5102 
 262   0.0000       1.344545        36.5869 
 263   0.0000       1.358622        36.9700 
 264   0.0000       1.367495        37.2114 
 265   0.0000       1.373505        37.3750 
 266   0.0000       1.382635        37.6234 
 267   0.0000       1.390040        37.8249 
 268   0.0000       1.399986        38.0956 
 269   0.0000       1.402390        38.1610 
 270   0.0000       1.416234        38.5377 
 271   0.0000       1.421122        38.6707 
 272   0.0000       1.434780        39.0423 
 273   0.0000       1.445788        39.3419 
 274   0.0000       1.448897        39.4265 
 275   0.0000       1.458981        39.7009 
 276   0.0000       1.460974        39.7551 
 277   0.0000       1.467234        39.9255 
 278   0.0000       1.486389        40.4467 
 279   0.0000       1.490874        40.5687 
 280   0.0000       1.497842        40.7584 
 281   0.0000       1.506152        40.9845 
 282   0.0000       1.511735        41.1364 
 283   0.0000       1.514868        41.2217 
 284   0.0000       1.523173        41.4477 
 285   0.0000       1.525531        41.5118 
 286   0.0000       1.535749        41.7899 
 287   0.0000       1.544820        42.0367 
 288   0.0000       1.548630        42.1404 
 289   0.0000       1.558327        42.4042 
 290   0.0000       1.560402        42.4607 
 291   0.0000       1.567342        42.6496 
 292   0.0000       1.575131        42.8615 
 293   0.0000       1.581939        43.0467 
 294   0.0000       1.588832        43.2343 
 295   0.0000       1.597569        43.4721 
 296   0.0000       1.609152        43.7873 
 297   0.0000       1.615021        43.9470 
 298   0.0000       1.622903        44.1614 
 299   0.0000       1.634052        44.4648 
 300   0.0000       1.636693        44.5367 
 301   0.0000       1.646641        44.8074 
 302   0.0000       1.650224        44.9049 
 303   0.0000       1.661228        45.2043 
 304   0.0000       1.674280        45.5595 
 305   0.0000       1.681459        45.7548 
 306   0.0000       1.688160        45.9372 
 307   0.0000       1.704839        46.3910 
 308   0.0000       1.716584        46.7106 
 309   0.0000       1.719793        46.7980 
 310   0.0000       1.726390        46.9775 
 311   0.0000       1.742273        47.4097 
 312   0.0000       1.748583        47.5814 
 313   0.0000       1.749667        47.6109 
 314   0.0000       1.764553        48.0159 
 315   0.0000       1.766827        48.0778 
 316   0.0000       1.773064        48.2475 
 317   0.0000       1.778407        48.3929 
 318   0.0000       1.797937        48.9243 
 319   0.0000       1.806727        49.1635 
 320   0.0000       1.816761        49.4366 
 321   0.0000       1.832061        49.8529 
 322   0.0000       1.845641        50.2224 
 323   0.0000       1.860022        50.6138 
 324   0.0000       1.864769        50.7430 
 325   0.0000       1.868021        50.8314 
 326   0.0000       1.884412        51.2775 
 327   0.0000       1.901270        51.7362 
 328   0.0000       1.905346        51.8471 
 329   0.0000       1.920818        52.2681 
 330   0.0000       1.925745        52.4022 
 331   0.0000       1.941147        52.8213 
 332   0.0000       1.950388        53.0728 
 333   0.0000       1.955901        53.2228 
 334   0.0000       1.973469        53.7008 
 335   0.0000       1.983916        53.9851 
 336   0.0000       1.986730        54.0617 
 337   0.0000       2.003351        54.5140 
 338   0.0000       2.013086        54.7789 
 339   0.0000       2.015950        54.8568 
 340   0.0000       2.028022        55.1853 
 341   0.0000       2.037911        55.4544 
 342   0.0000       2.042891        55.5899 
 343   0.0000       2.064131        56.1678 
 344   0.0000       2.100711        57.1633 
 345   0.0000       2.115027        57.5528 
 346   0.0000       2.121365        57.7253 
 347   0.0000       2.136180        58.1284 
 348   0.0000       2.145655        58.3862 
 349   0.0000       2.165423        58.9241 
 350   0.0000       2.177991        59.2662 
 351   0.0000       2.188551        59.5535 
 352   0.0000       2.223407        60.5020 
 353   0.0000       2.236239        60.8512 
 354   0.0000       2.239083        60.9286 
 355   0.0000       2.253646        61.3248 
 356   0.0000       2.266530        61.6754 
 357   0.0000       2.282562        62.1117 
 358   0.0000       2.291717        62.3608 
 359   0.0000       2.308134        62.8075 
 360   0.0000       2.312656        62.9306 
 361   0.0000       2.323840        63.2349 
 362   0.0000       2.343701        63.7753 
 363   0.0000       2.355174        64.0875 
 364   0.0000       2.368134        64.4402 
 365   0.0000       2.384222        64.8780 
 366   0.0000       2.388968        65.0071 
 367   0.0000       2.397684        65.2443 
 368   0.0000       2.418655        65.8149 
 369   0.0000       2.428277        66.0768 
 370   0.0000       2.438509        66.3552 
 371   0.0000       2.449149        66.6447 
 372   0.0000       2.466493        67.1167 
 373   0.0000       2.482892        67.5629 
 374   0.0000       2.492270        67.8181 
 375   0.0000       2.508711        68.2655 
 376   0.0000       2.527286        68.7710 
 377   0.0000       2.548877        69.3585 
 378   0.0000       2.557180        69.5844 
 379   0.0000       2.564461        69.7825 
 380   0.0000       2.569466        69.9187 
 381   0.0000       2.587992        70.4228 
 382   0.0000       2.596236        70.6472 
 383   0.0000       2.606539        70.9275 
 384   0.0000       2.617347        71.2216 
 385   0.0000       2.621889        71.3452 
 386   0.0000       2.635550        71.7170 
 387   0.0000       2.655149        72.2503 
 388   0.0000       2.656621        72.2903 
 389   0.0000       2.668675        72.6183 
 390   0.0000       2.671168        72.6862 
 391   0.0000       2.691377        73.2361 
 392   0.0000       2.694368        73.3175 
 393   0.0000       2.715935        73.9043 
 394   0.0000       2.724447        74.1360 
 395   0.0000       2.730089        74.2895 
 396   0.0000       2.740073        74.5612 
 397   0.0000       2.743181        74.6457 
 398   0.0000       2.753063        74.9147 
 399   0.0000       2.765646        75.2571 
 400   0.0000       2.780136        75.6514 
 401   0.0000       2.789687        75.9112 
 402   0.0000       2.794006        76.0288 
 403   0.0000       2.802130        76.2498 
 404   0.0000       2.813744        76.5659 
 405   0.0000       2.827608        76.9431 
 406   0.0000       2.829071        76.9829 
 407   0.0000       2.835216        77.1501 
 408   0.0000       2.849384        77.5357 
 409   0.0000       2.859661        77.8153 
 410   0.0000       2.867864        78.0385 
 411   0.0000       2.871278        78.1314 
 412   0.0000       2.882751        78.4437 
 413   0.0000       2.886470        78.5448 
 414   0.0000       2.890359        78.6507 
 415   0.0000       2.907397        79.1143 
 416   0.0000       2.914493        79.3074 
 417   0.0000       2.930124        79.7327 
 418   0.0000       2.941839        80.0515 
 419   0.0000       2.952389        80.3386 
 420   0.0000       2.959736        80.5385 
 421   0.0000       2.971395        80.8558 
 422   0.0000       2.976132        80.9847 
 423   0.0000       2.980763        81.1107 
 424   0.0000       2.988659        81.3255 
 425   0.0000       2.993604        81.4601 
 426   0.0000       3.013795        82.0095 
 427   0.0000       3.018447        82.1361 
 428   0.0000       3.032338        82.5141 
 429   0.0000       3.033484        82.5453 
 430   0.0000       3.044387        82.8420 
 431   0.0000       3.052757        83.0698 
 432   0.0000       3.065970        83.4293 
 433   0.0000       3.070665        83.5570 
 434   0.0000       3.080599        83.8274 
 435   0.0000       3.088301        84.0370 
 436   0.0000       3.097489        84.2870 
 437   0.0000       3.105255        84.4983 
 438   0.0000       3.109126        84.6036 
 439   0.0000       3.112148        84.6858 
 440   0.0000       3.119176        84.8771 
 441   0.0000       3.131175        85.2036 
 442   0.0000       3.136027        85.3356 
 443   0.0000       3.139075        85.4186 
 444   0.0000       3.151430        85.7548 
 445   0.0000       3.158833        85.9562 
 446   0.0000       3.165008        86.1242 
 447   0.0000       3.173757        86.3623 
 448   0.0000       3.178199        86.4832 
 449   0.0000       3.181933        86.5848 
 450   0.0000       3.196569        86.9831 
 451   0.0000       3.208285        87.3019 
 452   0.0000       3.215897        87.5090 
 453   0.0000       3.221583        87.6637 
 454   0.0000       3.231444        87.9321 
 455   0.0000       3.238198        88.1158 
 456   0.0000       3.241143        88.1960 
 457   0.0000       3.248755        88.4031 
 458   0.0000       3.259780        88.7031 
 459   0.0000       3.267132        88.9032 
 460   0.0000       3.269830        88.9766 
 461   0.0000       3.272418        89.0470 
 462   0.0000       3.280524        89.2676 
 463   0.0000       3.284395        89.3729 
 464   0.0000       3.294048        89.6356 
 465   0.0000       3.300092        89.8001 
 466   0.0000       3.308471        90.0281 
 467   0.0000       3.315114        90.2088 
 468   0.0000       3.319650        90.3323 
 469   0.0000       3.326008        90.5053 
 470   0.0000       3.334836        90.7455 
 471   0.0000       3.342674        90.9588 
 472   0.0000       3.352816        91.2348 
 473   0.0000       3.356086        91.3237 
 474   0.0000       3.357374        91.3588 
 475   0.0000       3.360466        91.4429 
 476   0.0000       3.369511        91.6890 
 477   0.0000       3.372053        91.7582 
 478   0.0000       3.381531        92.0161 
 479   0.0000       3.386049        92.1391 
 480   0.0000       3.397269        92.4444 
 481   0.0000       3.401824        92.5683 
 482   0.0000       3.408824        92.7588 
 483   0.0000       3.409549        92.7785 
 484   0.0000       3.415237        92.9333 
 485   0.0000       3.416950        92.9799 
 486   0.0000       3.421164        93.0946 
 487   0.0000       3.428156        93.2849 
 488   0.0000       3.443895        93.7132 
 489   0.0000       3.451548        93.9214 
 490   0.0000       3.453061        93.9626 
 491   0.0000       3.460413        94.1626 
 492   0.0000       3.463156        94.2373 
 493   0.0000       3.468381        94.3794 
 494   0.0000       3.476108        94.5897 
 495   0.0000       3.486455        94.8713 
 496   0.0000       3.498220        95.1914 
 497   0.0000       3.503575        95.3371 
 498   0.0000       3.505703        95.3950 
 499   0.0000       3.511535        95.5537 
 500   0.0000       3.520870        95.8077 
 501   0.0000       3.523510        95.8796 
 502   0.0000       3.526063        95.9491 
 503   0.0000       3.539657        96.3190 
 504   0.0000       3.550229        96.6066 
 505   0.0000       3.561836        96.9225 
 506   0.0000       3.567511        97.0769 
 507   0.0000       3.573707        97.2455 
 508   0.0000       3.577757        97.3557 
 509   0.0000       3.587805        97.6291 
 510   0.0000       3.595057        97.8265 
 511   0.0000       3.599939        97.9593 
 512   0.0000       3.604347        98.0793 
 513   0.0000       3.607519        98.1656 
 514   0.0000       3.621726        98.5522 
 515   0.0000       3.623240        98.5934 
 516   0.0000       3.634981        98.9129 
 517   0.0000       3.639024        99.0229 
 518   0.0000       3.644262        99.1654 
 519   0.0000       3.648675        99.2855 
 520   0.0000       3.655931        99.4829 
 521   0.0000       3.663025        99.6760 
 522   0.0000       3.666794        99.7785 
 523   0.0000       3.669949        99.8644 
 524   0.0000       3.677824       100.0787 
 525   0.0000       3.686647       100.3188 
 526   0.0000       3.689885       100.4069 
 527   0.0000       3.695424       100.5576 
 528   0.0000       3.701736       100.7293 
 529   0.0000       3.710224       100.9603 
 530   0.0000       3.714620       101.0799 
 531   0.0000       3.728961       101.4702 
 532   0.0000       3.734146       101.6113 
 533   0.0000       3.734342       101.6166 
 534   0.0000       3.742445       101.8371 
 535   0.0000       3.752059       102.0987 
 536   0.0000       3.767118       102.5085 
 537   0.0000       3.771224       102.6202 
 538   0.0000       3.775721       102.7426 
 539   0.0000       3.780418       102.8704 
 540   0.0000       3.781269       102.8935 
 541   0.0000       3.788977       103.1033 
 542   0.0000       3.800509       103.4171 
 543   0.0000       3.805020       103.5399 
 544   0.0000       3.818272       103.9005 
 545   0.0000       3.825210       104.0893 
 546   0.0000       3.830383       104.2300 
 547   0.0000       3.846294       104.6630 
 548   0.0000       3.854287       104.8805 
 549   0.0000       3.855956       104.9259 
 550   0.0000       3.863221       105.1236 
 551   0.0000       3.875473       105.4570 
 552   0.0000       3.883537       105.6764 
 553   0.0000       3.884698       105.7080 
 554   0.0000       3.894487       105.9744 
 555   0.0000       3.908505       106.3558 
 556   0.0000       3.909700       106.3884 
 557   0.0000       3.920683       106.6872 
 558   0.0000       3.929063       106.9152 
 559   0.0000       3.939400       107.1965 
 560   0.0000       3.943123       107.2978 
 561   0.0000       3.948529       107.4449 
 562   0.0000       3.956175       107.6530 
 563   0.0000       3.967107       107.9505 
 564   0.0000       3.979732       108.2940 
 565   0.0000       3.987539       108.5065 
 566   0.0000       3.992177       108.6327 
 567   0.0000       4.004860       108.9778 
 568   0.0000       4.013379       109.2096 
 569   0.0000       4.014825       109.2489 
 570   0.0000       4.029345       109.6440 
 571   0.0000       4.034236       109.7771 
 572   0.0000       4.039917       109.9317 
 573   0.0000       4.053513       110.3017 
 574   0.0000       4.069301       110.7313 
 575   0.0000       4.075145       110.8903 
 576   0.0000       4.091775       111.3429 
 577   0.0000       4.098233       111.5186 
 578   0.0000       4.105203       111.7082 
 579   0.0000       4.108754       111.8049 
 580   0.0000       4.110299       111.8469 
 581   0.0000       4.118061       112.0581 
 582   0.0000       4.136147       112.5503 
 583   0.0000       4.139251       112.6347 
 584   0.0000       4.147994       112.8727 
 585   0.0000       4.156058       113.0921 
 586   0.0000       4.160220       113.2054 
 587   0.0000       4.169372       113.4544 
 588   0.0000       4.170572       113.4870 
 589   0.0000       4.174375       113.5905 
 590   0.0000       4.181763       113.7916 
 591   0.0000       4.196594       114.1951 
 592   0.0000       4.199443       114.2727 
 593   0.0000       4.205173       114.4286 
 594   0.0000       4.217199       114.7558 
 595   0.0000       4.218861       114.8011 
 596   0.0000       4.230713       115.1235 
 597   0.0000       4.239883       115.3731 
 598   0.0000       4.244024       115.4858 
 599   0.0000       4.250676       115.6668 
 600   0.0000       4.263442       116.0142 
 601   0.0000       4.273080       116.2764 
 602   0.0000       4.277736       116.4031 
 603   0.0000       4.289640       116.7270 
 604   0.0000       4.294191       116.8509 
 605   0.0000       4.301476       117.0491 
 606   0.0000       4.308720       117.2462 
 607   0.0000       4.327737       117.7637 
 608   0.0000       4.332594       117.8959 
 609   0.0000       4.335178       117.9662 
 610   0.0000       4.342821       118.1742 
 611   0.0000       4.352513       118.4379 
 612   0.0000       4.357283       118.5677 
 613   0.0000       4.361794       118.6905 
 614   0.0000       4.372341       118.9775 
 615   0.0000       4.383053       119.2689 
 616   0.0000       4.386378       119.3594 
 617   0.0000       4.392906       119.5371 
 618   0.0000       4.395131       119.5976 
 619   0.0000       4.397981       119.6752 
 620   0.0000       4.414716       120.1305 
 621   0.0000       4.418813       120.2420 
 622   0.0000       4.425216       120.4163 
 623   0.0000       4.435918       120.7075 
 624   0.0000       4.448403       121.0472 
 625   0.0000       4.454575       121.2151 
 626   0.0000       4.457949       121.3070 
 627   0.0000       4.471198       121.6675 
 628   0.0000       4.480877       121.9309 
 629   0.0000       4.494479       122.3010 
 630   0.0000       4.498146       122.4008 
 631   0.0000       4.513178       122.8098 
 632   0.0000       4.523553       123.0921 
 633   0.0000       4.528453       123.2255 
 634   0.0000       4.532996       123.3491 
 635   0.0000       4.538808       123.5072 
 636   0.0000       4.553851       123.9166 
 637   0.0000       4.562753       124.1588 
 638   0.0000       4.572173       124.4152 
 639   0.0000       4.575031       124.4929 
 640   0.0000       4.581405       124.6664 
 641   0.0000       4.598216       125.1238 
 642   0.0000       4.609644       125.4348 
 643   0.0000       4.613944       125.5518 
 644   0.0000       4.625815       125.8748 
 645   0.0000       4.631117       126.0191 
 646   0.0000       4.641031       126.2889 
 647   0.0000       4.645747       126.4172 
 648   0.0000       4.662231       126.8658 
 649   0.0000       4.667144       126.9994 
 650   0.0000       4.674936       127.2115 
 651   0.0000       4.689971       127.6206 
 652   0.0000       4.697124       127.8153 
 653   0.0000       4.705732       128.0495 
 654   0.0000       4.709426       128.1500 
 655   0.0000       4.722977       128.5187 
 656   0.0000       4.727197       128.6336 
 657   0.0000       4.743660       129.0816 
 658   0.0000       4.748544       129.2145 
 659   0.0000       4.763477       129.6208 
 660   0.0000       4.765294       129.6703 
 661   0.0000       4.781267       130.1049 
 662   0.0000       4.796444       130.5179 
 663   0.0000       4.804794       130.7451 
 664   0.0000       4.830693       131.4498 
 665   0.0000       4.844619       131.8288 
 666   0.0000       4.853333       132.0659 
 667   0.0000       4.858702       132.2120 
 668   0.0000       4.884382       132.9108 
 669   0.0000       4.894139       133.1763 
 670   0.0000       4.914276       133.7243 
 671   0.0000       4.920550       133.8950 
 672   0.0000       4.963109       135.0531 
 673   0.0000       4.969851       135.2365 
 674   0.0000       4.977018       135.4315 
 675   0.0000       4.986975       135.7025 
 676   0.0000       5.004187       136.1709 
 677   0.0000       5.021832       136.6510 
 678   0.0000       5.025930       136.7625 
 679   0.0000       5.049726       137.4100 
 680   0.0000       5.054962       137.5525 
 681   0.0000       5.078374       138.1896 
 682   0.0000       5.084310       138.3511 
 683   0.0000       5.102618       138.8493 
 684   0.0000       5.109084       139.0252 
 685   0.0000       5.122531       139.3911 
 686   0.0000       5.127154       139.5170 
 687   0.0000       5.133438       139.6879 
 688   0.0000       5.147496       140.0705 
 689   0.0000       5.168784       140.6498 
 690   0.0000       5.172413       140.7485 
 691   0.0000       5.186193       141.1235 
 692   0.0000       5.196632       141.4076 
 693   0.0000       5.202350       141.5631 
 694   0.0000       5.221657       142.0885 
 695   0.0000       5.244640       142.7139 
 696   0.0000       5.247940       142.8037 
 697   0.0000       5.250250       142.8666 
 698   0.0000       5.262650       143.2040 
 699   0.0000       5.266481       143.3082 
 700   0.0000       5.272037       143.4594 
 701   0.0000       5.286196       143.8447 
 702   0.0000       5.304238       144.3357 
 703   0.0000       5.322578       144.8347 
 704   0.0000       5.342380       145.3735 
 705   0.0000       5.349697       145.5727 
 706   0.0000       5.352642       145.6528 
 707   0.0000       5.375842       146.2841 
 708   0.0000       5.377045       146.3168 
 709   0.0000       5.393371       146.7611 
 710   0.0000       5.426072       147.6509 
 711   0.0000       5.433062       147.8411 
 712   0.0000       5.445913       148.1908 
 713   0.0000       5.469777       148.8402 
 714   0.0000       5.487222       149.3149 
 715   0.0000       5.496107       149.5567 
 716   0.0000       5.509760       149.9282 
 717   0.0000       5.511895       149.9863 
 718   0.0000       5.529074       150.4537 
 719   0.0000       5.534953       150.6137 
 720   0.0000       5.554168       151.1366 
 721   0.0000       5.559885       151.2921 
 722   0.0000       5.576981       151.7574 
 723   0.0000       5.585694       151.9945 
 724   0.0000       5.593295       152.2013 
 725   0.0000       5.614552       152.7797 
 726   0.0000       5.622232       152.9887 
 727   0.0000       5.634681       153.3275 
 728   0.0000       5.639540       153.4597 
 729   0.0000       5.649934       153.7425 
 730   0.0000       5.658711       153.9814 
 731   0.0000       5.675861       154.4480 
 732   0.0000       5.694149       154.9457 
 733   0.0000       5.698867       155.0740 
 734   0.0000       5.714555       155.5010 
 735   0.0000       5.726760       155.8331 
 736   0.0000       5.727213       155.8454 
 737   0.0000       5.753555       156.5622 
 738   0.0000       5.774821       157.1409 
 739   0.0000       5.779013       157.2549 
 740   0.0000       5.784448       157.4028 
 741   0.0000       5.803414       157.9189 
 742   0.0000       5.820494       158.3837 
 743   0.0000       5.827032       158.5616 
 744   0.0000       5.845525       159.0648 
 745   0.0000       5.870056       159.7324 
 746   0.0000       5.883256       160.0915 
 747   0.0000       5.896566       160.4537 
 748   0.0000       5.916085       160.9848 
 749   0.0000       5.931103       161.3935 
 750   0.0000       5.965512       162.3298 
 751   0.0000       5.997046       163.1879 
 752   0.0000       6.015409       163.6876 
 753   0.0000       6.022452       163.8792 
 754   0.0000       6.039652       164.3473 
 755   0.0000       6.050923       164.6540 
 756   0.0000       6.063850       165.0058 
 757   0.0000       6.085831       165.6039 
 758   0.0000       6.100737       166.0095 
 759   0.0000       6.125582       166.6856 
 760   0.0000       6.147564       167.2837 
 761   0.0000       6.174462       168.0157 
 762   0.0000       6.189014       168.4116 
 763   0.0000       6.211389       169.0205 
 764   0.0000       6.225283       169.3986 
 765   0.0000       6.281630       170.9318 
 766   0.0000       6.300280       171.4393 
 767   0.0000       6.325077       172.1141 
 768   0.0000       6.345548       172.6711 
 769   0.0000       6.361824       173.1140 
 770   0.0000       6.376057       173.5013 
 771   0.0000       6.407058       174.3449 
 772   0.0000       6.430885       174.9933 
 773   0.0000       6.440551       175.2563 
 774   0.0000       6.462235       175.8463 
 775   0.0000       6.518517       177.3779 
 776   0.0000       6.543245       178.0507 
 777   0.0000       6.577318       178.9779 
 778   0.0000       6.591164       179.3547 
 779   0.0000       6.633934       180.5185 
 780   0.0000       6.676556       181.6783 
 781   0.0000       6.699256       182.2960 
 782   0.0000       6.757048       183.8686 
 783   0.0000       6.765649       184.1027 
 784   0.0000       6.804094       185.1488 
 785   0.0000       6.851107       186.4281 
 786   0.0000       6.935839       188.7338 
 787   0.0000       6.940562       188.8623 
 788   0.0000       6.973924       189.7701 
 789   0.0000       6.998345       190.4347 
 790   0.0000       7.066931       192.3010 
 791   0.0000       7.101745       193.2483 
 792   0.0000       7.123083       193.8289 
 793   0.0000       7.138357       194.2446 
 794   0.0000       7.214368       196.3129 
 795   0.0000       7.256279       197.4534 
 796   0.0000       7.270445       197.8389 
 797   0.0000       7.307553       198.8486 
 798   0.0000       7.348926       199.9745 
 799   0.0000       7.394731       201.2209 
 800   0.0000       7.448412       202.6816 
 801   0.0000       7.533356       204.9930 
 802   0.0000       7.554584       205.5707 
 803   0.0000       7.598199       206.7575 
 804   0.0000       7.684837       209.1150 
 805   0.0000       7.782392       211.7697 
 806   0.0000       7.857231       213.8061 
 807   0.0000       7.941212       216.0914 
 808   0.0000       8.008266       217.9160 
 809   0.0000       9.374215       255.0854 
 810   0.0000       9.813669       267.0435 
 811   0.0000      11.076980       301.4199 
 812   0.0000      11.573892       314.9416 
 813   0.0000      12.213592       332.3487 
 814   0.0000      12.387098       337.0701 
 815   0.0000      12.987410       353.4054 
 816   0.0000      13.072572       355.7228 
 817   0.0000      13.102818       356.5458 
 818   0.0000      13.367973       363.7610 
 819   0.0000      13.673527       372.0756 
 820   0.0000      13.768149       374.6504 
 821   0.0000      13.872256       377.4833 
 822   0.0000      13.975845       380.3021 
 823   0.0000      14.003721       381.0606 
 824   0.0000      14.337643       390.1471 
 825   0.0000      14.780044       402.1855 
 826   0.0000      15.103013       410.9739 
 827   0.0000      15.936992       433.6676 

                    ********************************
                    * MULLIKEN POPULATION ANALYSIS *
                    ********************************

-----------------------
MULLIKEN ATOMIC CHARGES
-----------------------
   0 C :   -0.310220
   1 C :    0.020832
   2 O :   -0.329590
   3 C :    0.430684
   4 O :   -0.461143
   5 C :   -0.132941
   6 C :    0.176700
   7 C :   -0.297616
   8 N :   -0.085811
   9 C :    0.176236
  10 S :   -0.484967
  11 N :   -0.176658
  12 C :   -0.018054
  13 C :    0.067532
  14 C :   -0.201748
  15 C :   -0.143578
  16 C :   -0.247183
  17 C :    0.262809
  18 O :   -0.343531
  19 C :   -0.251431
  20 H :    0.089743
  21 H :    0.106977
  22 H :    0.117479
  23 H :    0.109466
  24 H :    0.118187
  25 H :    0.139077
  26 H :    0.129085
  27 H :    0.106009
  28 H :    0.184494
  29 H :    0.209957
  30 H :    0.160774
  31 H :    0.171256
  32 H :    0.158322
  33 H :    0.134620
  34 H :    0.242573
  35 H :    0.171659
Sum of atomic charges:   -0.0000000

--------------------------------
MULLIKEN REDUCED ORBITAL CHARGES
--------------------------------
  0 C s       :     3.268197  s :     3.268197
      pz      :     1.028681  p :     2.964617
      px      :     1.005656
      py      :     0.930280
      dz2     :     0.019032  d :     0.072814
      dxz     :     0.011115
      dyz     :     0.004993
      dx2y2   :     0.014673
      dxy     :     0.023001
      f0      :     0.001108  f :     0.004592
      f+1     :     0.000386
      f-1     :     0.000532
      f+2     :     0.000353
      f-2     :     0.000217
      f+3     :     0.000809
      f-3     :     0.001187
  1 C s       :     3.167045  s :     3.167045
      pz      :     0.661097  p :     2.647021
      px      :     1.036872
      py      :     0.949051
      dz2     :     0.038957  d :     0.153020
      dxz     :     0.032776
      dyz     :     0.036607
      dx2y2   :     0.016881
      dxy     :     0.027799
      f0      :     0.003471  f :     0.012081
      f+1     :     0.002625
      f-1     :     0.003033
      f+2     :     0.000511
      f-2     :     0.000383
      f+3     :     0.001075
      f-3     :     0.000983
  2 O s       :     3.695799  s :     3.695799
      pz      :     1.320655  p :     4.595384
      px      :     1.546050
      py      :     1.728679
      dz2     :     0.011737  d :     0.035851
      dxz     :     0.007714
      dyz     :     0.005651
      dx2y2   :     0.004856
      dxy     :     0.005893
      f0      :     0.000672  f :     0.002556
      f+1     :     0.000474
      f-1     :     0.000258
      f+2     :     0.000345
      f-2     :     0.000310
      f+3     :     0.000210
      f-3     :     0.000288
  3 C s       :     3.064926  s :     3.064926
      pz      :     0.846585  p :     2.175270
      px      :     0.694237
[...]
 15 C s       :     2.703720  s :     2.703720
      pz      :     0.933655  p :     2.798043
      px      :     0.889615
      py      :     0.974773
      dz2     :     0.069313  d :     0.411292
      dxz     :     0.068747
      dyz     :     0.106523
      dx2y2   :     0.082475
      dxy     :     0.084234
      f0      :     0.006064  f :     0.041920
      f+1     :     0.003419
      f-1     :     0.006583
      f+2     :     0.004664
      f-2     :     0.007836
      f+3     :     0.005455
      f-3     :     0.007898
 16 C s       :     2.702501  s :     2.702501
      pz      :     0.959543  p :     2.858635
      px      :     0.935209
      py      :     0.963882
      dz2     :     0.100645  d :     0.400807
      dxz     :     0.076324
      dyz     :     0.071727
      dx2y2   :     0.071257
      dxy     :     0.080854
      f0      :     0.004808  f :     0.041074
      f+1     :     0.006316
      f-1     :     0.006793
      f+2     :     0.007061
      f-2     :     0.007156
      f+3     :     0.005054
      f-3     :     0.003885
 17 C s       :     2.709525  s :     2.709525
      pz      :     0.864989  p :     2.688303
      px      :     0.937783
      py      :     0.885531
      dz2     :     0.171043  d :     0.699054
      dxz     :     0.112486
      dyz     :     0.153095
      dx2y2   :     0.125648
      dxy     :     0.136781
      f0      :     0.016221  f :     0.097408
      f+1     :     0.009597
      f-1     :     0.018181
      f+2     :     0.012846
      f-2     :     0.019120
      f+3     :     0.010125
      f-3     :     0.011318
 18 O s       :     3.174796  s :     3.174796
      pz      :     1.497382  p :     4.343239
      px      :     1.481361
      py      :     1.364496
      dz2     :     0.017627  d :     0.077462
      dxz     :     0.009208
      dyz     :     0.018929
      dx2y2   :     0.009567
      dxy     :     0.022132
      f0      :     0.000488  f :     0.005154
      f+1     :     0.000591
      f-1     :     0.000965
      f+2     :     0.000807
      f-2     :     0.001001
      f+3     :     0.000542
      f-3     :     0.000758
 19 C s       :     2.706867  s :     2.706867
      pz      :     0.949135  p :     2.842816
      px      :     0.937047
      py      :     0.956634
      dz2     :     0.058971  d :     0.371309
      dxz     :     0.067674
      dyz     :     0.085524
      dx2y2   :     0.080761
      dxy     :     0.078380
      f0      :     0.005705  f :     0.037648
      f+1     :     0.002667
      f-1     :     0.005830
      f+2     :     0.005220
      f-2     :     0.006257
      f+3     :     0.005283
      f-3     :     0.006686
 20 H s       :     0.854156  s :     0.854156
      pz      :     0.048659  p :     0.151643
      px      :     0.061323
      py      :     0.041661
      dz2     :     0.006360  d :     0.027579
      dxz     :     0.006174
      dyz     :     0.002759
      dx2y2   :     0.006059
      dxy     :     0.006226
 21 H s       :     0.846942  s :     0.846942
      pz      :     0.070352  p :     0.150607
      px      :     0.040776
      py      :     0.039480
      dz2     :     0.008945  d :     0.027239
      dxz     :     0.008929
      dyz     :     0.008152
      dx2y2   :     0.000623
      dxy     :     0.000590
 22 H s       :     0.839664  s :     0.839664
      pz      :     0.041105  p :     0.154127
      px      :     0.061727
      py      :     0.051295
      dz2     :     0.003842  d :     0.027851
      dxz     :     0.005689
      dyz     :     0.002986
      dx2y2   :     0.008515
      dxy     :     0.006819
 23 H s       :     0.855050  s :     0.855050
      pz      :     0.027974  p :     0.144671
      px      :     0.059799
      py      :     0.056898
      dz2     :     0.003517  d :     0.027010
      dxz     :     0.003637
      dyz     :     0.004117
      dx2y2   :     0.009144
      dxy     :     0.006595
 24 H s       :     0.847004  s :     0.847004
      pz      :     0.035935  p :     0.149672
      px      :     0.072009
      py      :     0.041728
      dz2     :     0.004573  d :     0.027610
      dxz     :     0.007178
      dyz     :     0.002438
      dx2y2   :     0.006055
      dxy     :     0.007366
 25 H s       :     0.822967  s :     0.822967
      pz      :     0.048743  p :     0.152661
      px      :     0.036318
      py      :     0.067600
      dz2     :     0.004883  d :     0.027894
      dxz     :     0.002748
      dyz     :     0.007770
      dx2y2   :     0.006612
      dxy     :     0.005882
 26 H s       :     0.819039  s :     0.819039
      pz      :     0.061115  p :     0.156603
      px      :     0.038168
      py      :     0.057320
      dz2     :     0.008036  d :     0.028459
      dxz     :     0.005586
      dyz     :     0.007108
      dx2y2   :     0.004349
      dxy     :     0.003380
 27 H s       :     0.839227  s :     0.839227
      pz      :     0.057288  p :     0.149632
      px      :     0.050920
      py      :     0.041424
      dz2     :     0.007244  d :     0.027797
      dxz     :     0.007243
      dyz     :     0.005805
      dx2y2   :     0.004161
      dxy     :     0.003344
 28 H s       :     0.739540  s :     0.739540
      pz      :     0.063127  p :     0.251037
      px      :     0.109080
      py      :     0.078830
      dz2     :     0.009325  d :     0.061249
      dxz     :     0.016889
      dyz     :     0.004137
      dx2y2   :     0.012709
      dxy     :     0.018188
 29 H s       :     0.742115  s :     0.742115
      pz      :     0.074614  p :     0.248054
      px      :     0.088484
      py      :     0.084957
      dz2     :     0.009921  d :     0.060069
      dxz     :     0.016033
      dyz     :     0.005760
      dx2y2   :     0.012365
      dxy     :     0.015989
 30 H s       :     0.818388  s :     0.818388
      pz      :     0.050024  p :     0.153902
      px      :     0.048073
      py      :     0.055804
      dz2     :     0.005722  d :     0.029747
      dxz     :     0.004342
      dyz     :     0.006152
      dx2y2   :     0.006765
      dxy     :     0.006766
 31 H s       :     0.834385  s :     0.834385
      pz      :     0.064690  p :     0.158824
      px      :     0.039075
      py      :     0.055059
      dz2     :     0.007786  d :     0.027828
      dxz     :     0.005228
      dyz     :     0.007488
      dx2y2   :     0.003669
      dxy     :     0.003657
 32 H s       :     0.838735  s :     0.838735
      pz      :     0.062656  p :     0.154718
      px      :     0.052676
      py      :     0.039386
      dz2     :     0.007552  d :     0.027198
      dxz     :     0.006809
      dyz     :     0.006039
      dx2y2   :     0.003111
      dxy     :     0.003687
 33 H s       :     0.848334  s :     0.848334
      pz      :     0.037806  p :     0.157380
      px      :     0.050403
      py      :     0.069172
      dz2     :     0.002550  d :     0.027630
      dxz     :     0.001968
      dyz     :     0.006951
      dx2y2   :     0.008205
      dxy     :     0.007956
 34 H s       :     0.703476  s :     0.703476
      pz      :     0.085590  p :     0.344875
      px      :     0.150179
      py      :     0.109106
      dz2     :     0.009068  d :     0.097841
      dxz     :     0.019845
      dyz     :     0.012122
      dx2y2   :     0.032496
      dxy     :     0.024310
 35 H s       :     0.841421  s :     0.841421
      pz      :     0.058756  p :     0.161008
      px      :     0.063810
      py      :     0.038443
      dz2     :     0.006547  d :     0.028028
      dxz     :     0.007249
      dyz     :     0.004309
      dx2y2   :     0.004912
      dxy     :     0.005011


                      *****************************
                      * MAYER POPULATION ANALYSIS *
                      *****************************

  NA   - Mulliken gross atomic population
  ZA   - Total nuclear charge
  QA   - Mulliken gross atomic charge
  VA   - Mayer's total valence
  BVA  - Mayer's bonded valence
  FA   - Mayer's free valence

  ATOM       NA         ZA         QA         VA         BVA        FA
  0 C      6.3102     6.0000    -0.3102     3.8768     3.8768     0.0000
  1 C      5.9792     6.0000     0.0208     3.8436     3.8436    -0.0000
  2 O      8.3296     8.0000    -0.3296     2.0687     2.0687     0.0000
  3 C      5.5693     6.0000     0.4307     4.2300     4.2300     0.0000
  4 O      8.4611     8.0000    -0.4611     2.0447     2.0447     0.0000
  5 C      6.1329     6.0000    -0.1329     3.5945     3.5945     0.0000
  6 C      5.8233     6.0000     0.1767     3.8287     3.8287     0.0000
  7 C      6.2976     6.0000    -0.2976     3.9014     3.9014    -0.0000
  8 N      7.0858     7.0000    -0.0858     3.2553     3.2553     0.0000
  9 C      5.8238     6.0000     0.1762     4.1561     4.1561     0.0000
 10 S     16.4850    16.0000    -0.4850     1.6681     1.6681     0.0000
 11 N      7.1767     7.0000    -0.1767     3.2951     3.2951     0.0000
 12 C      6.0181     6.0000    -0.0181     3.9583     3.9583    -0.0000
 13 C      5.9325     6.0000     0.0675     3.7406     3.7406    -0.0000
 14 C      6.2017     6.0000    -0.2017     3.8377     3.8377    -0.0000
 15 C      6.1436     6.0000    -0.1436     3.8224     3.8224     0.0000
 16 C      6.2472     6.0000    -0.2472     3.7970     3.7970     0.0000
 17 C      5.7372     6.0000     0.2628     3.9060     3.9060     0.0000
 18 O      8.3435     8.0000    -0.3435     2.1204     2.1204    -0.0000
 19 C      6.2514     6.0000    -0.2514     3.8316     3.8316    -0.0000
 20 H      0.9103     1.0000     0.0897     0.9782     0.9782     0.0000
 21 H      0.8930     1.0000     0.1070     0.9857     0.9857     0.0000
 22 H      0.8825     1.0000     0.1175     0.9863     0.9863    -0.0000
 23 H      0.8905     1.0000     0.1095     0.9729     0.9729    -0.0000
 24 H      0.8818     1.0000     0.1182     0.9840     0.9840    -0.0000
 25 H      0.8609     1.0000     0.1391     0.9778     0.9778    -0.0000
 26 H      0.8709     1.0000     0.1291     0.9816     0.9816    -0.0000
 27 H      0.8940     1.0000     0.1060     0.9940     0.9940    -0.0000
 28 H      0.8155     1.0000     0.1845     1.0337     1.0337     0.0000
 29 H      0.7900     1.0000     0.2100     1.0068     1.0068     0.0000
 30 H      0.8392     1.0000     0.1608     0.9981     0.9981    -0.0000
 31 H      0.8287     1.0000     0.1713     0.9894     0.9894    -0.0000
 32 H      0.8417     1.0000     0.1583     0.9771     0.9771     0.0000
 33 H      0.8654     1.0000     0.1346     0.9889     0.9889     0.0000
 34 H      0.7574     1.0000     0.2426     1.0078     1.0078    -0.0000
 35 H      0.8283     1.0000     0.1717     0.9872     0.9872    -0.0000

  Mayer bond orders larger than 0.100000
B(  0-C ,  1-C ) :   0.9581 B(  0-C , 20-H ) :   0.9776 B(  0-C , 21-H ) :   0.9789 
B(  0-C , 22-H ) :   0.9735 B(  1-C ,  2-O ) :   0.8948 B(  1-C , 23-H ) :   0.9834 
B(  1-C , 24-H ) :   0.9776 B(  2-O ,  3-C ) :   1.1747 B(  3-C ,  4-O ) :   1.9313 
B(  3-C ,  5-C ) :   1.0772 B(  5-C ,  6-C ) :   1.6302 B(  5-C , 12-C ) :   0.9491 
B(  6-C ,  7-C ) :   0.9617 B(  6-C ,  8-N ) :   1.1086 B(  7-C , 25-H ) :   0.9600 
B(  7-C , 26-H ) :   0.9628 B(  7-C , 27-H ) :   0.9914 B(  8-N ,  9-C ) :   1.1969 
B(  8-N , 28-H ) :   0.9504 B(  9-C , 10-S ) :   1.5255 B(  9-C , 11-N ) :   1.3675 
B( 11-N , 12-C ) :   0.9613 B( 11-N , 29-H ) :   0.9455 B( 12-C , 13-C ) :   0.9791 
B( 12-C , 30-H ) :   1.0043 B( 13-C , 14-C ) :   1.4069 B( 13-C , 19-C ) :   1.3181 
B( 14-C , 15-C ) :   1.3553 B( 14-C , 31-H ) :   0.9580 B( 15-C , 16-C ) :   1.4026 
B( 15-C , 32-H ) :   0.9730 B( 16-C , 17-C ) :   1.3219 B( 16-C , 33-H ) :   0.9795 
B( 17-C , 18-O ) :   1.1113 B( 17-C , 19-C ) :   1.3956 B( 18-O , 34-H ) :   0.9755 
B( 19-C , 35-H ) :   0.9599 

-------
TIMINGS
-------

Total SCF time: 0 days 1 hours 50 min 50 sec 

Total time                  ....    6650.755 sec
Sum of individual times     ....    6647.259 sec  ( 99.9%)

Fock matrix formation       ....    6635.042 sec  ( 99.8%)
Diagonalization             ....       1.358 sec  (  0.0%)
Density matrix formation    ....       0.186 sec  (  0.0%)
Population analysis         ....       0.197 sec  (  0.0%)
Initial guess               ....       5.727 sec  (  0.1%)
Orbital Transformation      ....       0.000 sec  (  0.0%)
Orbital Orthonormalization  ....       0.000 sec  (  0.0%)
DIIS solution               ....       1.387 sec  (  0.0%)
SOSCF solution              ....       1.982 sec  (  0.0%)

Maximum memory used throughout the entire SCF-calculation: 721.7 MB

------------------------------------------------------------------------------
                                ORCA  MP2 
------------------------------------------------------------------------------

Freezing NCore=48 chemical core electrons

-------------
RI-MP2 ENERGY
-------------
Dimension of the basis                    ...  828
Memory devoted to MP2                     ...  256 MB   
Data format for buffers                   ... DOUBLE
Compression type for matrix containers    ... UNCOMPRESSED
Overall scaling of the MP2 energy         ...   1.000e+00
Calculating two index integrals           ... done (    0.041 sec)
Cholesky decomposition of V**-1           ... done (    0.543 sec)

-----------------
RI-TRANSFORMATION (AUX index driven)
-----------------

Dimension of the orbital-basis         ... 828
Dimension of the aux-basis             ... 2141
Transformation of internal/external MOs...   24-  76 to   77- 827
Number Format for Storage              ... Double (8 Byte)
Integral mode                          ... Direct

First Phase: integral generation and transformation of MO indices
  Aux angular momentum 0               ... done (    4.700 sec)
  Aux angular momentum 1               ... done (    8.007 sec)
  Aux angular momentum 2               ... done (   10.571 sec)
  Aux angular momentum 3               ... done (    8.341 sec)
  Aux angular momentum 4               ... done (    2.866 sec)
Closing buffer VIA ( 0.63 GB; CompressionRatio= 1.00)
  Phase 1 completed in    34.675 sec
Second Phase: sorting and transformation of aux index

IA-Transformation
Memory available                       ... 158 MB 
Max. # MO pairs treated in a batch     ... 11    
# of internal orbitals                 ... 53
# batches for internal orbitals        ... 5
Closing buffer IAV ( 0.63 GB; CompressionRatio= 1.00)
(ia|v) transformation done in    18.953 sec

  Phase 2 completed in    18.961 sec
RI-Integral transformation completed in    53.641 sec
Opening buffers                              ... done

Starting loop over batches of integrals:

Operator 0  - window                       ... ( 24- 76)x( 77-827)
Operator 0  - Memory available             ...   256 MB
Operator 0  - Memory needed per MO         ...  12.3 MB
Operator 0  - Number of orbitals per batch ... 13
Operator 0  - Number of batches            ... 5

OPERATOR  0   PASS   0:  MOs    24 ...   36
  Reading integrals       ... ok
  Internal MO  26
  Internal MO  29
  Internal MO  32
  Internal MO  35
OPERATOR  0   PASS   1:  MOs    37 ...   49
  Reading integrals       ... ok
  Internal MO  38
  Internal MO  41
  Internal MO  44
  Internal MO  47
OPERATOR  0   PASS   2:  MOs    50 ...   62
  Reading integrals       ... ok
  Internal MO  50
  Internal MO  53
  Internal MO  56
  Internal MO  59
  Internal MO  62
OPERATOR  0   PASS   3:  MOs    63 ...   75
  Reading integrals       ... ok
  Internal MO  65
  Internal MO  68
  Internal MO  71
  Internal MO  74
OPERATOR  0   PASS   4:  MOs    76 ...   76
  Reading integrals       ... ok
Time spent in pair loops =    89.028 sec
Deleting buffer (Ka|jb)[aa] ...done

-----------------------------------------------
 RI-MP2 CORRELATION ENERGY:     -3.530794676 Eh
-----------------------------------------------


-------
TIMINGS
-------

Total time                :  143.348 sec
Integral trafo            :   53.662 sec ( 37.4%)
I/O of integrals          :    0.838 sec (  0.6%)
K(i,j) Operators          :   61.512 sec ( 42.9%)
T(i,j) pair energies      :    8.939 sec (  6.2%)
V-calculation             :    0.041 sec (  0.0%)
V**(-1/2)                 :    0.543 sec (  0.4%)
Gamma(ia|P)               :    0.000 sec (  0.0%)
Gamma-Trafo               :    0.000 sec (  0.0%)
D(virtual)                :    0.000 sec (  0.0%)
D(internal)               :    0.000 sec (  0.0%)
W(virtual)                :    0.000 sec (  0.0%)
W(internal)               :    0.000 sec (  0.0%)
L(virtual)                :    0.000 sec (  0.0%)
L(internal)               :    0.000 sec (  0.0%)
G(D)                      :    0.000 sec (  0.0%)
G(Z)                      :    0.000 sec (  0.0%)
Z-Vector Solution         :    0.000 sec (  0.0%)
3-Index Derivative        :    0.000 sec (  0.0%)
2-Index Derivative        :    0.000 sec (  0.0%)
Separable Gradient        :    0.000 sec (  0.0%)


---------------------------------------
MP2 TOTAL ENERGY:    -1274.312189736 Eh
---------------------------------------

Maximum memory used throughout the entire MP2-calculation: 302.9 MB

-------------------------   --------------------
FINAL SINGLE POINT ENERGY     -1274.312189736224
-------------------------   --------------------


                            ***************************************
                            *     ORCA property calculations      *
                            ***************************************


  WARNING: The energy has been calculated at the MP2 level but the densities
           used in the property calculations are still SCF densities
           MP2 response densities have not been calculated 
           use %mp2 Density relaxed end
           or  %mp2 Density unrelaxed end

                                    ---------------------
                                    Active property flags
                                    ---------------------
   (+) Dipole Moment


------------------------------------------------------------------------------
                       ORCA ELECTRIC PROPERTIES CALCULATION
------------------------------------------------------------------------------

Dipole Moment Calculation                       ... on
Quadrupole Moment Calculation                   ... off
Polarizability Calculation                      ... off
GBWName                                         ... qm_input.vacu.gbw
Electron density file                           ... qm_input.vacu.scfp
The origin for moment calculation is the CENTER OF MASS  = (-8.167780,  9.151992 -10.363408)

-------------
DIPOLE MOMENT
-------------
                                X             Y             Z
Electronic contribution:     -5.97880       0.05080     -15.90033
Nuclear contribution   :      6.33905      -1.28302      17.72157
                        -----------------------------------------
Total Dipole Moment    :      0.36025      -1.23222       1.82124
                        -----------------------------------------
Magnitude (a.u.)       :      2.22824
Magnitude (Debye)      :      5.66375



--------------------
Rotational spectrum 
--------------------
 
Rotational constants in cm-1:     0.010643     0.008812     0.005633 
Rotational constants in MHz :   319.066429   264.190399   168.864699 

 Dipole components along the rotational axes: 
x,y,z [a.u.] :    -0.862590     1.833162    -0.927648 
x,y,z [Debye]:    -2.192530     4.659527    -2.357893 

 

Timings for individual modules:

Sum of individual times         ...     6796.340 sec (= 113.272 min)
GTO integral calculation        ...        1.823 sec (=   0.030 min)   0.0 %
SCF iterations                  ...     6650.815 sec (= 110.847 min)  97.9 %
MP2 module                      ...      143.703 sec (=   2.395 min)   2.1 %
                             ****ORCA TERMINATED NORMALLY****
TOTAL RUN TIME: 0 days 1 hours 53 minutes 17 seconds 173 msec
