
                                        *****************
                                        * O   R   C   A *
                                        *****************

                                            #,                                       
                                            ###                                      
                                            ####                                     
                                            #####                                    
                                            ######                                   
                                           ########,                                 
                                     ,,################,,,,,                         
                               ,,#################################,,                 
                          ,,##########################################,,             
                       ,#########################################, ''#####,          
                    ,#############################################,,   '####,        
                  ,##################################################,,,,####,       
                ,###########''''           ''''###############################       
              ,#####''   ,,,,##########,,,,          '''####'''          '####       
            ,##' ,,,,###########################,,,                        '##       
           ' ,,###''''                  '''############,,,                           
         ,,##''                                '''############,,,,        ,,,,,,###''
      ,#''                                            '''#######################'''  
     '                                                          ''''####''''         
             ,#######,   #######,   ,#######,      ##                                
            ,#'     '#,  ##    ##  ,#'     '#,    #''#        ######   ,####,        
            ##       ##  ##   ,#'  ##            #'  '#       #        #'  '#        
            ##       ##  #######   ##           ,######,      #####,   #    #        
            '#,     ,#'  ##    ##  '#,     ,#' ,#      #,         ##   #,  ,#        
             '#######'   ##     ##  '#######'  #'      '#     #####' # '####'        



                  #######################################################
                  #                        -***-                        #
                  #          Department of theory and spectroscopy      #
                  #    Directorship and core code : Frank Neese         #
                  #        Max Planck Institute fuer Kohlenforschung    #
                  #                Kaiser Wilhelm Platz 1               #
                  #                 D-45470 Muelheim/Ruhr               #
                  #                      Germany                        #
                  #                                                     #
                  #                  All rights reserved                #
                  #                        -***-                        #
                  #######################################################


                         Program Version 5.0.0 -  RELEASE  -
                                (SVN: $Rev: 19529$)
                ($Date: 2021-06-28 11:36:33 +0200 (Mo, 28 Jun 2021) $)


 With contributions from (in alphabetic order):
   Daniel Aravena         : Magnetic Suceptibility
   Michael Atanasov       : Ab Initio Ligand Field Theory (pilot matlab implementation)
   Alexander A. Auer      : GIAO ZORA, VPT2 properties, NMR spectrum
   Ute Becker             : Parallelization
   Giovanni Bistoni       : ED, misc. LED, open-shell LED, HFLD
   Martin Brehm           : Molecular dynamics
   Dmytro Bykov           : SCF Hessian
   Vijay G. Chilkuri      : MRCI spin determinant printing, contributions to CSF-ICE
   Dipayan Datta          : RHF DLPNO-CCSD density
   Achintya Kumar Dutta   : EOM-CC, STEOM-CC
   Dmitry Ganyushin       : Spin-Orbit,Spin-Spin,Magnetic field MRCI
   Miquel Garcia          : C-PCM Hessian, Gaussian charge scheme
   Yang Guo               : DLPNO-NEVPT2, F12-NEVPT2, CIM, IAO-localization
   Andreas Hansen         : Spin unrestricted coupled pair/coupled cluster methods
   Benjamin Helmich-Paris : MC-RPA, TRAH-SCF, COSX integrals
   Lee Huntington         : MR-EOM, pCC
   Robert Izsak           : Overlap fitted RIJCOSX, COSX-SCS-MP3, EOM
   Marcus Kettner         : VPT2
   Christian Kollmar      : KDIIS, OOCD, Brueckner-CCSD(T), CCSD density, CASPT2, CASPT2-K
   Simone Kossmann        : Meta GGA functionals, TD-DFT gradient, OOMP2, MP2 Hessian
   Martin Krupicka        : Initial AUTO-CI
   Lucas Lang             : DCDCAS
   Marvin Lechner         : AUTO-CI (C++ implementation), FIC-MRCC
   Dagmar Lenk            : GEPOL surface, SMD
   Dimitrios Liakos       : Extrapolation schemes; Compound Job, initial MDCI parallelization
   Dimitrios Manganas     : Further ROCIS development; embedding schemes
   Dimitrios Pantazis     : SARC Basis sets
   Anastasios Papadopoulos: AUTO-CI, single reference methods and gradients
   Taras Petrenko         : DFT Hessian,TD-DFT gradient, ASA, ECA, R-Raman, ABS, FL, XAS/XES, NRVS
   Peter Pinski           : DLPNO-MP2, DLPNO-MP2 Gradient
   Christoph Reimann      : Effective Core Potentials
   Marius Retegan         : Local ZFS, SOC
   Christoph Riplinger    : Optimizer, TS searches, QM/MM, DLPNO-CCSD(T), (RO)-DLPNO pert. Triples
   Tobias Risthaus        : Range-separated hybrids, TD-DFT gradient, RPA, STAB
   Michael Roemelt        : Original ROCIS implementation
   Masaaki Saitow         : Open-shell DLPNO-CCSD energy and density
   Barbara Sandhoefer     : DKH picture change effects
   Avijit Sen             : IP-ROCIS
   Kantharuban Sivalingam : CASSCF convergence, NEVPT2, FIC-MRCI
   Bernardo de Souza      : ESD, SOC TD-DFT
   Georgi Stoychev        : AutoAux, RI-MP2 NMR
   Willem Van den Heuvel  : Paramagnetic NMR
   Boris Wezisla          : Elementary symmetry handling
   Frank Wennmohs         : Technical directorship


 We gratefully acknowledge several colleagues who have allowed us to
 interface, adapt or use parts of their codes:
   Stefan Grimme, W. Hujo, H. Kruse, P. Pracht,  : VdW corrections, initial TS optimization,
                  C. Bannwarth, S. Ehlert          DFT functionals, gCP, sTDA/sTD-DF
   Ed Valeev, F. Pavosevic, A. Kumar             : LibInt (2-el integral package), F12 methods
   Garnet Chan, S. Sharma, J. Yang, R. Olivares  : DMRG
   Ulf Ekstrom                                   : XCFun DFT Library
   Mihaly Kallay                                 : mrcc  (arbitrary order and MRCC methods)
   Jiri Pittner, Ondrej Demel                    : Mk-CCSD
   Frank Weinhold                                : gennbo (NPA and NBO analysis)
   Christopher J. Cramer and Donald G. Truhlar   : smd solvation model
   Lars Goerigk                                  : TD-DFT with DH, B97 family of functionals
   V. Asgeirsson, H. Jonsson                     : NEB implementation
   FAccTs GmbH                                   : IRC, NEB, NEB-TS, DLPNO-Multilevel, CI-OPT
                                                   MM, QMMM, 2- and 3-layer-ONIOM, Crystal-QMMM,
                                                   LR-CPCM, SF, NACMEs, symmetry and pop. for TD-DFT,
                                                   nearIR, NL-DFT gradient (VV10), updates on ESD,
                                                   ML-optimized integration grids
   S Lehtola, MJT Oliveira, MAL Marques          : LibXC Library
   Liviu Ungur et al                             : ANISO software


 Your calculation uses the libint2 library for the computation of 2-el integrals
 For citations please refer to: http://libint.valeyev.net

 Your ORCA version has been built with support for libXC version: 5.1.0
 For citations please refer to: https://tddft.org/programs/libxc/

 This ORCA versions uses:
   CBLAS   interface :  Fast vector & matrix operations
   LAPACKE interface :  Fast linear algebra routines
   SCALAPACK package :  Parallel linear algebra routines
   Shared memory     :  Shared parallel matrices
   BLAS/LAPACK       :  OpenBLAS 0.3.15  USE64BITINT DYNAMIC_ARCH NO_AFFINITY SkylakeX SINGLE_THREADED
        Core in use  :  SkylakeX
   Copyright (c) 2011-2014, The OpenBLAS Project


================================================================================

----- Orbital basis set information -----
Your calculation utilizes the basis: cc-pVTZ 
       H, B-Ne : Obtained from the ccRepo (grant-hill.group.shef.ac.uk/ccrepo) Feb. 2017
                 T. H. Dunning, Jr., J. Chem. Phys. 90, 1007 (1989)
            He : Obtained from the ccRepo (grant-hill.group.shef.ac.uk/ccrepo) Feb. 2017
                 D. E. Woon, T. H. Dunning, Jr., J. Chem. Phys. 100, 2975 (1994)
  Li-Be, Na-Mg : Obtained from the ccRepo (grant-hill.group.shef.ac.uk/ccrepo) Feb. 2017
                 B. P. Prascher, D. E. Woon, K. A. Peterson, T. H. Dunning, Jr., A. K. Wilson, Theor. Chem. Acc. 128, 69 (2011)
         Al-Ar : Obtained from the ccRepo (grant-hill.group.shef.ac.uk/ccrepo) Feb. 2017
                 D. E. Woon, T. H. Dunning, Jr., J. Chem. Phys. 98, 1358 (1993)
            Ca : Obtained from the Peterson Research Group Website (tyr0.chem.wsu.edu/~kipeters) Feb. 2017
                 J. Koput, K. A. Peterson, J. Phys. Chem. 106, 9595 (2002)
         Sc-Zn : Obtained from the ccRepo (grant-hill.group.shef.ac.uk/ccrepo) Feb. 2017
                 N. B. Balabanov, K. A. Peterson, J. Chem. Phys. 123, 064107 (2005)
                 N. B. Balabanov, K. A. Peterson, J. Chem. Phys. 125, 074110 (2006)
         Ga-Kr : Obtained from the ccRepo (grant-hill.group.shef.ac.uk/ccrepo) Feb. 2017
                 A. K. Wilson, D. E. Woon, K. A. Peterson, T. H. Dunning, Jr., J. Chem. Phys. 110, 7667 (1999)
             Y : Obtained from the ccRepo (grant-hill.group.shef.ac.uk/ccrepo) Feb. 2017
                 K. A. Peterson, D. Figgen, M. Dolg, H. Stoll, J. Chem. Phys. 126, 124101 (2007)
        Ag, Au : Obtained from the Peterson Research Group Website (tyr0.chem.wsu.edu/~kipeters) Feb. 2017
                 K. A. Peterson, C. Puzzarini, Theor. Chem. Acc. 114, 283 (2005)

----- AuxC basis set information -----
Your calculation utilizes the auxiliary basis: cc-pVTZ/C 
  Obtained from the EMSL Basis Set Exchange (bse.pnl.gov) Feb. 2017
  H-He, B-F, Al-Ar, Ga-Kr : F. Weigend, A. Kohn, C. Hattig, J. Chem. Phys. 116, 3175 (2002)
             Li-Be, Na-Mg : C. Haettig, Phys. Chem. Chem. Phys. 7, 59 (2005)
                       Ne : C. Haettig, Phys. Chem. Chem. Phys. 7, 59 (2005)
                            F. Weigend, A. Kohn, C. Hattig, J. Chem. Phys. 116, 3175 (2002)
                    Sc-Zn : J. G. Hill, J. A. Platts, J. Chem. Phys. 128, 044104 (2008)

================================================================================
                                        WARNINGS
                       Please study these warnings very carefully!
================================================================================


WARNING: No MP2 level density has been requested!
         To caclulate MP2 level properties use
         %mp2 Density relaxed end
         or
         %mp2 Density unrelaxed end

WARNING: Post HF methods need fully converged wavefunctions
  ===> : Setting SCFConvForced true
         You can overwrite this default with %scf ConvForced false 


INFO   : the flag for use of the SHARK integral package has been found!

================================================================================
                                       INPUT FILE
================================================================================
NAME = qm_input.solv
|  1> ! RI-MP2 cc-pVTZ cc-pVTZ/c TightSCF KeepDens NoKeepInts
|  2> 
|  3> %pointcharges "srfp_output"
|  4> 
|  5> *xyz  0  1
|  6>     C    -2.3344095    6.3285696   -1.1659302
|  7>     C    -2.7217929    4.8724416   -1.4379743
|  8>     O    -2.8745376    4.7427381   -2.8377081
|  9>     C    -3.9555798    5.2017182   -3.4750427
| 10>     O    -4.9444632    5.4442043   -2.7835678
| 11>     C    -3.7569668    5.3594124   -4.9289086
| 12>     C    -2.5226460    5.4176125   -5.5106724
| 13>     C    -1.1428122    5.3626054   -4.9677481
| 14>     N    -2.5423323    5.7142033   -6.8723237
| 15>     C    -3.5236905    6.3982559   -7.4572871
| 16>     S    -3.1564814    7.0845091   -8.9590056
| 17>     N    -4.7503786    6.3642339   -6.9444086
| 18>     C    -5.0013832    5.6023381   -5.6784379
| 19>     C    -5.8682693    4.3357413   -5.8081684
| 20>     C    -6.8601537    4.1027711   -4.9129468
| 21>     C    -7.6146705    2.9067535   -4.9265781
| 22>     C    -7.3240561    1.9234273   -5.8662376
| 23>     C    -6.3436161    2.1307154   -6.8548065
| 24>     O    -6.0647902    1.2248958   -7.8090891
| 25>     C    -5.5775916    3.3453005   -6.7879588
| 26>     H    -1.4618807    6.6617151   -1.7411711
| 27>     H    -2.1054209    6.4778767   -0.1036394
| 28>     H    -3.1776862    6.9554614   -1.4807010
| 29>     H    -2.0092494    4.1114162   -1.0969291
| 30>     H    -3.6305684    4.5989501   -0.8879570
| 31>     H    -0.9137333    4.4222346   -4.4515925
| 32>     H    -1.1298337    6.0889680   -4.1459095
| 33>     H    -0.4443294    5.5046339   -5.8015000
| 34>     H    -1.6207713    5.7481702   -7.2912961
| 35>     H    -5.5720410    6.7028203   -7.4304091
| 36>     H    -5.5611237    6.3791100   -5.1431757
| 37>     H    -7.0421905    4.7793738   -4.0832011
| 38>     H    -8.2267440    2.5638044   -4.0976342
| 39>     H    -7.8254440    0.9603474   -5.8441203
| 40>     H    -6.8344252    0.6373288   -7.9047784
| 41>     H    -4.8005402    3.6328910   -7.4900121
| 42> *
| 43> 
| 44>                          ****END OF INPUT****
================================================================================

                       ****************************
                       * Single Point Calculation *
                       ****************************

---------------------------------
CARTESIAN COORDINATES (ANGSTROEM)
---------------------------------
  C     -2.334410    6.328570   -1.165930
  C     -2.721793    4.872442   -1.437974
  O     -2.874538    4.742738   -2.837708
  C     -3.955580    5.201718   -3.475043
  O     -4.944463    5.444204   -2.783568
  C     -3.756967    5.359412   -4.928909
  C     -2.522646    5.417612   -5.510672
  C     -1.142812    5.362605   -4.967748
  N     -2.542332    5.714203   -6.872324
  C     -3.523690    6.398256   -7.457287
  S     -3.156481    7.084509   -8.959006
  N     -4.750379    6.364234   -6.944409
  C     -5.001383    5.602338   -5.678438
  C     -5.868269    4.335741   -5.808168
  C     -6.860154    4.102771   -4.912947
  C     -7.614670    2.906754   -4.926578
  C     -7.324056    1.923427   -5.866238
  C     -6.343616    2.130715   -6.854806
  O     -6.064790    1.224896   -7.809089
  C     -5.577592    3.345301   -6.787959
  H     -1.461881    6.661715   -1.741171
  H     -2.105421    6.477877   -0.103639
  H     -3.177686    6.955461   -1.480701
  H     -2.009249    4.111416   -1.096929
  H     -3.630568    4.598950   -0.887957
  H     -0.913733    4.422235   -4.451593
  H     -1.129834    6.088968   -4.145910
  H     -0.444329    5.504634   -5.801500
  H     -1.620771    5.748170   -7.291296
  H     -5.572041    6.702820   -7.430409
  H     -5.561124    6.379110   -5.143176
  H     -7.042191    4.779374   -4.083201
  H     -8.226744    2.563804   -4.097634
  H     -7.825444    0.960347   -5.844120
  H     -6.834425    0.637329   -7.904778
  H     -4.800540    3.632891   -7.490012

----------------------------
CARTESIAN COORDINATES (A.U.)
----------------------------
  NO LB      ZA    FRAG     MASS         X           Y           Z
   0 C     6.0000    0    12.011   -4.411395   11.959263   -2.203289
   1 C     6.0000    0    12.011   -5.143443    9.207580   -2.717378
   2 O     8.0000    0    15.999   -5.432089    8.962476   -5.362491
   3 C     6.0000    0    12.011   -7.474963    9.829823   -6.566879
   4 O     8.0000    0    15.999   -9.343681   10.288055   -5.260181
   5 C     6.0000    0    12.011   -7.099638   10.127822   -9.314287
   6 C     6.0000    0    12.011   -4.767110   10.237804  -10.413662
   7 C     6.0000    0    12.011   -2.159602   10.133856   -9.387683
   8 N     7.0000    0    14.007   -4.804312   10.798279  -12.986810
   9 C     6.0000    0    12.011   -6.658810   12.090951  -14.092230
  10 S    16.0000    0    32.060   -5.964885   13.387782  -16.930067
  11 N     7.0000    0    14.007   -8.976915   12.026659  -13.123030
  12 C     6.0000    0    12.011   -9.451245   10.586885  -10.730692
  13 C     6.0000    0    12.011  -11.089422    8.193364  -10.975848
  14 C     6.0000    0    12.011  -12.963812    7.753114   -9.284124
  15 C     6.0000    0    12.011  -14.389642    5.492968   -9.309883
  16 C     6.0000    0    12.011  -13.840460    3.634751  -11.085583
  17 C     6.0000    0    12.011  -11.987697    4.026469  -12.953707
  18 O     8.0000    0    15.999  -11.460793    2.314718  -14.757040
  19 C     6.0000    0    12.011  -10.540121    6.321702  -12.827383
  20 H     1.0000    0     1.008   -2.762554   12.588817   -3.290337
  21 H     1.0000    0     1.008   -3.978669   12.241413   -0.195850
  22 H     1.0000    0     1.008   -6.004957   13.143917   -2.798119
  23 H     1.0000    0     1.008   -3.796931    7.769451   -2.072896
  24 H     1.0000    0     1.008   -6.860780    8.690756   -1.677996
  25 H     1.0000    0     1.008   -1.726706    8.356812   -8.412291
  26 H     1.0000    0     1.008   -2.135076   11.506482   -7.834634
  27 H     1.0000    0     1.008   -0.839661   10.402251  -10.963246
  28 H     1.0000    0     1.008   -3.062814   10.862467  -13.778553
  29 H     1.0000    0     1.008  -10.529631   12.666495  -14.041438
  30 H     1.0000    0     1.008  -10.509001   12.054771   -9.719194
  31 H     1.0000    0     1.008  -13.307811    9.031708   -7.716132
  32 H     1.0000    0     1.008  -15.546293    4.844888   -7.743406
  33 H     1.0000    0     1.008  -14.787946    1.814794  -11.043787
  34 H     1.0000    0     1.008  -12.915192    1.204377  -14.937866
  35 H     1.0000    0     1.008   -9.071706    6.865169  -14.154072

--------------------------------
INTERNAL COORDINATES (ANGSTROEM)
--------------------------------
 C      0   0   0     0.000000000000     0.00000000     0.00000000
 C      1   0   0     1.531137695743     0.00000000     0.00000000
 O      2   1   0     1.414004473880   106.88463342     0.00000000
 C      3   2   1     1.336229906391   121.87289349   283.56499254
 O      4   3   2     1.230783256637   116.72596911   342.88237170
 C      4   3   2     1.475818633730   113.43418742   161.95392322
 C      6   4   3     1.365790689653   123.07899879   341.81499207
 C      7   6   4     1.483824077242   133.07617300   359.47173869
 N      7   6   4     1.393717301265   114.35924597   186.65554993
 C      9   7   6     1.331605818406   123.29252387    26.16669414
 S     10   9   7     1.691432656323   116.00473223   160.92812674
 N     10   9   7     1.330024641474   119.81332816   332.28884941
 C      6   4   3     1.472881272835   113.90597508   168.42466772
 C     13   6   4     1.540321059641   112.50321006   286.20675464
 C     14  13   6     1.356293290612   119.81740903    94.53308856
 C     15  14  13     1.414192176945   121.94402001   184.99444157
 C     16  15  14     1.390808082028   119.53607633     1.16435535
 C     17  16  15     1.407657422830   121.05752662   356.21774086
 O     18  17  16     1.344956620459   122.92242013   182.35712220
 C     14  13   6     1.423185065799   121.01727611   279.76035398
 H      1   2   3     1.096902239961   113.38519028   306.35397915
 H      1   2   3     1.096900238310   110.75265944   185.42737326
 H      1   2   3     1.096899985506   107.33892268    63.94152439
 H      2   1   3     1.096900053460   116.11760864   120.97320827
 H      2   1   3     1.096899968216   110.95518783   236.90939648
 H      8   7   6     1.096900627828   113.46331932    61.45702890
 H      8   7   6     1.096900064997   105.10548127   310.52282651
 H      8   7   6     1.096901338983   108.01312976   183.18921488
 H      9   7   6     1.012899945196   113.47848924   180.37001309
 H     12  10   9     1.012899963392   123.68305609   192.60200951
 H     13   6   4     1.096900011268   107.43427153    46.97389651
 H     15  14  13     1.086004851218   121.32351276   358.26898656
 H     16  15  14     1.086000020230   124.08453966   163.46363695
 H     17  16  15     1.086002714089   121.11530528   174.44700845
 H     19  18  17     0.973000233735   108.20991984    21.74420944
 H     20  14  13     1.086000004592   114.01021102   352.23232532

---------------------------
INTERNAL COORDINATES (A.U.)
---------------------------
 C      0   0   0     0.000000000000     0.00000000     0.00000000
 C      1   0   0     2.893430918277     0.00000000     0.00000000
 O      2   1   0     2.672081207773   106.88463342     0.00000000
 C      3   2   1     2.525108575034   121.87289349   283.56499254
 O      4   3   2     2.325843285260   116.72596911   342.88237170
 C      4   3   2     2.788893041088   113.43418742   161.95392322
 C      6   4   3     2.580970359704   123.07899879   341.81499207
 C      7   6   4     2.804021136906   133.07617300   359.47173869
 N      7   6   4     2.633744007498   114.35924597   186.65554993
 C      9   7   6     2.516370315124   123.29252387    26.16669414
 S     10   9   7     3.196344494421   116.00473223   160.92812674
 N     10   9   7     2.513382323753   119.81332816   332.28884941
 C      6   4   3     2.783342233439   113.90597508   168.42466772
 C     13   6   4     2.910784961033   112.50321006   286.20675464
 C     14  13   6     2.563022876531   119.81740903    94.53308856
 C     15  14  13     2.672435915159   121.94402001   184.99444157
 C     16  15  14     2.628246379877   119.53607633     1.16435535
 C     17  16  15     2.660087019530   121.05752662   356.21774086
 O     18  17  16     2.541599674673   122.92242013   182.35712220
 C     14  13   6     2.689430012247   121.01727611   279.76035398
 H      1   2   3     2.072844829212   113.38519028   306.35397915
 H      1   2   3     2.072841046639   110.75265944   185.42737326
 H      1   2   3     2.072840568908   107.33892268    63.94152439
 H      2   1   3     2.072840697323   116.11760864   120.97320827
 H      2   1   3     2.072840536235   110.95518783   236.90939648
 H      8   7   6     2.072841782721   113.46331932    61.45702890
 H      8   7   6     2.072840719125   105.10548127   310.52282651
 H      8   7   6     2.072843126609   108.01312976   183.18921488
 H      9   7   6     1.914103497485   113.47848924   180.37001309
 H     12  10   9     1.914103531869   123.68305609   192.60200951
 H     13   6   4     2.072840617591   107.43427153    46.97389651
 H     15  14  13     2.052251748913   121.32351276   358.26898656
 H     16  15  14     2.052242619668   124.08453966   163.46363695
 H     17  16  15     2.052247710324   121.11530528   174.44700845
 H     19  18  17     1.838703970001   108.20991984    21.74420944
 H     20  14  13     2.052242590115   114.01021102   352.23232532

---------------------
BASIS SET INFORMATION
---------------------
There are 5 groups of distinct atoms

 Group   1 Type C   : 18s5p2d1f contracted to 4s3p2d1f pattern {8811/311/11/1}
 Group   2 Type O   : 18s5p2d1f contracted to 4s3p2d1f pattern {8811/311/11/1}
 Group   3 Type N   : 18s5p2d1f contracted to 4s3p2d1f pattern {8811/311/11/1}
 Group   4 Type S   : 41s16p2d1f contracted to 5s4p2d1f pattern {13131311/7711/11/1}
 Group   5 Type H   : 5s2p1d contracted to 3s2p1d pattern {311/11/1}

Atom   0C    basis set group =>   1
Atom   1C    basis set group =>   1
Atom   2O    basis set group =>   2
Atom   3C    basis set group =>   1
Atom   4O    basis set group =>   2
Atom   5C    basis set group =>   1
Atom   6C    basis set group =>   1
Atom   7C    basis set group =>   1
Atom   8N    basis set group =>   3
Atom   9C    basis set group =>   1
Atom  10S    basis set group =>   4
Atom  11N    basis set group =>   3
Atom  12C    basis set group =>   1
Atom  13C    basis set group =>   1
Atom  14C    basis set group =>   1
Atom  15C    basis set group =>   1
Atom  16C    basis set group =>   1
Atom  17C    basis set group =>   1
Atom  18O    basis set group =>   2
Atom  19C    basis set group =>   1
Atom  20H    basis set group =>   5
Atom  21H    basis set group =>   5
Atom  22H    basis set group =>   5
Atom  23H    basis set group =>   5
Atom  24H    basis set group =>   5
Atom  25H    basis set group =>   5
Atom  26H    basis set group =>   5
Atom  27H    basis set group =>   5
Atom  28H    basis set group =>   5
Atom  29H    basis set group =>   5
Atom  30H    basis set group =>   5
Atom  31H    basis set group =>   5
Atom  32H    basis set group =>   5
Atom  33H    basis set group =>   5
Atom  34H    basis set group =>   5
Atom  35H    basis set group =>   5
---------------------------------
AUXILIARY/C BASIS SET INFORMATION
---------------------------------
There are 5 groups of distinct atoms

 Group   1 Type C   : 8s6p5d3f1g contracted to 8s6p5d3f1g pattern {11111111/111111/11111/111/1}
 Group   2 Type O   : 8s6p5d3f1g contracted to 8s6p5d3f1g pattern {11111111/111111/11111/111/1}
 Group   3 Type N   : 8s6p5d3f1g contracted to 8s6p5d3f1g pattern {11111111/111111/11111/111/1}
 Group   4 Type S   : 10s8p7d5f2g contracted to 10s8p7d5f2g pattern {1111111111/11111111/1111111/11111/11}
 Group   5 Type H   : 4s3p2d1f contracted to 4s3p2d1f pattern {1111/111/11/1}

Atom   0C    basis set group =>   1
Atom   1C    basis set group =>   1
Atom   2O    basis set group =>   2
Atom   3C    basis set group =>   1
Atom   4O    basis set group =>   2
Atom   5C    basis set group =>   1
Atom   6C    basis set group =>   1
Atom   7C    basis set group =>   1
Atom   8N    basis set group =>   3
Atom   9C    basis set group =>   1
Atom  10S    basis set group =>   4
Atom  11N    basis set group =>   3
Atom  12C    basis set group =>   1
Atom  13C    basis set group =>   1
Atom  14C    basis set group =>   1
Atom  15C    basis set group =>   1
Atom  16C    basis set group =>   1
Atom  17C    basis set group =>   1
Atom  18O    basis set group =>   2
Atom  19C    basis set group =>   1
Atom  20H    basis set group =>   5
Atom  21H    basis set group =>   5
Atom  22H    basis set group =>   5
Atom  23H    basis set group =>   5
Atom  24H    basis set group =>   5
Atom  25H    basis set group =>   5
Atom  26H    basis set group =>   5
Atom  27H    basis set group =>   5
Atom  28H    basis set group =>   5
Atom  29H    basis set group =>   5
Atom  30H    basis set group =>   5
Atom  31H    basis set group =>   5
Atom  32H    basis set group =>   5
Atom  33H    basis set group =>   5
Atom  34H    basis set group =>   5
Atom  35H    basis set group =>   5
------------------------------------------------------------------------------
                           ORCA GTO INTEGRAL CALCULATION
------------------------------------------------------------------------------
------------------------------------------------------------------------------
                   ___                                                        
                  /   \      - P O W E R E D   B Y -                         
                 /     \                                                     
                 |  |  |   _    _      __       _____    __    __             
                 |  |  |  | |  | |    /  \     |  _  \  |  |  /  |          
                  \  \/   | |  | |   /    \    | | | |  |  | /  /          
                 / \  \   | |__| |  /  /\  \   | |_| |  |  |/  /          
                |  |  |   |  __  | /  /__\  \  |    /   |      \           
                |  |  |   | |  | | |   __   |  |    \   |  |\   \          
                \     /   | |  | | |  |  |  |  | |\  \  |  | \   \       
                 \___/    |_|  |_| |__|  |__|  |_| \__\ |__|  \__/        
                                                                              
                      - O R C A' S   B I G   F R I E N D -                    
                                      &                                       
                       - I N T E G R A L  F E E D E R -                       
                                                                              
 v1 FN, 2020, v2 2021                                                         
------------------------------------------------------------------------------


Reading SHARK input file qm_input.solv.SHARKINP.tmp ... ok
----------------------
SHARK INTEGRAL PACKAGE
----------------------

Number of atoms                             ...     36
Number of basis functions                   ...    828
Number of shells                            ...    298
Maximum angular momentum                    ...      3
Integral batch strategy                     ... SHARK/LIBINT Hybrid
RI-J (if used) integral strategy            ... SPLIT-RIJ (Revised 2003 algorithm where possible)
Printlevel                                  ...      1
Contraction scheme used                     ... SEGMENTED contraction
Coulomb Range Separation                    ... NOT USED
Exchange Range Separation                   ... NOT USED
Finite Nucleus Model                        ... NOT USED
Auxiliary Coulomb fitting basis             ... NOT available
Auxiliary J/K fitting basis                 ... NOT available
Auxiliary Correlation fitting basis         ... AVAILABLE
   # of basis functions in Aux-C            ...   2141
   # of shells in Aux-C                     ...    629
   Maximum angular momentum in Aux-C        ...      4
Auxiliary 'external' fitting basis          ... NOT available
Integral threshold                          ...     2.500000e-11
Primitive cut-off                           ...     2.500000e-12
Primitive pair pre-selection threshold      ...     2.500000e-12

Calculating pre-screening integrals         ... done (  0.6 sec) Dimension = 298
Organizing shell pair data                  ... done (  0.4 sec)
Shell pair information
Total number of shell pairs                 ...     44551
Shell pairs after pre-screening             ...     32258
Total number of primitive shell pairs       ...    234348
Primitive shell pairs kept                  ...     93700
          la=0 lb=0:   6451 shell pairs
          la=1 lb=0:   8974 shell pairs
          la=1 lb=1:   3180 shell pairs
          la=2 lb=0:   5145 shell pairs
          la=2 lb=1:   3523 shell pairs
          la=2 lb=2:   1002 shell pairs
          la=3 lb=0:   1862 shell pairs
          la=3 lb=1:   1265 shell pairs
          la=3 lb=2:    719 shell pairs
          la=3 lb=3:    137 shell pairs

Reading point charge file                   ... ok (45311 point charges)
Calculating one electron integrals          ... done (230.0 sec)
Calculating RI/C V-Matrix + Cholesky decomp.... done (  0.3 sec)
Calculating Nuclear repulsion               ... (+Point charges) done (  0.0 sec) ENN=   1863.679206279804 Eh

SHARK setup successfully completed in 231.5 seconds

Maximum memory used throughout the entire GTOINT-calculation: 479.4 MB
ENUC WAS=  0.000000000
ENUC IS =  0.000000000
-------------------------------------------------------------------------------
                                 ORCA SCF
-------------------------------------------------------------------------------

------------
SCF SETTINGS
------------
Hamiltonian:
 Ab initio Hamiltonian  Method          .... Hartree-Fock(GTOs)


General Settings:
 Integral files         IntName         .... qm_input.solv
 Hartree-Fock type      HFTyp           .... RHF
 Total Charge           Charge          ....    0
 Multiplicity           Mult            ....    1
 Number of Electrons    NEL             ....  154
 Basis Dimension        Dim             ....  828
 Nuclear Repulsion      ENuc            ....   1863.6792062798 Eh

Convergence Acceleration:
 DIIS                   CNVDIIS         .... on
   Start iteration      DIISMaxIt       ....    12
   Startup error        DIISStart       ....  0.200000
   # of expansion vecs  DIISMaxEq       ....     5
   Bias factor          DIISBfac        ....   1.050
   Max. coefficient     DIISMaxC        ....  10.000
 Trust-Rad. Augm. Hess. CNVTRAH         .... auto
   Auto Start mean grad. ratio tolernc. ....  1.125000
   Auto Start start iteration           ....    20
   Auto Start num. interpolation iter.  ....    10
   Max. Number of Micro iterations      ....    16
   Max. Number of Macro iterations      .... Maxiter - #DIIS iter
   Number of Davidson start vectors     ....     2
   Converg. threshold I  (grad. norm)   ....   1.000e-05
   Converg. threshold II (energy diff.) ....   1.000e-08
   Grad. Scal. Fac. for Micro threshold ....   0.100
   Minimum threshold for Micro iter.    ....   0.010
   NR start threshold (gradient norm)   ....   0.001
   Initial trust radius                 ....   0.400
   Minimum AH scaling param. (alpha)    ....   1.000
   Maximum AH scaling param. (alpha)    .... 1000.000
   Orbital update algorithm             .... Taylor
   White noise on init. David. guess    .... on
   Maximum white noise                  ....   0.010
   Quad. conv. algorithm                .... NR
 SOSCF                  CNVSOSCF        .... on
   Start iteration      SOSCFMaxIt      ....   150
   Startup grad/error   SOSCFStart      ....  0.003300
 Level Shifting         CNVShift        .... on
   Level shift para.    LevelShift      ....    0.2500
   Turn off err/grad.   ShiftErr        ....    0.0010
 Zerner damping         CNVZerner       .... off
 Static damping         CNVDamp         .... on
   Fraction old density DampFac         ....    0.7000
   Max. Damping (<1)    DampMax         ....    0.9800
   Min. Damping (>=0)   DampMin         ....    0.0000
   Turn off err/grad.   DampErr         ....    0.1000
 Fernandez-Rico         CNVRico         .... off

SCF Procedure:
 Maximum # iterations   MaxIter         ....   125
 SCF integral mode      SCFMode         .... Direct
   Integral package                     .... SHARK and LIBINT hybrid scheme
 Reset frequency        DirectResetFreq ....    20
 Integral Threshold     Thresh          ....  2.500e-11 Eh
 Primitive CutOff       TCut            ....  2.500e-12 Eh

Convergence Tolerance:
 Convergence Check Mode ConvCheckMode   .... Total+1el-Energy
 Convergence forced     ConvForced      .... 1
 Energy Change          TolE            ....  1.000e-08 Eh
 1-El. energy change                    ....  1.000e-05 Eh
 Orbital Gradient       TolG            ....  1.000e-05
 Orbital Rotation angle TolX            ....  1.000e-05
 DIIS Error             TolErr          ....  5.000e-07


Diagonalization of the overlap matrix:
Smallest eigenvalue                        ... 4.068e-05
Time for diagonalization                   ...    0.132 sec
Threshold for overlap eigenvalues          ... 1.000e-08
Number of eigenvalues below threshold      ... 0
Time for construction of square roots      ...    0.059 sec
Total time needed                          ...    0.193 sec

Time for model grid setup =    1.465 sec

------------------------------
INITIAL GUESS: MODEL POTENTIAL
------------------------------
Loading Hartree-Fock densities                     ... done
Calculating cut-offs                               ... done
Initializing the effective Hamiltonian             ... done
Setting up the integral package (SHARK)            ... done
Starting the Coulomb interaction                   ... done (   4.0 sec)
Reading the grid                                   ... done
Mapping shells                                     ... done
Starting the XC term evaluation                    ... done (   1.4 sec)
Transforming the Hamiltonian                       ... done (   0.1 sec)
Diagonalizing the Hamiltonian                      ... done (   0.1 sec)
Back transforming the eigenvectors                 ... done (   0.0 sec)
Now organizing SCF variables                       ... done
                      ------------------
                      INITIAL GUESS DONE (   7.1 sec)
                      ------------------
--------------
SCF ITERATIONS
--------------
ITER       Energy         Delta-E        Max-DP      RMS-DP      [F,P]     Damp
               ***  Starting incremental Fock matrix formation  ***
  0  -1270.0554618804   0.000000000000 0.04753032  0.00047590  0.3732730 0.7000
  1  -1270.3490629535  -0.293601073072 0.03609286  0.00038901  0.2170970 0.7000
                               ***Turning on DIIS***
  2  -1270.5310565562  -0.181993602673 0.02582221  0.00026024  0.1150136 0.7000
  3  -1272.6318124614  -2.100755905286 0.06472520  0.00055847  0.0843686 0.0000
  4  -1270.8748930916   1.756919369840 0.00817164  0.00010597  0.0073582 0.0000
  5  -1270.9274176851  -0.052524593485 0.00538103  0.00005656  0.0042430 0.0000
  6  -1270.9075165631   0.019901122001 0.00333443  0.00002873  0.0035538 0.0000
                      *** Initiating the SOSCF procedure ***
                           *** Shutting down DIIS ***
                      *** Re-Reading the Fockian *** 
                      *** Removing any level shift *** 
ITER      Energy       Delta-E        Grad      Rot      Max-DP    RMS-DP
  7  -1270.92403736  -0.0165207942  0.000957  0.000957  0.001878  0.000016
               *** Restarting incremental Fock matrix formation ***
  8  -1270.92440030  -0.0003629417  0.000437  0.000911  0.000816  0.000008
  9  -1270.92441351  -0.0000132109  0.000180  0.001027  0.000869  0.000010
 10  -1270.92441862  -0.0000051125  0.000073  0.000120  0.000182  0.000002
 11  -1270.92441916  -0.0000005379  0.000033  0.000062  0.000083  0.000001
 12  -1270.92441924  -0.0000000828  0.000014  0.000068  0.000032  0.000000
 13  -1270.92441926  -0.0000000189  0.000007  0.000042  0.000017  0.000000
 14  -1270.92441927  -0.0000000042  0.000003  0.000006  0.000005  0.000000
                  ***Gradient check signals convergence***
              ***Rediagonalizing the Fockian in SOSCF/NRSCF***

               *****************************************************
               *                     SUCCESS                       *
               *           SCF CONVERGED AFTER  15 CYCLES          *
               *****************************************************


----------------
TOTAL SCF ENERGY
----------------

Total Energy       :        -1270.92441926 Eh          -34583.61164 eV

Components:
Nuclear Repulsion  :         1863.67920628 Eh           50713.28942 eV
Electronic Energy  :        -3134.60362554 Eh          -85296.90106 eV
One Electron Energy:        -5277.12794892 Eh         -143597.95187 eV
Two Electron Energy:         2142.52432338 Eh           58301.05081 eV

Virial components:
Potential Energy   :        -2540.35783305 Eh          -69126.65097 eV
Kinetic Energy     :         1269.43341379 Eh           34543.03932 eV
Virial Ratio       :            2.00117454


---------------
SCF CONVERGENCE
---------------

  Last Energy change         ...    5.1523e-09  Tolerance :   1.0000e-08
  Last MAX-Density change    ...    2.5215e-06  Tolerance :   1.0000e-07
  Last RMS-Density change    ...    2.3259e-08  Tolerance :   5.0000e-09
  Last Orbital Gradient      ...    6.7321e-07  Tolerance :   1.0000e-05
  Last Orbital Rotation      ...    1.8618e-06  Tolerance :   1.0000e-05

             **** THE GBW FILE WAS UPDATED (qm_input.solv.gbw) ****
             **** DENSITY qm_input.solv.scfp WAS UPDATED ****
             **** ENERGY FILE WAS UPDATED (qm_input.solv.en.tmp) ****
             **** THE GBW FILE WAS UPDATED (qm_input.solv.gbw) ****
             **** DENSITY qm_input.solv.scfp WAS UPDATED ****
----------------
ORBITAL ENERGIES
----------------

  NO   OCC          E(Eh)            E(eV) 
   0   2.0000     -93.027397     -2531.4042 
   1   2.0000     -21.704568      -590.6113 
   2   2.0000     -21.704025      -590.5966 
   3   2.0000     -21.662332      -589.4620 
   4   2.0000     -16.739818      -455.5136 
   5   2.0000     -16.735169      -455.3871 
   6   2.0000     -12.512291      -340.4767 
   7   2.0000     -12.512218      -340.4748 
   8   2.0000     -12.447158      -338.7044 
   9   2.0000     -12.428948      -338.2089 
  10   2.0000     -12.415337      -337.8385 
  11   2.0000     -12.389234      -337.1282 
  12   2.0000     -12.367471      -336.5360 
  13   2.0000     -12.364886      -336.4657 
  14   2.0000     -12.357427      -336.2627 
  15   2.0000     -12.354732      -336.1894 
  16   2.0000     -12.352022      -336.1156 
  17   2.0000     -12.348408      -336.0173 
  18   2.0000     -12.340546      -335.8033 
  19   2.0000     -12.319895      -335.2414 
  20   2.0000     -10.033360      -273.0216 
  21   2.0000      -7.715284      -209.9435 
  22   2.0000      -7.713349      -209.8909 
  23   2.0000      -7.713009      -209.8817 
  24   2.0000      -2.580357       -70.2151 
  25   2.0000      -2.526564       -68.7513 
  26   2.0000      -2.477077       -67.4047 
  27   2.0000      -2.467859       -67.1539 
  28   2.0000      -2.363988       -64.3274 
  29   2.0000      -2.273764       -61.8723 
  30   2.0000      -2.241677       -60.9991 
  31   2.0000      -2.158810       -58.7442 
  32   2.0000      -2.145419       -58.3798 
  33   2.0000      -2.118097       -57.6363 
  34   2.0000      -2.114598       -57.5411 
  35   2.0000      -2.100418       -57.1553 
  36   2.0000      -2.038182       -55.4617 
  37   2.0000      -2.003966       -54.5307 
  38   2.0000      -1.974830       -53.7379 
  39   2.0000      -1.949222       -53.0410 
  40   2.0000      -1.945368       -52.9361 
  41   2.0000      -1.925400       -52.3928 
  42   2.0000      -1.871647       -50.9301 
  43   2.0000      -1.862098       -50.6703 
  44   2.0000      -1.843764       -50.1714 
  45   2.0000      -1.810803       -49.2744 
  46   2.0000      -1.801521       -49.0219 
  47   2.0000      -1.795207       -48.8501 
  48   2.0000      -1.784803       -48.5670 
  49   2.0000      -1.772545       -48.2334 
  50   2.0000      -1.760257       -47.8990 
  51   2.0000      -1.755706       -47.7752 
  52   2.0000      -1.749233       -47.5991 
  53   2.0000      -1.723275       -46.8927 
  54   2.0000      -1.714904       -46.6649 
  55   2.0000      -1.709153       -46.5084 
  56   2.0000      -1.703034       -46.3419 
  57   2.0000      -1.694009       -46.0963 
  58   2.0000      -1.677448       -45.6457 
  59   2.0000      -1.674525       -45.5661 
  60   2.0000      -1.667977       -45.3880 
  61   2.0000      -1.661185       -45.2031 
  62   2.0000      -1.646092       -44.7924 
  63   2.0000      -1.640355       -44.6363 
  64   2.0000      -1.628852       -44.3233 
  65   2.0000      -1.622625       -44.1539 
  66   2.0000      -1.609371       -43.7932 
  67   2.0000      -1.601654       -43.5832 
  68   2.0000      -1.587341       -43.1938 
  69   2.0000      -1.576060       -42.8868 
  70   2.0000      -1.574097       -42.8334 
  71   2.0000      -1.561594       -42.4931 
  72   2.0000      -1.478330       -40.2274 
  73   2.0000      -1.474347       -40.1190 
  74   2.0000      -1.463390       -39.8209 
  75   2.0000      -1.446701       -39.3667 
  76   2.0000      -1.431300       -38.9477 
  77   0.0000      -1.041587       -28.3430 
  78   0.0000      -1.001871       -27.2623 
  79   0.0000      -0.974521       -26.5181 
  80   0.0000      -0.967077       -26.3155 
  81   0.0000      -0.953914       -25.9573 
  82   0.0000      -0.940412       -25.5899 
  83   0.0000      -0.937450       -25.5093 
  84   0.0000      -0.927304       -25.2332 
  85   0.0000      -0.924125       -25.1467 
  86   0.0000      -0.917118       -24.9561 
  87   0.0000      -0.908387       -24.7185 
  88   0.0000      -0.900080       -24.4924 
  89   0.0000      -0.894257       -24.3340 
  90   0.0000      -0.889222       -24.1970 
  91   0.0000      -0.878271       -23.8990 
  92   0.0000      -0.875305       -23.8183 
  93   0.0000      -0.857262       -23.3273 
  94   0.0000      -0.856196       -23.2983 
  95   0.0000      -0.854592       -23.2546 
  96   0.0000      -0.848991       -23.1022 
  97   0.0000      -0.845426       -23.0052 
  98   0.0000      -0.826938       -22.5021 
  99   0.0000      -0.823491       -22.4083 
 100   0.0000      -0.805622       -21.9221 
 101   0.0000      -0.798495       -21.7282 
 102   0.0000      -0.789853       -21.4930 
 103   0.0000      -0.781176       -21.2569 
 104   0.0000      -0.769845       -20.9485 
 105   0.0000      -0.762993       -20.7621 
 106   0.0000      -0.760192       -20.6859 
 107   0.0000      -0.747236       -20.3333 
 108   0.0000      -0.741297       -20.1717 
 109   0.0000      -0.739812       -20.1313 
 110   0.0000      -0.728411       -19.8211 
 111   0.0000      -0.725614       -19.7450 
 112   0.0000      -0.715541       -19.4709 
 113   0.0000      -0.710796       -19.3417 
 114   0.0000      -0.704217       -19.1627 
 115   0.0000      -0.699508       -19.0346 
 116   0.0000      -0.697237       -18.9728 
 117   0.0000      -0.692565       -18.8456 
 118   0.0000      -0.688252       -18.7283 
 119   0.0000      -0.681677       -18.5494 
 120   0.0000      -0.676561       -18.4102 
 121   0.0000      -0.670082       -18.2338 
 122   0.0000      -0.658906       -17.9298 
 123   0.0000      -0.652731       -17.7617 
 124   0.0000      -0.645239       -17.5579 
 125   0.0000      -0.640074       -17.4173 
 126   0.0000      -0.638188       -17.3660 
 127   0.0000      -0.622721       -16.9451 
 128   0.0000      -0.620091       -16.8735 
 129   0.0000      -0.617693       -16.8083 
 130   0.0000      -0.606243       -16.4967 
 131   0.0000      -0.603242       -16.4150 
 132   0.0000      -0.597092       -16.2477 
 133   0.0000      -0.594727       -16.1833 
 134   0.0000      -0.591245       -16.0886 
 135   0.0000      -0.581677       -15.8282 
 136   0.0000      -0.575672       -15.6648 
 137   0.0000      -0.570388       -15.5211 
 138   0.0000      -0.566387       -15.4122 
 139   0.0000      -0.559375       -15.2214 
 140   0.0000      -0.545655       -14.8480 
 141   0.0000      -0.542107       -14.7515 
 142   0.0000      -0.536515       -14.5993 
 143   0.0000      -0.531168       -14.4538 
 144   0.0000      -0.525339       -14.2952 
 145   0.0000      -0.518626       -14.1125 
 146   0.0000      -0.511048       -13.9063 
 147   0.0000      -0.505985       -13.7686 
 148   0.0000      -0.502443       -13.6722 
 149   0.0000      -0.498630       -13.5684 
 150   0.0000      -0.495989       -13.4965 
 151   0.0000      -0.494968       -13.4688 
 152   0.0000      -0.489154       -13.3106 
 153   0.0000      -0.487611       -13.2686 
 154   0.0000      -0.480935       -13.0869 
 155   0.0000      -0.478248       -13.0138 
 156   0.0000      -0.472271       -12.8512 
 157   0.0000      -0.467142       -12.7116 
 158   0.0000      -0.462401       -12.5826 
 159   0.0000      -0.457653       -12.4534 
 160   0.0000      -0.451459       -12.2848 
 161   0.0000      -0.447388       -12.1740 
 162   0.0000      -0.442102       -12.0302 
 163   0.0000      -0.438687       -11.9373 
 164   0.0000      -0.435594       -11.8531 
 165   0.0000      -0.427694       -11.6382 
 166   0.0000      -0.424158       -11.5419 
 167   0.0000      -0.422443       -11.4953 
 168   0.0000      -0.412115       -11.2142 
 169   0.0000      -0.405983       -11.0474 
 170   0.0000      -0.400561       -10.8998 
 171   0.0000      -0.394206       -10.7269 
 172   0.0000      -0.393019       -10.6946 
 173   0.0000      -0.384706       -10.4684 
 174   0.0000      -0.373354       -10.1595 
 175   0.0000      -0.371741       -10.1156 
 176   0.0000      -0.359965        -9.7951 
 177   0.0000      -0.356812        -9.7094 
 178   0.0000      -0.353522        -9.6198 
 179   0.0000      -0.349376        -9.5070 
 180   0.0000      -0.342051        -9.3077 
 181   0.0000      -0.338899        -9.2219 
 182   0.0000      -0.331056        -9.0085 
 183   0.0000      -0.316209        -8.6045 
 184   0.0000      -0.313173        -8.5219 
 185   0.0000      -0.308624        -8.3981 
 186   0.0000      -0.296673        -8.0729 
 187   0.0000      -0.292410        -7.9569 
 188   0.0000      -0.287423        -7.8212 
 189   0.0000      -0.277559        -7.5528 
 190   0.0000      -0.264567        -7.1992 
 191   0.0000      -0.259432        -7.0595 
 192   0.0000      -0.256258        -6.9731 
 193   0.0000      -0.251490        -6.8434 
 194   0.0000      -0.240719        -6.5503 
 195   0.0000      -0.235966        -6.4210 
 196   0.0000      -0.227223        -6.1830 
 197   0.0000      -0.218876        -5.9559 
 198   0.0000      -0.214184        -5.8282 
 199   0.0000      -0.213251        -5.8029 
 200   0.0000      -0.203587        -5.5399 
 201   0.0000      -0.184582        -5.0227 
 202   0.0000      -0.181179        -4.9301 
 203   0.0000      -0.171137        -4.6569 
 204   0.0000      -0.169470        -4.6115 
 205   0.0000      -0.161440        -4.3930 
 206   0.0000      -0.153582        -4.1792 
 207   0.0000      -0.148788        -4.0487 
 208   0.0000      -0.138435        -3.7670 
 209   0.0000      -0.134685        -3.6650 
 210   0.0000      -0.119660        -3.2561 
 211   0.0000      -0.114660        -3.1201 
 212   0.0000      -0.104710        -2.8493 
 213   0.0000      -0.101625        -2.7654 
 214   0.0000      -0.090539        -2.4637 
 215   0.0000      -0.088075        -2.3966 
 216   0.0000      -0.081492        -2.2175 
 217   0.0000      -0.074539        -2.0283 
 218   0.0000      -0.071431        -1.9437 
 219   0.0000      -0.064507        -1.7553 
 220   0.0000      -0.063053        -1.7158 
 221   0.0000      -0.052668        -1.4332 
 222   0.0000      -0.044805        -1.2192 
 223   0.0000      -0.027373        -0.7449 
 224   0.0000      -0.023398        -0.6367 
 225   0.0000      -0.011393        -0.3100 
 226   0.0000      -0.005102        -0.1388 
 227   0.0000      -0.001205        -0.0328 
 228   0.0000       0.001805         0.0491 
 229   0.0000       0.017773         0.4836 
 230   0.0000       0.021959         0.5975 
 231   0.0000       0.027206         0.7403 
 232   0.0000       0.035133         0.9560 
 233   0.0000       0.040039         1.0895 
 234   0.0000       0.042547         1.1578 
 235   0.0000       0.060984         1.6595 
 236   0.0000       0.066357         1.8057 
 237   0.0000       0.071193         1.9373 
 238   0.0000       0.078057         2.1240 
 239   0.0000       0.079149         2.1537 
 240   0.0000       0.095070         2.5870 
 241   0.0000       0.102554         2.7906 
 242   0.0000       0.108567         2.9543 
 243   0.0000       0.114963         3.1283 
 244   0.0000       0.119293         3.2461 
 245   0.0000       0.125923         3.4265 
 246   0.0000       0.134053         3.6478 
 247   0.0000       0.137638         3.7453 
 248   0.0000       0.142163         3.8684 
 249   0.0000       0.153347         4.1728 
 250   0.0000       0.159572         4.3422 
 251   0.0000       0.171375         4.6633 
 252   0.0000       0.176661         4.8072 
 253   0.0000       0.183654         4.9975 
 254   0.0000       0.189691         5.1618 
 255   0.0000       0.193165         5.2563 
 256   0.0000       0.211091         5.7441 
 257   0.0000       0.215120         5.8537 
 258   0.0000       0.224200         6.1008 
 259   0.0000       0.226652         6.1675 
 260   0.0000       0.233347         6.3497 
 261   0.0000       0.242307         6.5935 
 262   0.0000       0.243487         6.6256 
 263   0.0000       0.256948         6.9919 
 264   0.0000       0.268303         7.3009 
 265   0.0000       0.271956         7.4003 
 266   0.0000       0.283890         7.7251 
 267   0.0000       0.288855         7.8602 
 268   0.0000       0.297483         8.0949 
 269   0.0000       0.305433         8.3112 
 270   0.0000       0.314746         8.5647 
 271   0.0000       0.319105         8.6833 
 272   0.0000       0.332402         9.0451 
 273   0.0000       0.341208         9.2847 
 274   0.0000       0.345895         9.4123 
 275   0.0000       0.359803         9.7907 
 276   0.0000       0.360885         9.8202 
 277   0.0000       0.373568        10.1653 
 278   0.0000       0.385958        10.5024 
 279   0.0000       0.390342        10.6217 
 280   0.0000       0.399352        10.8669 
 281   0.0000       0.406535        11.0624 
 282   0.0000       0.411455        11.1963 
 283   0.0000       0.417940        11.3727 
 284   0.0000       0.419453        11.4139 
 285   0.0000       0.426916        11.6170 
 286   0.0000       0.433328        11.7915 
 287   0.0000       0.444413        12.0931 
 288   0.0000       0.450861        12.2686 
 289   0.0000       0.455315        12.3897 
 290   0.0000       0.463129        12.6024 
 291   0.0000       0.469863        12.7856 
 292   0.0000       0.475082        12.9276 
 293   0.0000       0.480282        13.0691 
 294   0.0000       0.484643        13.1878 
 295   0.0000       0.499080        13.5807 
 296   0.0000       0.506086        13.7713 
 297   0.0000       0.512260        13.9393 
 298   0.0000       0.520996        14.1770 
 299   0.0000       0.533094        14.5062 
 300   0.0000       0.540419        14.7056 
 301   0.0000       0.546360        14.8672 
 302   0.0000       0.547115        14.8878 
 303   0.0000       0.562675        15.3112 
 304   0.0000       0.566805        15.4235 
 305   0.0000       0.573398        15.6030 
 306   0.0000       0.587007        15.9733 
 307   0.0000       0.597153        16.2494 
 308   0.0000       0.607972        16.5438 
 309   0.0000       0.611954        16.6521 
 310   0.0000       0.615211        16.7407 
 311   0.0000       0.636167        17.3110 
 312   0.0000       0.638372        17.3710 
 313   0.0000       0.648364        17.6429 
 314   0.0000       0.657596        17.8941 
 315   0.0000       0.660338        17.9687 
 316   0.0000       0.671434        18.2707 
 317   0.0000       0.679013        18.4769 
 318   0.0000       0.688719        18.7410 
 319   0.0000       0.707968        19.2648 
 320   0.0000       0.716494        19.4968 
 321   0.0000       0.728198        19.8153 
 322   0.0000       0.738304        20.0903 
 323   0.0000       0.744433        20.2570 
 324   0.0000       0.752028        20.4637 
 325   0.0000       0.760217        20.6866 
 326   0.0000       0.770871        20.9765 
 327   0.0000       0.775835        21.1116 
 328   0.0000       0.788379        21.4529 
 329   0.0000       0.792384        21.5619 
 330   0.0000       0.804590        21.8940 
 331   0.0000       0.810198        22.0466 
 332   0.0000       0.824193        22.4274 
 333   0.0000       0.841260        22.8919 
 334   0.0000       0.850409        23.1408 
 335   0.0000       0.862293        23.4642 
 336   0.0000       0.870522        23.6881 
 337   0.0000       0.873275        23.7630 
 338   0.0000       0.885610        24.0987 
 339   0.0000       0.895007        24.3544 
 340   0.0000       0.898764        24.4566 
 341   0.0000       0.912815        24.8389 
 342   0.0000       0.917605        24.9693 
 343   0.0000       0.944840        25.7104 
 344   0.0000       0.988237        26.8913 
 345   0.0000       0.999776        27.2053 
 346   0.0000       1.005837        27.3702 
 347   0.0000       1.018738        27.7213 
 348   0.0000       1.022699        27.8290 
 349   0.0000       1.045217        28.4418 
 350   0.0000       1.062631        28.9157 
 351   0.0000       1.076557        29.2946 
 352   0.0000       1.110451        30.2169 
 353   0.0000       1.124158        30.5899 
 354   0.0000       1.126356        30.6497 
 355   0.0000       1.139805        31.0157 
 356   0.0000       1.142258        31.0824 
 357   0.0000       1.148975        31.2652 
 358   0.0000       1.161802        31.6143 
 359   0.0000       1.187296        32.3080 
 360   0.0000       1.194274        32.4978 
 361   0.0000       1.200398        32.6645 
 362   0.0000       1.204669        32.7807 
 363   0.0000       1.222430        33.2640 
 364   0.0000       1.250546        34.0291 
 365   0.0000       1.271451        34.5979 
 366   0.0000       1.272798        34.6346 
 367   0.0000       1.286431        35.0056 
 368   0.0000       1.303790        35.4779 
 369   0.0000       1.307895        35.5896 
 370   0.0000       1.326562        36.0976 
 371   0.0000       1.347173        36.6585 
 372   0.0000       1.358251        36.9599 
 373   0.0000       1.369791        37.2739 
 374   0.0000       1.377480        37.4831 
 375   0.0000       1.384353        37.6702 
 376   0.0000       1.415415        38.5154 
 377   0.0000       1.436493        39.0890 
 378   0.0000       1.445788        39.3419 
 379   0.0000       1.459691        39.7202 
 380   0.0000       1.460353        39.7382 
 381   0.0000       1.477166        40.1957 
 382   0.0000       1.487794        40.4849 
 383   0.0000       1.492417        40.6107 
 384   0.0000       1.507286        41.0153 
 385   0.0000       1.517306        41.2880 
 386   0.0000       1.525467        41.5101 
 387   0.0000       1.538880        41.8751 
 388   0.0000       1.554074        42.2885 
 389   0.0000       1.559821        42.4449 
 390   0.0000       1.560228        42.4560 
 391   0.0000       1.579709        42.9861 
 392   0.0000       1.592407        43.3316 
 393   0.0000       1.605511        43.6882 
 394   0.0000       1.608169        43.7605 
 395   0.0000       1.623386        44.1746 
 396   0.0000       1.628636        44.3174 
 397   0.0000       1.634037        44.4644 
 398   0.0000       1.646529        44.8043 
 399   0.0000       1.663818        45.2748 
 400   0.0000       1.674323        45.5607 
 401   0.0000       1.682750        45.7900 
 402   0.0000       1.688883        45.9568 
 403   0.0000       1.699773        46.2532 
 404   0.0000       1.707415        46.4611 
 405   0.0000       1.716761        46.7155 
 406   0.0000       1.721727        46.8506 
 407   0.0000       1.730569        47.0912 
 408   0.0000       1.737623        47.2831 
 409   0.0000       1.750935        47.6454 
 410   0.0000       1.762216        47.9523 
 411   0.0000       1.763176        47.9785 
 412   0.0000       1.778858        48.4052 
 413   0.0000       1.780714        48.4557 
 414   0.0000       1.787395        48.6375 
 415   0.0000       1.800451        48.9928 
 416   0.0000       1.810069        49.2545 
 417   0.0000       1.827465        49.7278 
 418   0.0000       1.833143        49.8824 
 419   0.0000       1.841004        50.0963 
 420   0.0000       1.852399        50.4063 
 421   0.0000       1.863637        50.7121 
 422   0.0000       1.868568        50.8463 
 423   0.0000       1.873394        50.9777 
 424   0.0000       1.884603        51.2827 
 425   0.0000       1.888449        51.3873 
 426   0.0000       1.906468        51.8776 
 427   0.0000       1.912825        52.0506 
 428   0.0000       1.921124        52.2764 
 429   0.0000       1.922914        52.3252 
 430   0.0000       1.942403        52.8555 
 431   0.0000       1.946885        52.9774 
 432   0.0000       1.957147        53.2567 
 433   0.0000       1.967952        53.5507 
 434   0.0000       1.975491        53.7558 
 435   0.0000       1.984842        54.0103 
 436   0.0000       1.989861        54.1469 
 437   0.0000       1.998988        54.3952 
 438   0.0000       2.005646        54.5764 
 439   0.0000       2.010900        54.7194 
 440   0.0000       2.022856        55.0447 
 441   0.0000       2.025639        55.1204 
 442   0.0000       2.030935        55.2646 
 443   0.0000       2.034020        55.3485 
 444   0.0000       2.044597        55.6363 
 445   0.0000       2.051709        55.8298 
 446   0.0000       2.059357        56.0380 
 447   0.0000       2.068041        56.2743 
 448   0.0000       2.074192        56.4416 
 449   0.0000       2.078833        56.5679 
 450   0.0000       2.087321        56.7989 
 451   0.0000       2.106257        57.3142 
 452   0.0000       2.109221        57.3948 
 453   0.0000       2.118154        57.6379 
 454   0.0000       2.125625        57.8412 
 455   0.0000       2.127301        57.8868 
 456   0.0000       2.140654        58.2502 
 457   0.0000       2.142887        58.3109 
 458   0.0000       2.152862        58.5824 
 459   0.0000       2.157328        58.7039 
 460   0.0000       2.164641        58.9029 
 461   0.0000       2.168191        58.9995 
 462   0.0000       2.175664        59.2028 
 463   0.0000       2.180634        59.3381 
 464   0.0000       2.189388        59.5763 
 465   0.0000       2.198014        59.8110 
 466   0.0000       2.199869        59.8615 
 467   0.0000       2.205357        60.0108 
 468   0.0000       2.214220        60.2520 
 469   0.0000       2.218705        60.3740 
 470   0.0000       2.228317        60.6356 
 471   0.0000       2.237256        60.8788 
 472   0.0000       2.246324        61.1256 
 473   0.0000       2.247168        61.1486 
 474   0.0000       2.254108        61.3374 
 475   0.0000       2.256058        61.3905 
 476   0.0000       2.260879        61.5216 
 477   0.0000       2.265219        61.6397 
 478   0.0000       2.275998        61.9331 
 479   0.0000       2.282928        62.1216 
 480   0.0000       2.288346        62.2690 
 481   0.0000       2.293688        62.4144 
 482   0.0000       2.303781        62.6891 
 483   0.0000       2.306274        62.7569 
 484   0.0000       2.312829        62.9353 
 485   0.0000       2.315580        63.0101 
 486   0.0000       2.320747        63.1507 
 487   0.0000       2.326224        63.2998 
 488   0.0000       2.336291        63.5737 
 489   0.0000       2.345645        63.8282 
 490   0.0000       2.348414        63.9036 
 491   0.0000       2.350731        63.9666 
 492   0.0000       2.355387        64.0933 
 493   0.0000       2.362502        64.2869 
 494   0.0000       2.371645        64.5358 
 495   0.0000       2.381287        64.7981 
 496   0.0000       2.391957        65.0885 
 497   0.0000       2.396163        65.2029 
 498   0.0000       2.400689        65.3261 
 499   0.0000       2.404340        65.4254 
 500   0.0000       2.410799        65.6012 
 501   0.0000       2.417566        65.7853 
 502   0.0000       2.421823        65.9011 
 503   0.0000       2.430862        66.1471 
 504   0.0000       2.448597        66.6297 
 505   0.0000       2.455837        66.8267 
 506   0.0000       2.457422        66.8699 
 507   0.0000       2.466430        67.1150 
 508   0.0000       2.473214        67.2996 
 509   0.0000       2.478423        67.4413 
 510   0.0000       2.482446        67.5508 
 511   0.0000       2.497193        67.9521 
 512   0.0000       2.500318        68.0371 
 513   0.0000       2.504170        68.1419 
 514   0.0000       2.513161        68.3866 
 515   0.0000       2.516378        68.4741 
 516   0.0000       2.527958        68.7892 
 517   0.0000       2.531732        68.8919 
 518   0.0000       2.540676        69.1353 
 519   0.0000       2.545838        69.2758 
 520   0.0000       2.551146        69.4202 
 521   0.0000       2.557278        69.5871 
 522   0.0000       2.559668        69.6521 
 523   0.0000       2.565042        69.7983 
 524   0.0000       2.573517        70.0290 
 525   0.0000       2.580886        70.2295 
 526   0.0000       2.584627        70.3313 
 527   0.0000       2.587793        70.4174 
 528   0.0000       2.597670        70.6862 
 529   0.0000       2.602098        70.8067 
 530   0.0000       2.609645        71.0120 
 531   0.0000       2.620373        71.3040 
 532   0.0000       2.629642        71.5562 
 533   0.0000       2.630218        71.5719 
 534   0.0000       2.637603        71.7728 
 535   0.0000       2.653510        72.2057 
 536   0.0000       2.665050        72.5197 
 537   0.0000       2.665821        72.5407 
 538   0.0000       2.672025        72.7095 
 539   0.0000       2.674909        72.7880 
 540   0.0000       2.682667        72.9991 
 541   0.0000       2.688875        73.1680 
 542   0.0000       2.696519        73.3760 
 543   0.0000       2.698945        73.4420 
 544   0.0000       2.713196        73.8298 
 545   0.0000       2.720600        74.0313 
 546   0.0000       2.726461        74.1908 
 547   0.0000       2.742662        74.6316 
 548   0.0000       2.749770        74.8250 
 549   0.0000       2.757502        75.0354 
 550   0.0000       2.764271        75.2196 
 551   0.0000       2.770685        75.3942 
 552   0.0000       2.782324        75.7109 
 553   0.0000       2.783357        75.7390 
 554   0.0000       2.792371        75.9843 
 555   0.0000       2.803972        76.3000 
 556   0.0000       2.805735        76.3479 
 557   0.0000       2.817833        76.6771 
 558   0.0000       2.825642        76.8896 
 559   0.0000       2.833504        77.1036 
 560   0.0000       2.839908        77.2778 
 561   0.0000       2.845283        77.4241 
 562   0.0000       2.855500        77.7021 
 563   0.0000       2.866024        77.9885 
 564   0.0000       2.873781        78.1996 
 565   0.0000       2.885792        78.5264 
 566   0.0000       2.887116        78.5624 
 567   0.0000       2.903407        79.0057 
 568   0.0000       2.908497        79.1442 
 569   0.0000       2.910810        79.2072 
 570   0.0000       2.928097        79.6776 
 571   0.0000       2.929964        79.7284 
 572   0.0000       2.938893        79.9713 
 573   0.0000       2.947886        80.2161 
 574   0.0000       2.970330        80.8268 
 575   0.0000       2.971160        80.8494 
 576   0.0000       2.987597        81.2966 
 577   0.0000       2.994336        81.4800 
 578   0.0000       3.005036        81.7712 
 579   0.0000       3.012163        81.9651 
 580   0.0000       3.013567        82.0033 
 581   0.0000       3.021925        82.2307 
 582   0.0000       3.030178        82.4553 
 583   0.0000       3.037669        82.6592 
 584   0.0000       3.044919        82.8565 
 585   0.0000       3.053835        83.0991 
 586   0.0000       3.060949        83.2927 
 587   0.0000       3.066008        83.4303 
 588   0.0000       3.071496        83.5797 
 589   0.0000       3.077932        83.7548 
 590   0.0000       3.083299        83.9008 
 591   0.0000       3.095481        84.2323 
 592   0.0000       3.100663        84.3733 
 593   0.0000       3.107188        84.5509 
 594   0.0000       3.113044        84.7102 
 595   0.0000       3.119215        84.8782 
 596   0.0000       3.132530        85.2405 
 597   0.0000       3.137466        85.3748 
 598   0.0000       3.141852        85.4941 
 599   0.0000       3.150701        85.7349 
 600   0.0000       3.166627        86.1683 
 601   0.0000       3.171132        86.2909 
 602   0.0000       3.174397        86.3797 
 603   0.0000       3.188608        86.7664 
 604   0.0000       3.190852        86.8275 
 605   0.0000       3.199214        87.0550 
 606   0.0000       3.205180        87.2174 
 607   0.0000       3.224831        87.7521 
 608   0.0000       3.232296        87.9552 
 609   0.0000       3.240937        88.1904 
 610   0.0000       3.244723        88.2934 
 611   0.0000       3.255069        88.5749 
 612   0.0000       3.258261        88.6618 
 613   0.0000       3.261379        88.7466 
 614   0.0000       3.267025        88.9003 
 615   0.0000       3.280021        89.2539 
 616   0.0000       3.284259        89.3692 
 617   0.0000       3.296270        89.6961 
 618   0.0000       3.297803        89.7378 
 619   0.0000       3.303127        89.8827 
 620   0.0000       3.315302        90.2140 
 621   0.0000       3.318099        90.2901 
 622   0.0000       3.325039        90.4789 
 623   0.0000       3.331773        90.6622 
 624   0.0000       3.345993        91.0491 
 625   0.0000       3.350340        91.1674 
 626   0.0000       3.358027        91.3765 
 627   0.0000       3.372235        91.7632 
 628   0.0000       3.375556        91.8535 
 629   0.0000       3.393727        92.3480 
 630   0.0000       3.399216        92.4974 
 631   0.0000       3.411565        92.8334 
 632   0.0000       3.418066        93.0103 
 633   0.0000       3.419692        93.0546 
 634   0.0000       3.430413        93.3463 
 635   0.0000       3.436150        93.5024 
 636   0.0000       3.456046        94.0438 
 637   0.0000       3.464579        94.2760 
 638   0.0000       3.469277        94.4038 
 639   0.0000       3.473606        94.5216 
 640   0.0000       3.477038        94.6150 
 641   0.0000       3.491169        94.9995 
 642   0.0000       3.504564        95.3640 
 643   0.0000       3.510208        95.5176 
 644   0.0000       3.523340        95.8750 
 645   0.0000       3.531224        96.0895 
 646   0.0000       3.535890        96.2165 
 647   0.0000       3.540933        96.3537 
 648   0.0000       3.557529        96.8053 
 649   0.0000       3.561729        96.9196 
 650   0.0000       3.572165        97.2035 
 651   0.0000       3.582262        97.4783 
 652   0.0000       3.590161        97.6932 
 653   0.0000       3.599114        97.9369 
 654   0.0000       3.603767        98.0635 
 655   0.0000       3.617591        98.4396 
 656   0.0000       3.621135        98.5361 
 657   0.0000       3.638027        98.9957 
 658   0.0000       3.645131        99.1891 
 659   0.0000       3.657325        99.5209 
 660   0.0000       3.664445        99.7146 
 661   0.0000       3.679745       100.1310 
 662   0.0000       3.696168       100.5778 
 663   0.0000       3.700090       100.6846 
 664   0.0000       3.729029       101.4720 
 665   0.0000       3.736877       101.6856 
 666   0.0000       3.749284       102.0232 
 667   0.0000       3.755068       102.1806 
 668   0.0000       3.782047       102.9147 
 669   0.0000       3.787536       103.0641 
 670   0.0000       3.806810       103.5886 
 671   0.0000       3.816834       103.8613 
 672   0.0000       3.859232       105.0151 
 673   0.0000       3.865958       105.1981 
 674   0.0000       3.879057       105.5545 
 675   0.0000       3.879844       105.5759 
 676   0.0000       3.897879       106.0667 
 677   0.0000       3.913345       106.4875 
 678   0.0000       3.921097       106.6985 
 679   0.0000       3.946379       107.3864 
 680   0.0000       3.950589       107.5010 
 681   0.0000       3.970059       108.0308 
 682   0.0000       3.980181       108.3062 
 683   0.0000       3.995154       108.7137 
 684   0.0000       4.005398       108.9924 
 685   0.0000       4.019713       109.3820 
 686   0.0000       4.025948       109.5516 
 687   0.0000       4.038717       109.8991 
 688   0.0000       4.041560       109.9764 
 689   0.0000       4.061755       110.5260 
 690   0.0000       4.082096       111.0795 
 691   0.0000       4.091076       111.3238 
 692   0.0000       4.096253       111.4647 
 693   0.0000       4.104199       111.6809 
 694   0.0000       4.114205       111.9532 
 695   0.0000       4.139266       112.6352 
 696   0.0000       4.147391       112.8562 
 697   0.0000       4.148415       112.8841 
 698   0.0000       4.153047       113.0102 
 699   0.0000       4.160503       113.2130 
 700   0.0000       4.168334       113.4261 
 701   0.0000       4.177579       113.6777 
 702   0.0000       4.202013       114.3426 
 703   0.0000       4.214316       114.6774 
 704   0.0000       4.238361       115.3317 
 705   0.0000       4.244163       115.4895 
 706   0.0000       4.253533       115.7445 
 707   0.0000       4.271249       116.2266 
 708   0.0000       4.283275       116.5538 
 709   0.0000       4.289139       116.7134 
 710   0.0000       4.329851       117.8212 
 711   0.0000       4.331010       117.8528 
 712   0.0000       4.340115       118.1005 
 713   0.0000       4.365204       118.7832 
 714   0.0000       4.388112       119.4066 
 715   0.0000       4.394586       119.5828 
 716   0.0000       4.404630       119.8561 
 717   0.0000       4.406109       119.8963 
 718   0.0000       4.421413       120.3128 
 719   0.0000       4.437871       120.7606 
 720   0.0000       4.446093       120.9844 
 721   0.0000       4.450310       121.0991 
 722   0.0000       4.477810       121.8474 
 723   0.0000       4.486034       122.0712 
 724   0.0000       4.494765       122.3088 
 725   0.0000       4.512345       122.7872 
 726   0.0000       4.514182       122.8371 
 727   0.0000       4.525882       123.1555 
 728   0.0000       4.534896       123.4008 
 729   0.0000       4.541879       123.5908 
 730   0.0000       4.558447       124.0417 
 731   0.0000       4.567131       124.2779 
 732   0.0000       4.587637       124.8359 
 733   0.0000       4.596342       125.0728 
 734   0.0000       4.603132       125.2576 
 735   0.0000       4.618378       125.6724 
 736   0.0000       4.634329       126.1065 
 737   0.0000       4.658091       126.7531 
 738   0.0000       4.668618       127.0395 
 739   0.0000       4.671983       127.1311 
 740   0.0000       4.681281       127.3841 
 741   0.0000       4.699794       127.8879 
 742   0.0000       4.713605       128.2637 
 743   0.0000       4.721322       128.4737 
 744   0.0000       4.744054       129.0923 
 745   0.0000       4.762640       129.5980 
 746   0.0000       4.773608       129.8965 
 747   0.0000       4.788865       130.3116 
 748   0.0000       4.807054       130.8066 
 749   0.0000       4.822371       131.2234 
 750   0.0000       4.857890       132.1899 
 751   0.0000       4.889420       133.0479 
 752   0.0000       4.904638       133.4620 
 753   0.0000       4.910577       133.6236 
 754   0.0000       4.930396       134.1629 
 755   0.0000       4.940867       134.4478 
 756   0.0000       4.952013       134.7511 
 757   0.0000       4.975113       135.3797 
 758   0.0000       4.989568       135.7730 
 759   0.0000       5.014382       136.4483 
 760   0.0000       5.042333       137.2089 
 761   0.0000       5.066130       137.8564 
 762   0.0000       5.094085       138.6171 
 763   0.0000       5.106583       138.9572 
 764   0.0000       5.133899       139.7005 
 765   0.0000       5.192835       141.3042 
 766   0.0000       5.212486       141.8389 
 767   0.0000       5.214821       141.9025 
 768   0.0000       5.234559       142.4396 
 769   0.0000       5.259447       143.1168 
 770   0.0000       5.278859       143.6450 
 771   0.0000       5.299438       144.2050 
 772   0.0000       5.322004       144.8191 
 773   0.0000       5.331486       145.0771 
 774   0.0000       5.351629       145.6252 
 775   0.0000       5.410129       147.2171 
 776   0.0000       5.434104       147.8695 
 777   0.0000       5.468044       148.7930 
 778   0.0000       5.481355       149.1552 
 779   0.0000       5.522794       150.2829 
 780   0.0000       5.562205       151.3553 
 781   0.0000       5.582645       151.9115 
 782   0.0000       5.645059       153.6099 
 783   0.0000       5.650063       153.7460 
 784   0.0000       5.693906       154.9390 
 785   0.0000       5.742995       156.2748 
 786   0.0000       5.812028       158.1533 
 787   0.0000       5.835789       158.7999 
 788   0.0000       5.857773       159.3981 
 789   0.0000       5.891809       160.3243 
 790   0.0000       5.942216       161.6959 
 791   0.0000       5.991715       163.0429 
 792   0.0000       6.013174       163.6268 
 793   0.0000       6.031230       164.1181 
 794   0.0000       6.108188       166.2122 
 795   0.0000       6.147514       167.2823 
 796   0.0000       6.158222       167.5737 
 797   0.0000       6.196230       168.6080 
 798   0.0000       6.237927       169.7426 
 799   0.0000       6.263596       170.4411 
 800   0.0000       6.333615       172.3464 
 801   0.0000       6.421503       174.7380 
 802   0.0000       6.444485       175.3634 
 803   0.0000       6.468179       176.0081 
 804   0.0000       6.557273       178.4325 
 805   0.0000       6.674895       181.6331 
 806   0.0000       6.750039       183.6779 
 807   0.0000       6.837550       186.0592 
 808   0.0000       6.902037       187.8140 
 809   0.0000       8.262584       224.8363 
 810   0.0000       8.704284       236.8556 
 811   0.0000       9.960505       271.0391 
 812   0.0000      10.459531       284.6183 
 813   0.0000      11.100747       302.0667 
 814   0.0000      11.279260       306.9243 
 815   0.0000      11.877026       323.1903 
 816   0.0000      11.979403       325.9761 
 817   0.0000      12.000308       326.5450 
 818   0.0000      12.256749       333.5231 
 819   0.0000      12.560655       341.7928 
 820   0.0000      12.656324       344.3961 
 821   0.0000      12.757669       347.1538 
 822   0.0000      12.867564       350.1442 
 823   0.0000      12.913683       351.3992 
 824   0.0000      13.227836       359.9477 
 825   0.0000      13.671483       372.0200 
 826   0.0000      14.007658       381.1678 
 827   0.0000      14.824177       403.3864 

                    ********************************
                    * MULLIKEN POPULATION ANALYSIS *
                    ********************************

-----------------------
MULLIKEN ATOMIC CHARGES
-----------------------
   0 C :   -0.309986
   1 C :    0.021610
   2 O :   -0.315757
   3 C :    0.493185
   4 O :   -0.595311
   5 C :   -0.144028
   6 C :    0.204314
   7 C :   -0.295975
   8 N :   -0.105873
   9 C :    0.329132
  10 S :   -0.766801
  11 N :   -0.186413
  12 C :    0.005984
  13 C :    0.035996
  14 C :   -0.256579
  15 C :   -0.165470
  16 C :   -0.269417
  17 C :    0.286546
  18 O :   -0.436666
  19 C :   -0.270357
  20 H :    0.105088
  21 H :    0.120013
  22 H :    0.102431
  23 H :    0.131667
  24 H :    0.109141
  25 H :    0.144366
  26 H :    0.140461
  27 H :    0.126010
  28 H :    0.242417
  29 H :    0.263067
  30 H :    0.181276
  31 H :    0.188400
  32 H :    0.195611
  33 H :    0.179387
  34 H :    0.331070
  35 H :    0.181462
Sum of atomic charges:   -0.0000000

--------------------------------
MULLIKEN REDUCED ORBITAL CHARGES
--------------------------------
  0 C s       :     3.271502  s :     3.271502
      pz      :     1.040379  p :     2.961736
      px      :     1.004501
      py      :     0.916857
      dz2     :     0.018610  d :     0.072173
      dxz     :     0.010957
      dyz     :     0.004803
      dx2y2   :     0.015127
      dxy     :     0.022676
      f0      :     0.001104  f :     0.004575
      f+1     :     0.000387
      f-1     :     0.000525
      f+2     :     0.000356
      f-2     :     0.000217
      f+3     :     0.000804
      f-3     :     0.001182
  1 C s       :     3.170514  s :     3.170514
      pz      :     0.640675  p :     2.642886
      px      :     1.039453
      py      :     0.962759
      dz2     :     0.039548  d :     0.152933
      dxz     :     0.032537
      dyz     :     0.035718
      dx2y2   :     0.016613
      dxy     :     0.028518
      f0      :     0.003498  f :     0.012057
      f+1     :     0.002614
      f-1     :     0.002981
      f+2     :     0.000503
      f-2     :     0.000404
      f+3     :     0.001076
      f-3     :     0.000979
  2 O s       :     3.698661  s :     3.698661
      pz      :     1.330985  p :     4.577944
      px      :     1.534332
      py      :     1.712628
      dz2     :     0.011558  d :     0.036587
      dxz     :     0.008130
      dyz     :     0.005794
      dx2y2   :     0.004939
      dxy     :     0.006165
      f0      :     0.000659  f :     0.002566
      f+1     :     0.000473
[...]
 15 C s       :     2.705222  s :     2.705222
      pz      :     0.939290  p :     2.802383
      px      :     0.889003
      py      :     0.974090
      dz2     :     0.070279  d :     0.412494
      dxz     :     0.068051
      dyz     :     0.106417
      dx2y2   :     0.083454
      dxy     :     0.084293
      f0      :     0.006085  f :     0.041773
      f+1     :     0.003395
      f-1     :     0.006453
      f+2     :     0.004677
      f-2     :     0.007780
      f+3     :     0.005400
      f-3     :     0.007984
 16 C s       :     2.703959  s :     2.703959
      pz      :     0.953141  p :     2.853534
      px      :     0.930957
      py      :     0.969436
      dz2     :     0.098610  d :     0.399113
      dxz     :     0.076815
      dyz     :     0.072582
      dx2y2   :     0.071698
      dxy     :     0.079407
      f0      :     0.004764  f :     0.040844
      f+1     :     0.006321
      f-1     :     0.006724
      f+2     :     0.007003
      f-2     :     0.007148
      f+3     :     0.004970
      f-3     :     0.003915
 17 C s       :     2.710390  s :     2.710390
      pz      :     0.867465  p :     2.692930
      px      :     0.938500
      py      :     0.886964
      dz2     :     0.172057  d :     0.702159
      dxz     :     0.112999
      dyz     :     0.153186
      dx2y2   :     0.125769
      dxy     :     0.138147
      f0      :     0.016233  f :     0.097445
      f+1     :     0.009598
      f-1     :     0.018030
      f+2     :     0.012939
      f-2     :     0.019157
      f+3     :     0.010008
      f-3     :     0.011480
 18 O s       :     3.169008  s :     3.169008
      pz      :     1.501487  p :     4.385551
      px      :     1.507139
      py      :     1.376924
      dz2     :     0.016672  d :     0.074632
      dxz     :     0.009256
      dyz     :     0.019066
      dx2y2   :     0.009907
      dxy     :     0.019731
      f0      :     0.000478  f :     0.005000
      f+1     :     0.000554
      f-1     :     0.000948
      f+2     :     0.000793
      f-2     :     0.001013
      f+3     :     0.000538
      f-3     :     0.000677
 19 C s       :     2.707662  s :     2.707662
      pz      :     0.952536  p :     2.853225
      px      :     0.940518
      py      :     0.960171
      dz2     :     0.059587  d :     0.373187
      dxz     :     0.067846
      dyz     :     0.085961
      dx2y2   :     0.081312
      dxy     :     0.078481
      f0      :     0.005744  f :     0.037569
      f+1     :     0.002676
      f-1     :     0.005740
      f+2     :     0.005233
      f-2     :     0.006256
      f+3     :     0.005235
      f-3     :     0.006685
 20 H s       :     0.848400  s :     0.848400
      pz      :     0.048679  p :     0.151266
      px      :     0.061458
      py      :     0.041129
      dz2     :     0.006352  d :     0.027566
      dxz     :     0.006221
      dyz     :     0.002724
      dx2y2   :     0.006050
      dxy     :     0.006219
 21 H s       :     0.841920  s :     0.841920
      pz      :     0.070919  p :     0.150216
      px      :     0.040566
      py      :     0.038732
      dz2     :     0.009013  d :     0.027231
      dxz     :     0.008926
      dyz     :     0.008076
      dx2y2   :     0.000624
      dxy     :     0.000593
 22 H s       :     0.845029  s :     0.845029
      pz      :     0.041433  p :     0.153869
      px      :     0.060937
      py      :     0.051500
      dz2     :     0.003861  d :     0.027887
      dxz     :     0.005710
      dyz     :     0.003016
      dx2y2   :     0.008554
      dxy     :     0.006745
 23 H s       :     0.846156  s :     0.846156
      pz      :     0.027613  p :     0.144368
      px      :     0.059499
      py      :     0.057256
      dz2     :     0.003494  d :     0.027004
      dxz     :     0.003617
      dyz     :     0.004092
      dx2y2   :     0.009133
      dxy     :     0.006668
 24 H s       :     0.849902  s :     0.849902
      pz      :     0.036184  p :     0.149934
      px      :     0.071291
      py      :     0.042459
      dz2     :     0.004556  d :     0.027614
      dxz     :     0.007080
      dyz     :     0.002497
      dx2y2   :     0.006110
      dxy     :     0.007370
 25 H s       :     0.817980  s :     0.817980
      pz      :     0.048714  p :     0.152536
      px      :     0.035824
      py      :     0.067999
      dz2     :     0.004911  d :     0.027910
      dxz     :     0.002709
      dyz     :     0.007830
      dx2y2   :     0.006604
      dxy     :     0.005856
 26 H s       :     0.813843  s :     0.813843
      pz      :     0.061202  p :     0.156137
      px      :     0.037144
      py      :     0.057792
      dz2     :     0.008111  d :     0.028478
      dxz     :     0.005521
      dyz     :     0.007126
      dx2y2   :     0.004372
      dxy     :     0.003348
 27 H s       :     0.828693  s :     0.828693
      pz      :     0.057649  p :     0.149507
      px      :     0.050980
      py      :     0.040878
      dz2     :     0.007142  d :     0.027732
      dxz     :     0.007252
      dyz     :     0.005799
      dx2y2   :     0.004151
      dxy     :     0.003388
 28 H s       :     0.714998  s :     0.714998
      pz      :     0.061296  p :     0.249125
      px      :     0.113061
      py      :     0.074768
      dz2     :     0.009141  d :     0.061011
      dxz     :     0.016996
      dyz     :     0.003978
      dx2y2   :     0.012866
      dxy     :     0.018031
 29 H s       :     0.714140  s :     0.714140
      pz      :     0.073089  p :     0.247822
      px      :     0.093805
      py      :     0.080927
      dz2     :     0.009683  d :     0.059753
      dxz     :     0.016150
      dyz     :     0.005698
      dx2y2   :     0.012379
      dxy     :     0.015843
 30 H s       :     0.811248  s :     0.811248
      pz      :     0.048856  p :     0.153518
      px      :     0.048144
      py      :     0.056518
      dz2     :     0.005635  d :     0.029667
      dxz     :     0.004340
      dyz     :     0.006170
      dx2y2   :     0.006734
      dxy     :     0.006789
 31 H s       :     0.833067  s :     0.833067
      pz      :     0.064717  p :     0.159027
      px      :     0.039018
      py      :     0.055292
      dz2     :     0.007820  d :     0.027874
      dxz     :     0.005188
      dyz     :     0.007515
      dx2y2   :     0.003682
      dxy     :     0.003669
 32 H s       :     0.827690  s :     0.827690
      pz      :     0.063094  p :     0.154203
      px      :     0.052204
      py      :     0.038905
      dz2     :     0.007509  d :     0.027186
      dxz     :     0.006844
      dyz     :     0.006047
      dx2y2   :     0.003093
      dxy     :     0.003693
 33 H s       :     0.832778  s :     0.832778
      pz      :     0.036003  p :     0.156105
      px      :     0.049139
      py      :     0.070963
      dz2     :     0.002630  d :     0.027531
      dxz     :     0.001940
      dyz     :     0.006820
      dx2y2   :     0.008138
      dxy     :     0.008003
 34 H s       :     0.664412  s :     0.664412
      pz      :     0.080893  p :     0.340218
      px      :     0.150640
      py      :     0.108685
      dz2     :     0.009151  d :     0.098297
      dxz     :     0.019930
      dyz     :     0.012071
      dx2y2   :     0.032404
      dxy     :     0.024740
 35 H s       :     0.838975  s :     0.838975
      pz      :     0.058647  p :     0.161249
      px      :     0.063979
      py      :     0.038624
      dz2     :     0.006546  d :     0.028045
      dxz     :     0.007257
      dyz     :     0.004312
      dx2y2   :     0.004905
      dxy     :     0.005024


                      *****************************
                      * MAYER POPULATION ANALYSIS *
                      *****************************

  NA   - Mulliken gross atomic population
  ZA   - Total nuclear charge
  QA   - Mulliken gross atomic charge
  VA   - Mayer's total valence
  BVA  - Mayer's bonded valence
  FA   - Mayer's free valence

  ATOM       NA         ZA         QA         VA         BVA        FA
  0 C      6.3100     6.0000    -0.3100     3.8770     3.8770    -0.0000
  1 C      5.9784     6.0000     0.0216     3.8113     3.8113    -0.0000
  2 O      8.3158     8.0000    -0.3158     2.0940     2.0940    -0.0000
  3 C      5.5068     6.0000     0.4932     4.2526     4.2526     0.0000
  4 O      8.5953     8.0000    -0.5953     1.9439     1.9439     0.0000
  5 C      6.1440     6.0000    -0.1440     3.6340     3.6340     0.0000
  6 C      5.7957     6.0000     0.2043     3.8247     3.8247     0.0000
  7 C      6.2960     6.0000    -0.2960     3.8916     3.8916    -0.0000
  8 N      7.1059     7.0000    -0.1059     3.3585     3.3585     0.0000
  9 C      5.6709     6.0000     0.3291     4.0248     4.0248     0.0000
 10 S     16.7668    16.0000    -0.7668     1.3390     1.3390     0.0000
 11 N      7.1864     7.0000    -0.1864     3.3988     3.3988     0.0000
 12 C      5.9940     6.0000     0.0060     3.9099     3.9099    -0.0000
 13 C      5.9640     6.0000     0.0360     3.7179     3.7179    -0.0000
 14 C      6.2566     6.0000    -0.2566     3.7751     3.7751    -0.0000
 15 C      6.1655     6.0000    -0.1655     3.7671     3.7671     0.0000
 16 C      6.2694     6.0000    -0.2694     3.7573     3.7573    -0.0000
 17 C      5.7135     6.0000     0.2865     3.8954     3.8954     0.0000
 18 O      8.4367     8.0000    -0.4367     2.0549     2.0549     0.0000
 19 C      6.2704     6.0000    -0.2704     3.8141     3.8141    -0.0000
 20 H      0.8949     1.0000     0.1051     0.9787     0.9787     0.0000
 21 H      0.8800     1.0000     0.1200     0.9830     0.9830    -0.0000
 22 H      0.8976     1.0000     0.1024     0.9867     0.9867    -0.0000
 23 H      0.8683     1.0000     0.1317     0.9721     0.9721    -0.0000
 24 H      0.8909     1.0000     0.1091     0.9899     0.9899    -0.0000
 25 H      0.8556     1.0000     0.1444     0.9759     0.9759    -0.0000
 26 H      0.8595     1.0000     0.1405     0.9767     0.9767    -0.0000
 27 H      0.8740     1.0000     0.1260     0.9934     0.9934    -0.0000
 28 H      0.7576     1.0000     0.2424     0.9718     0.9718     0.0000
 29 H      0.7369     1.0000     0.2631     0.9647     0.9647     0.0000
 30 H      0.8187     1.0000     0.1813     0.9927     0.9927     0.0000
 31 H      0.8116     1.0000     0.1884     0.9868     0.9868     0.0000
 32 H      0.8044     1.0000     0.1956     0.9644     0.9644     0.0000
 33 H      0.8206     1.0000     0.1794     0.9750     0.9750     0.0000
 34 H      0.6689     1.0000     0.3311     0.9344     0.9344    -0.0000
 35 H      0.8185     1.0000     0.1815     0.9856     0.9856    -0.0000

  Mayer bond orders larger than 0.100000
B(  0-C ,  1-C ) :   0.9569 B(  0-C , 20-H ) :   0.9758 B(  0-C , 21-H ) :   0.9759 
B(  0-C , 22-H ) :   0.9752 B(  1-C ,  2-O ) :   0.8769 B(  1-C , 23-H ) :   0.9794 
B(  1-C , 24-H ) :   0.9781 B(  2-O ,  3-C ) :   1.2202 B(  3-C ,  4-O ) :   1.8479 
B(  3-C ,  5-C ) :   1.1237 B(  5-C ,  6-C ) :   1.6085 B(  5-C , 12-C ) :   0.9460 
B(  6-C ,  7-C ) :   0.9676 B(  6-C ,  8-N ) :   1.0992 B(  7-C , 25-H ) :   0.9542 
B(  7-C , 26-H ) :   0.9566 B(  7-C , 27-H ) :   0.9864 B(  8-N ,  9-C ) :   1.2780 
B(  8-N , 28-H ) :   0.9318 B(  9-C , 10-S ) :   1.1969 B(  9-C , 11-N ) :   1.4639 
B( 11-N , 12-C ) :   0.9593 B( 11-N , 29-H ) :   0.9145 B( 12-C , 13-C ) :   0.9672 
B( 12-C , 30-H ) :   0.9989 B( 13-C , 14-C ) :   1.3783 B( 13-C , 19-C ) :   1.3218 
B( 14-C , 15-C ) :   1.3447 B( 14-C , 31-H ) :   0.9551 B( 15-C , 16-C ) :   1.3875 
B( 15-C , 32-H ) :   0.9626 B( 16-C , 17-C ) :   1.3172 B( 16-C , 33-H ) :   0.9659 
B( 17-C , 18-O ) :   1.1060 B( 17-C , 19-C ) :   1.3907 B( 18-O , 34-H ) :   0.9117 
B( 19-C , 35-H ) :   0.9533 

-------
TIMINGS
-------

Total SCF time: 0 days 1 hours 54 min 51 sec 

Total time                  ....    6891.801 sec
Sum of individual times     ....    6887.816 sec  ( 99.9%)

Fock matrix formation       ....    6874.911 sec  ( 99.8%)
Diagonalization             ....       1.540 sec  (  0.0%)
Density matrix formation    ....       0.201 sec  (  0.0%)
Population analysis         ....       0.241 sec  (  0.0%)
Initial guess               ....       5.654 sec  (  0.1%)
Orbital Transformation      ....       0.000 sec  (  0.0%)
Orbital Orthonormalization  ....       0.000 sec  (  0.0%)
DIIS solution               ....       2.046 sec  (  0.0%)
SOSCF solution              ....       1.758 sec  (  0.0%)

Maximum memory used throughout the entire SCF-calculation: 721.7 MB

------------------------------------------------------------------------------
                                ORCA  MP2 
------------------------------------------------------------------------------

Freezing NCore=48 chemical core electrons

-------------
RI-MP2 ENERGY
-------------
Dimension of the basis                    ...  828
Memory devoted to MP2                     ...  256 MB   
Data format for buffers                   ... DOUBLE
Compression type for matrix containers    ... UNCOMPRESSED
Overall scaling of the MP2 energy         ...   1.000e+00
Calculating two index integrals           ... done (    0.041 sec)
Cholesky decomposition of V**-1           ... done (    0.535 sec)

-----------------
RI-TRANSFORMATION (AUX index driven)
-----------------

Dimension of the orbital-basis         ... 828
Dimension of the aux-basis             ... 2141
Transformation of internal/external MOs...   24-  76 to   77- 827
Number Format for Storage              ... Double (8 Byte)
Integral mode                          ... Direct

First Phase: integral generation and transformation of MO indices
  Aux angular momentum 0               ... done (    4.711 sec)
  Aux angular momentum 1               ... done (    7.955 sec)
  Aux angular momentum 2               ... done (   10.511 sec)
  Aux angular momentum 3               ... done (    8.374 sec)
  Aux angular momentum 4               ... done (    2.889 sec)
Closing buffer VIA ( 0.63 GB; CompressionRatio= 1.00)
  Phase 1 completed in    34.602 sec
Second Phase: sorting and transformation of aux index

IA-Transformation
Memory available                       ... 158 MB 
Max. # MO pairs treated in a batch     ... 11    
# of internal orbitals                 ... 53
# batches for internal orbitals        ... 5
Closing buffer IAV ( 0.63 GB; CompressionRatio= 1.00)
(ia|v) transformation done in    18.593 sec

  Phase 2 completed in    18.601 sec
RI-Integral transformation completed in    53.208 sec
Opening buffers                              ... done

Starting loop over batches of integrals:

Operator 0  - window                       ... ( 24- 76)x( 77-827)
Operator 0  - Memory available             ...   256 MB
Operator 0  - Memory needed per MO         ...  12.3 MB
Operator 0  - Number of orbitals per batch ... 13
Operator 0  - Number of batches            ... 5

OPERATOR  0   PASS   0:  MOs    24 ...   36
  Reading integrals       ... ok
  Internal MO  26
  Internal MO  29
  Internal MO  32
  Internal MO  35
OPERATOR  0   PASS   1:  MOs    37 ...   49
  Reading integrals       ... ok
  Internal MO  38
  Internal MO  41
  Internal MO  44
  Internal MO  47
OPERATOR  0   PASS   2:  MOs    50 ...   62
  Reading integrals       ... ok
  Internal MO  50
  Internal MO  53
  Internal MO  56
  Internal MO  59
  Internal MO  62
OPERATOR  0   PASS   3:  MOs    63 ...   75
  Reading integrals       ... ok
  Internal MO  65
  Internal MO  68
  Internal MO  71
  Internal MO  74
OPERATOR  0   PASS   4:  MOs    76 ...   76
  Reading integrals       ... ok
Time spent in pair loops =    88.246 sec
Deleting buffer (Ka|jb)[aa] ...done

-----------------------------------------------
 RI-MP2 CORRELATION ENERGY:     -3.519481270 Eh
-----------------------------------------------


-------
TIMINGS
-------

Total time                :  142.124 sec
Integral trafo            :   53.229 sec ( 37.5%)
I/O of integrals          :    0.863 sec (  0.6%)
K(i,j) Operators          :   60.769 sec ( 42.8%)
T(i,j) pair energies      :    8.847 sec (  6.2%)
V-calculation             :    0.041 sec (  0.0%)
V**(-1/2)                 :    0.535 sec (  0.4%)
Gamma(ia|P)               :    0.000 sec (  0.0%)
Gamma-Trafo               :    0.000 sec (  0.0%)
D(virtual)                :    0.000 sec (  0.0%)
D(internal)               :    0.000 sec (  0.0%)
W(virtual)                :    0.000 sec (  0.0%)
W(internal)               :    0.000 sec (  0.0%)
L(virtual)                :    0.000 sec (  0.0%)
L(internal)               :    0.000 sec (  0.0%)
G(D)                      :    0.000 sec (  0.0%)
G(Z)                      :    0.000 sec (  0.0%)
Z-Vector Solution         :    0.000 sec (  0.0%)
3-Index Derivative        :    0.000 sec (  0.0%)
2-Index Derivative        :    0.000 sec (  0.0%)
Separable Gradient        :    0.000 sec (  0.0%)


---------------------------------------
MP2 TOTAL ENERGY:    -1274.443900531 Eh
---------------------------------------

Maximum memory used throughout the entire MP2-calculation: 302.9 MB

-------------------------   --------------------
FINAL SINGLE POINT ENERGY     -1274.443900530965
-------------------------   --------------------


                            ***************************************
                            *     ORCA property calculations      *
                            ***************************************


  WARNING: The energy has been calculated at the MP2 level but the densities
           used in the property calculations are still SCF densities
           MP2 response densities have not been calculated 
           use %mp2 Density relaxed end
           or  %mp2 Density unrelaxed end

                                    ---------------------
                                    Active property flags
                                    ---------------------
   (+) Dipole Moment


------------------------------------------------------------------------------
                       ORCA ELECTRIC PROPERTIES CALCULATION
------------------------------------------------------------------------------

Dipole Moment Calculation                       ... on
Quadrupole Moment Calculation                   ... off
Polarizability Calculation                      ... off
GBWName                                         ... qm_input.solv.gbw
Electron density file                           ... qm_input.solv.scfp
The origin for moment calculation is the CENTER OF MASS  = (-8.167780,  9.151992 -10.363408)

-------------
DIPOLE MOMENT
-------------
                                X             Y             Z
Electronic contribution:     -5.77545      -0.60850     -15.04622
Nuclear contribution   :      6.33905      -1.28302      17.72157
                        -----------------------------------------
Total Dipole Moment    :      0.56360      -1.89152       2.67536
                        -----------------------------------------
Magnitude (a.u.)       :      3.32461
Magnitude (Debye)      :      8.45048



--------------------
Rotational spectrum 
--------------------
 
Rotational constants in cm-1:     0.010643     0.008812     0.005633 
Rotational constants in MHz :   319.066429   264.190399   168.864699 

 Dipole components along the rotational axes: 
x,y,z [a.u.] :    -1.251065     2.720150    -1.445213 
x,y,z [Debye]:    -3.179956     6.914071    -3.673440 

 

Timings for individual modules:

Sum of individual times         ...     7266.035 sec (= 121.101 min)
GTO integral calculation        ...      231.550 sec (=   3.859 min)   3.2 %
SCF iterations                  ...     6891.878 sec (= 114.865 min)  94.9 %
MP2 module                      ...      142.606 sec (=   2.377 min)   2.0 %
                             ****ORCA TERMINATED NORMALLY****
TOTAL RUN TIME: 0 days 2 hours 1 minutes 6 seconds 977 msec
