
                                        *****************
                                        * O   R   C   A *
                                        *****************

                                            #,                                       
                                            ###                                      
                                            ####                                     
                                            #####                                    
                                            ######                                   
                                           ########,                                 
                                     ,,################,,,,,                         
                               ,,#################################,,                 
                          ,,##########################################,,             
                       ,#########################################, ''#####,          
                    ,#############################################,,   '####,        
                  ,##################################################,,,,####,       
                ,###########''''           ''''###############################       
              ,#####''   ,,,,##########,,,,          '''####'''          '####       
            ,##' ,,,,###########################,,,                        '##       
           ' ,,###''''                  '''############,,,                           
         ,,##''                                '''############,,,,        ,,,,,,###''
      ,#''                                            '''#######################'''  
     '                                                          ''''####''''         
             ,#######,   #######,   ,#######,      ##                                
            ,#'     '#,  ##    ##  ,#'     '#,    #''#        ######   ,####,        
            ##       ##  ##   ,#'  ##            #'  '#       #        #'  '#        
            ##       ##  #######   ##           ,######,      #####,   #    #        
            '#,     ,#'  ##    ##  '#,     ,#' ,#      #,         ##   #,  ,#        
             '#######'   ##     ##  '#######'  #'      '#     #####' # '####'        



                  #######################################################
                  #                        -***-                        #
                  #          Department of theory and spectroscopy      #
                  #    Directorship and core code : Frank Neese         #
                  #        Max Planck Institute fuer Kohlenforschung    #
                  #                Kaiser Wilhelm Platz 1               #
                  #                 D-45470 Muelheim/Ruhr               #
                  #                      Germany                        #
                  #                                                     #
                  #                  All rights reserved                #
                  #                        -***-                        #
                  #######################################################


                         Program Version 5.0.0 -  RELEASE  -
                                (SVN: $Rev: 19529$)
                ($Date: 2021-06-28 11:36:33 +0200 (Mo, 28 Jun 2021) $)


 With contributions from (in alphabetic order):
   Daniel Aravena         : Magnetic Suceptibility
   Michael Atanasov       : Ab Initio Ligand Field Theory (pilot matlab implementation)
   Alexander A. Auer      : GIAO ZORA, VPT2 properties, NMR spectrum
   Ute Becker             : Parallelization
   Giovanni Bistoni       : ED, misc. LED, open-shell LED, HFLD
   Martin Brehm           : Molecular dynamics
   Dmytro Bykov           : SCF Hessian
   Vijay G. Chilkuri      : MRCI spin determinant printing, contributions to CSF-ICE
   Dipayan Datta          : RHF DLPNO-CCSD density
   Achintya Kumar Dutta   : EOM-CC, STEOM-CC
   Dmitry Ganyushin       : Spin-Orbit,Spin-Spin,Magnetic field MRCI
   Miquel Garcia          : C-PCM Hessian, Gaussian charge scheme
   Yang Guo               : DLPNO-NEVPT2, F12-NEVPT2, CIM, IAO-localization
   Andreas Hansen         : Spin unrestricted coupled pair/coupled cluster methods
   Benjamin Helmich-Paris : MC-RPA, TRAH-SCF, COSX integrals
   Lee Huntington         : MR-EOM, pCC
   Robert Izsak           : Overlap fitted RIJCOSX, COSX-SCS-MP3, EOM
   Marcus Kettner         : VPT2
   Christian Kollmar      : KDIIS, OOCD, Brueckner-CCSD(T), CCSD density, CASPT2, CASPT2-K
   Simone Kossmann        : Meta GGA functionals, TD-DFT gradient, OOMP2, MP2 Hessian
   Martin Krupicka        : Initial AUTO-CI
   Lucas Lang             : DCDCAS
   Marvin Lechner         : AUTO-CI (C++ implementation), FIC-MRCC
   Dagmar Lenk            : GEPOL surface, SMD
   Dimitrios Liakos       : Extrapolation schemes; Compound Job, initial MDCI parallelization
   Dimitrios Manganas     : Further ROCIS development; embedding schemes
   Dimitrios Pantazis     : SARC Basis sets
   Anastasios Papadopoulos: AUTO-CI, single reference methods and gradients
   Taras Petrenko         : DFT Hessian,TD-DFT gradient, ASA, ECA, R-Raman, ABS, FL, XAS/XES, NRVS
   Peter Pinski           : DLPNO-MP2, DLPNO-MP2 Gradient
   Christoph Reimann      : Effective Core Potentials
   Marius Retegan         : Local ZFS, SOC
   Christoph Riplinger    : Optimizer, TS searches, QM/MM, DLPNO-CCSD(T), (RO)-DLPNO pert. Triples
   Tobias Risthaus        : Range-separated hybrids, TD-DFT gradient, RPA, STAB
   Michael Roemelt        : Original ROCIS implementation
   Masaaki Saitow         : Open-shell DLPNO-CCSD energy and density
   Barbara Sandhoefer     : DKH picture change effects
   Avijit Sen             : IP-ROCIS
   Kantharuban Sivalingam : CASSCF convergence, NEVPT2, FIC-MRCI
   Bernardo de Souza      : ESD, SOC TD-DFT
   Georgi Stoychev        : AutoAux, RI-MP2 NMR
   Willem Van den Heuvel  : Paramagnetic NMR
   Boris Wezisla          : Elementary symmetry handling
   Frank Wennmohs         : Technical directorship


 We gratefully acknowledge several colleagues who have allowed us to
 interface, adapt or use parts of their codes:
   Stefan Grimme, W. Hujo, H. Kruse, P. Pracht,  : VdW corrections, initial TS optimization,
                  C. Bannwarth, S. Ehlert          DFT functionals, gCP, sTDA/sTD-DF
   Ed Valeev, F. Pavosevic, A. Kumar             : LibInt (2-el integral package), F12 methods
   Garnet Chan, S. Sharma, J. Yang, R. Olivares  : DMRG
   Ulf Ekstrom                                   : XCFun DFT Library
   Mihaly Kallay                                 : mrcc  (arbitrary order and MRCC methods)
   Jiri Pittner, Ondrej Demel                    : Mk-CCSD
   Frank Weinhold                                : gennbo (NPA and NBO analysis)
   Christopher J. Cramer and Donald G. Truhlar   : smd solvation model
   Lars Goerigk                                  : TD-DFT with DH, B97 family of functionals
   V. Asgeirsson, H. Jonsson                     : NEB implementation
   FAccTs GmbH                                   : IRC, NEB, NEB-TS, DLPNO-Multilevel, CI-OPT
                                                   MM, QMMM, 2- and 3-layer-ONIOM, Crystal-QMMM,
                                                   LR-CPCM, SF, NACMEs, symmetry and pop. for TD-DFT,
                                                   nearIR, NL-DFT gradient (VV10), updates on ESD,
                                                   ML-optimized integration grids
   S Lehtola, MJT Oliveira, MAL Marques          : LibXC Library
   Liviu Ungur et al                             : ANISO software


 Your calculation uses the libint2 library for the computation of 2-el integrals
 For citations please refer to: http://libint.valeyev.net

 Your ORCA version has been built with support for libXC version: 5.1.0
 For citations please refer to: https://tddft.org/programs/libxc/

 This ORCA versions uses:
   CBLAS   interface :  Fast vector & matrix operations
   LAPACKE interface :  Fast linear algebra routines
   SCALAPACK package :  Parallel linear algebra routines
   Shared memory     :  Shared parallel matrices
   BLAS/LAPACK       :  OpenBLAS 0.3.15  USE64BITINT DYNAMIC_ARCH NO_AFFINITY SkylakeX SINGLE_THREADED
        Core in use  :  SkylakeX
   Copyright (c) 2011-2014, The OpenBLAS Project


================================================================================

----- Orbital basis set information -----
Your calculation utilizes the basis: cc-pVTZ 
       H, B-Ne : Obtained from the ccRepo (grant-hill.group.shef.ac.uk/ccrepo) Feb. 2017
                 T. H. Dunning, Jr., J. Chem. Phys. 90, 1007 (1989)
            He : Obtained from the ccRepo (grant-hill.group.shef.ac.uk/ccrepo) Feb. 2017
                 D. E. Woon, T. H. Dunning, Jr., J. Chem. Phys. 100, 2975 (1994)
  Li-Be, Na-Mg : Obtained from the ccRepo (grant-hill.group.shef.ac.uk/ccrepo) Feb. 2017
                 B. P. Prascher, D. E. Woon, K. A. Peterson, T. H. Dunning, Jr., A. K. Wilson, Theor. Chem. Acc. 128, 69 (2011)
         Al-Ar : Obtained from the ccRepo (grant-hill.group.shef.ac.uk/ccrepo) Feb. 2017
                 D. E. Woon, T. H. Dunning, Jr., J. Chem. Phys. 98, 1358 (1993)
            Ca : Obtained from the Peterson Research Group Website (tyr0.chem.wsu.edu/~kipeters) Feb. 2017
                 J. Koput, K. A. Peterson, J. Phys. Chem. 106, 9595 (2002)
         Sc-Zn : Obtained from the ccRepo (grant-hill.group.shef.ac.uk/ccrepo) Feb. 2017
                 N. B. Balabanov, K. A. Peterson, J. Chem. Phys. 123, 064107 (2005)
                 N. B. Balabanov, K. A. Peterson, J. Chem. Phys. 125, 074110 (2006)
         Ga-Kr : Obtained from the ccRepo (grant-hill.group.shef.ac.uk/ccrepo) Feb. 2017
                 A. K. Wilson, D. E. Woon, K. A. Peterson, T. H. Dunning, Jr., J. Chem. Phys. 110, 7667 (1999)
             Y : Obtained from the ccRepo (grant-hill.group.shef.ac.uk/ccrepo) Feb. 2017
                 K. A. Peterson, D. Figgen, M. Dolg, H. Stoll, J. Chem. Phys. 126, 124101 (2007)
        Ag, Au : Obtained from the Peterson Research Group Website (tyr0.chem.wsu.edu/~kipeters) Feb. 2017
                 K. A. Peterson, C. Puzzarini, Theor. Chem. Acc. 114, 283 (2005)

----- AuxC basis set information -----
Your calculation utilizes the auxiliary basis: cc-pVTZ/C 
  Obtained from the EMSL Basis Set Exchange (bse.pnl.gov) Feb. 2017
  H-He, B-F, Al-Ar, Ga-Kr : F. Weigend, A. Kohn, C. Hattig, J. Chem. Phys. 116, 3175 (2002)
             Li-Be, Na-Mg : C. Haettig, Phys. Chem. Chem. Phys. 7, 59 (2005)
                       Ne : C. Haettig, Phys. Chem. Chem. Phys. 7, 59 (2005)
                            F. Weigend, A. Kohn, C. Hattig, J. Chem. Phys. 116, 3175 (2002)
                    Sc-Zn : J. G. Hill, J. A. Platts, J. Chem. Phys. 128, 044104 (2008)

================================================================================
                                        WARNINGS
                       Please study these warnings very carefully!
================================================================================


WARNING: No MP2 level density has been requested!
         To caclulate MP2 level properties use
         %mp2 Density relaxed end
         or
         %mp2 Density unrelaxed end

WARNING: Post HF methods need fully converged wavefunctions
  ===> : Setting SCFConvForced true
         You can overwrite this default with %scf ConvForced false 


INFO   : the flag for use of the SHARK integral package has been found!

================================================================================
                                       INPUT FILE
================================================================================
NAME = qm_input.solv
|  1> ! RI-MP2 cc-pVTZ cc-pVTZ/c TightSCF KeepDens NoKeepInts
|  2> 
|  3> %pointcharges "srfp_output"
|  4> 
|  5> *xyz  0  1
|  6>     C     3.1853120  -19.7566734   -3.8810327
|  7>     C     3.0820225  -18.3603966   -4.5552863
|  8>     O     1.8812792  -17.7934928   -3.9199719
|  9>     C     1.6525004  -16.4566483   -4.0566664
| 10>     O     2.5584893  -15.6549556   -4.2314761
| 11>     C     0.4114432  -15.9378829   -3.4911458
| 12>     C    -0.6448503  -16.7378299   -3.3393468
| 13>     C    -0.9227283  -18.2466917   -3.5488037
| 14>     N    -1.8470865  -16.2187586   -2.8936852
| 15>     C    -2.1525863  -14.8857398   -2.9079619
| 16>     S    -3.5750403  -14.2428067   -2.4945644
| 17>     N    -1.1146601  -14.1084927   -3.2969499
| 18>     C     0.3351796  -14.4479328   -3.3098636
| 19>     C     1.0205321  -13.9946349   -2.0776926
| 20>     C     0.7457121  -14.4860365   -0.7942263
| 21>     C     1.4189146  -13.9917102    0.3808678
| 22>     C     2.5109172  -13.1442725    0.1237571
| 23>     C     2.8118795  -12.6996797   -1.1575341
| 24>     O     3.8163201  -11.8509593   -1.2844491
| 25>     C     2.0288813  -13.0965565   -2.2458100
| 26>     H     3.5804315  -19.6923959   -2.8597839
| 27>     H     3.8821553  -20.4253664   -4.4010825
| 28>     H     2.2587831  -20.3419882   -3.8347678
| 29>     H     3.9613087  -17.7767120   -4.2563586
| 30>     H     2.8899206  -18.3780773   -5.6350885
| 31>     H    -0.3795549  -18.5808407   -4.4412735
| 32>     H    -1.9715771  -18.5303013   -3.6993761
| 33>     H    -0.5279292  -18.8804222   -2.7452436
| 34>     H    -2.6398105  -16.8295281   -2.7371104
| 35>     H    -1.4524824  -13.1551559   -3.3516429
| 36>     H     0.7878228  -14.0033707   -4.2046643
| 37>     H     0.0297377  -15.2822019   -0.6128499
| 38>     H     1.2110085  -14.4055018    1.3631853
| 39>     H     3.1229909  -12.7656550    0.9370286
| 40>     H     4.0002112  -11.4437221   -2.1487819
| 41>     H     2.4232705  -12.7700910   -3.2035540
| 42> *
| 43> 
| 44>                          ****END OF INPUT****
================================================================================

                       ****************************
                       * Single Point Calculation *
                       ****************************

---------------------------------
CARTESIAN COORDINATES (ANGSTROEM)
---------------------------------
  C      3.185312  -19.756673   -3.881033
  C      3.082022  -18.360397   -4.555286
  O      1.881279  -17.793493   -3.919972
  C      1.652500  -16.456648   -4.056666
  O      2.558489  -15.654956   -4.231476
  C      0.411443  -15.937883   -3.491146
  C     -0.644850  -16.737830   -3.339347
  C     -0.922728  -18.246692   -3.548804
  N     -1.847087  -16.218759   -2.893685
  C     -2.152586  -14.885740   -2.907962
  S     -3.575040  -14.242807   -2.494564
  N     -1.114660  -14.108493   -3.296950
  C      0.335180  -14.447933   -3.309864
  C      1.020532  -13.994635   -2.077693
  C      0.745712  -14.486037   -0.794226
  C      1.418915  -13.991710    0.380868
  C      2.510917  -13.144272    0.123757
  C      2.811879  -12.699680   -1.157534
  O      3.816320  -11.850959   -1.284449
  C      2.028881  -13.096557   -2.245810
  H      3.580431  -19.692396   -2.859784
  H      3.882155  -20.425366   -4.401083
  H      2.258783  -20.341988   -3.834768
  H      3.961309  -17.776712   -4.256359
  H      2.889921  -18.378077   -5.635089
  H     -0.379555  -18.580841   -4.441274
  H     -1.971577  -18.530301   -3.699376
  H     -0.527929  -18.880422   -2.745244
  H     -2.639810  -16.829528   -2.737110
  H     -1.452482  -13.155156   -3.351643
  H      0.787823  -14.003371   -4.204664
  H      0.029738  -15.282202   -0.612850
  H      1.211008  -14.405502    1.363185
  H      3.122991  -12.765655    0.937029
  H      4.000211  -11.443722   -2.148782
  H      2.423271  -12.770091   -3.203554

----------------------------
CARTESIAN COORDINATES (A.U.)
----------------------------
  NO LB      ZA    FRAG     MASS         X           Y           Z
   0 C     6.0000    0    12.011    6.019367  -37.334702   -7.334089
   1 C     6.0000    0    12.011    5.824178  -34.696121   -8.608244
   2 O     8.0000    0    15.999    3.555102  -33.624828   -7.407673
   3 C     6.0000    0    12.011    3.122773  -31.098558   -7.665989
   4 O     8.0000    0    15.999    4.834844  -29.583579   -7.996331
   5 C     6.0000    0    12.011    0.777515  -30.118234   -6.597309
   6 C     6.0000    0    12.011   -1.218590  -31.629915   -6.310451
   7 C     6.0000    0    12.011   -1.743704  -34.481250   -6.706267
   8 N     7.0000    0    14.007   -3.490488  -30.649012   -5.468273
   9 C     6.0000    0    12.011   -4.067799  -28.129972   -5.495252
  10 S    16.0000    0    32.060   -6.755847  -26.915004   -4.714044
  11 N     7.0000    0    14.007   -2.106402  -26.661187   -6.230332
  12 C     6.0000    0    12.011    0.633398  -27.302636   -6.254736
  13 C     6.0000    0    12.011    1.928526  -26.446027   -3.926270
  14 C     6.0000    0    12.011    1.409192  -27.374642   -1.500870
  15 C     6.0000    0    12.011    2.681360  -26.440500    0.719736
  16 C     6.0000    0    12.011    4.744946  -24.839075    0.233867
  17 C     6.0000    0    12.011    5.313682  -23.998917   -2.187422
  18 O     8.0000    0    15.999    7.211800  -22.395068   -2.427257
  19 C     6.0000    0    12.011    3.834030  -24.748905   -4.243966
  20 H     1.0000    0     1.008    6.766035  -37.213235   -5.404208
  21 H     1.0000    0     1.008    7.336210  -38.598349   -8.316841
  22 H     1.0000    0     1.008    4.268481  -38.440787   -7.246661
  23 H     1.0000    0     1.008    7.485789  -33.593117   -8.043352
  24 H     1.0000    0     1.008    5.461158  -34.729533  -10.648774
  25 H     1.0000    0     1.008   -0.717255  -35.112700   -8.392791
  26 H     1.0000    0     1.008   -3.725741  -35.017195   -6.990808
  27 H     1.0000    0     1.008   -0.997642  -35.678827   -5.187759
  28 H     1.0000    0     1.008   -4.988519  -31.803199   -5.172389
  29 H     1.0000    0     1.008   -2.744794  -24.859642   -6.333687
  30 H     1.0000    0     1.008    1.488769  -26.462536   -7.945664
  31 H     1.0000    0     1.008    0.056196  -28.879176   -1.158118
  32 H     1.0000    0     1.008    2.288474  -27.222453    2.576047
  33 H     1.0000    0     1.008    5.901598  -24.123592    1.770727
  34 H     1.0000    0     1.008    7.559304  -21.625501   -4.060609
  35 H     1.0000    0     1.008    4.579318  -24.131975   -6.053840

--------------------------------
INTERNAL COORDINATES (ANGSTROEM)
--------------------------------
 C      0   0   0     0.000000000000     0.00000000     0.00000000
 C      1   0   0     1.553986981973     0.00000000     0.00000000
 O      2   1   0     1.472001622892   102.29781761     0.00000000
 C      3   2   1     1.363150154180   118.11973482   165.81464986
 O      4   3   2     1.222327903376   122.21933390   333.03446143
 C      4   3   2     1.459162109888   116.90692035   176.13439676
 C      6   4   3     1.333684406954   120.29793279   334.51449617
 C      7   6   4     1.548467728866   135.33215672     4.60221287
 N      7   6   4     1.383264673441   119.99700474   184.67839641
 C      9   7   6     1.367652394842   123.81596680    17.26399037
 S     10   9   7     1.614817589141   125.60240795   175.55174181
 N     10   9   7     1.353778237101   113.03746564   354.67426447
 C     12  10   9     1.489100903509   128.17699812   340.38973441
 C     13  12  10     1.481024108056   111.93603409   265.23622244
 C     14  13  12     1.401530345058   124.32135141    64.52040426
 C     15  14  13     1.441667867691   122.31981076   181.43479933
 C     16  15  14     1.405960968819   114.85359779   350.28388591
 C     17  16  15     1.389225756683   121.99353780     7.16225067
 O     18  17  16     1.321111143519   117.31684180   176.55717602
 C     14  13  12     1.360726416981   116.24023020   240.71707491
 H      1   2   3     1.096904794313   112.03980638   283.43950502
 H      1   2   3     1.096901411925   112.59829580   166.13963866
 H      1   2   3     1.096900022156   116.20667364    47.18484409
 H      2   1   3     1.096900042672   107.85411377   115.24535939
 H      2   1   3     1.096899511469   115.10515594   244.66533277
 H      8   7   6     1.096902566585   108.54393363   322.42933381
 H      8   7   6     1.096900295430   116.23812587   202.54980176
 H      8   7   6     1.096899954555   113.53361000    77.53479681
 H      9   7   6     1.012899990276   120.24743461   182.76389813
 H     12  10   9     1.012899938227   107.46837858   175.37774194
 H     13  12  10     1.096900004551   108.44930617   142.02958397
 H     15  14  13     1.086000038715   122.63347356     2.97519925
 H     16  15  14     1.086000048552   121.14674191   181.72176458
 H     17  16  15     1.085999980778   120.72642897   183.70561331
 H     19  18  17     0.973000135087   119.86186981   186.41562146
 H     20  14  13     1.086000061373   125.20307551   353.73765380

---------------------------
INTERNAL COORDINATES (A.U.)
---------------------------
 C      0   0   0     0.000000000000     0.00000000     0.00000000
 C      1   0   0     2.936609811608     0.00000000     0.00000000
 O      2   1   0     2.781679935954   102.29781761     0.00000000
 C      3   2   1     2.575980470812   118.11973482   165.81464986
 O      4   3   2     2.309864983230   122.21933390   333.03446143
 C      4   3   2     2.757416772683   116.90692035   176.13439676
 C      6   4   3     2.520298278224   120.29793279   334.51449617
 C      7   6   4     2.926179934773   135.33215672     4.60221287
 N      7   6   4     2.613991403531   119.99700474   184.67839641
 C      9   7   6     2.584488472652   123.81596680    17.26399037
 S     10   9   7     3.051562999715   125.60240795   175.55174181
 N     10   9   7     2.558270114184   113.03746564   354.67426447
 C     12  10   9     2.813992893407   128.17699812   340.38973441
 C     13  12  10     2.798729961960   111.93603409   265.23622244
 C     14  13  12     2.648508520540   124.32135141    64.52040426
 C     15  14  13     2.724357446010   122.31981076   181.43479933
 C     16  15  14     2.656881186051   114.85359779   350.28388591
 C     17  16  15     2.625256218320   121.99353780     7.16225067
 O     18  17  16     2.496538253722   117.31684180   176.55717602
 C     14  13  12     2.571400271286   116.24023020   240.71707491
 H      1   2   3     2.072849656238   112.03980638   283.43950502
 H      1   2   3     2.072843264451   112.59829580   166.13963866
 H      1   2   3     2.072840638167   116.20667364    47.18484409
 H      2   1   3     2.072840676938   107.85411377   115.24535939
 H      2   1   3     2.072839673108   115.10515594   244.66533277
 H      8   7   6     2.072845446441   108.54393363   322.42933381
 H      8   7   6     2.072841154581   116.23812587   202.54980176
 H      8   7   6     2.072840510420   113.53361000    77.53479681
 H      9   7   6     1.914103582673   120.24743461   182.76389813
 H     12  10   9     1.914103484315   107.46837858   175.37774194
 H     13  12  10     2.072840604898   108.44930617   142.02958397
 H     15  14  13     2.052242654600   122.63347356     2.97519925
 H     16  15  14     2.052242673188   121.14674191   181.72176458
 H     17  16  15     2.052242545114   120.72642897   183.70561331
 H     19  18  17     1.838703783582   119.86186981   186.41562146
 H     20  14  13     2.052242697417   125.20307551   353.73765380

---------------------
BASIS SET INFORMATION
---------------------
There are 5 groups of distinct atoms

 Group   1 Type C   : 18s5p2d1f contracted to 4s3p2d1f pattern {8811/311/11/1}
 Group   2 Type O   : 18s5p2d1f contracted to 4s3p2d1f pattern {8811/311/11/1}
 Group   3 Type N   : 18s5p2d1f contracted to 4s3p2d1f pattern {8811/311/11/1}
 Group   4 Type S   : 41s16p2d1f contracted to 5s4p2d1f pattern {13131311/7711/11/1}
 Group   5 Type H   : 5s2p1d contracted to 3s2p1d pattern {311/11/1}

Atom   0C    basis set group =>   1
Atom   1C    basis set group =>   1
Atom   2O    basis set group =>   2
Atom   3C    basis set group =>   1
Atom   4O    basis set group =>   2
Atom   5C    basis set group =>   1
Atom   6C    basis set group =>   1
Atom   7C    basis set group =>   1
Atom   8N    basis set group =>   3
Atom   9C    basis set group =>   1
Atom  10S    basis set group =>   4
Atom  11N    basis set group =>   3
Atom  12C    basis set group =>   1
Atom  13C    basis set group =>   1
Atom  14C    basis set group =>   1
Atom  15C    basis set group =>   1
Atom  16C    basis set group =>   1
Atom  17C    basis set group =>   1
Atom  18O    basis set group =>   2
Atom  19C    basis set group =>   1
Atom  20H    basis set group =>   5
Atom  21H    basis set group =>   5
Atom  22H    basis set group =>   5
Atom  23H    basis set group =>   5
Atom  24H    basis set group =>   5
Atom  25H    basis set group =>   5
Atom  26H    basis set group =>   5
Atom  27H    basis set group =>   5
Atom  28H    basis set group =>   5
Atom  29H    basis set group =>   5
Atom  30H    basis set group =>   5
Atom  31H    basis set group =>   5
Atom  32H    basis set group =>   5
Atom  33H    basis set group =>   5
Atom  34H    basis set group =>   5
Atom  35H    basis set group =>   5
---------------------------------
AUXILIARY/C BASIS SET INFORMATION
---------------------------------
There are 5 groups of distinct atoms

 Group   1 Type C   : 8s6p5d3f1g contracted to 8s6p5d3f1g pattern {11111111/111111/11111/111/1}
 Group   2 Type O   : 8s6p5d3f1g contracted to 8s6p5d3f1g pattern {11111111/111111/11111/111/1}
 Group   3 Type N   : 8s6p5d3f1g contracted to 8s6p5d3f1g pattern {11111111/111111/11111/111/1}
 Group   4 Type S   : 10s8p7d5f2g contracted to 10s8p7d5f2g pattern {1111111111/11111111/1111111/11111/11}
 Group   5 Type H   : 4s3p2d1f contracted to 4s3p2d1f pattern {1111/111/11/1}

Atom   0C    basis set group =>   1
Atom   1C    basis set group =>   1
Atom   2O    basis set group =>   2
Atom   3C    basis set group =>   1
Atom   4O    basis set group =>   2
Atom   5C    basis set group =>   1
Atom   6C    basis set group =>   1
Atom   7C    basis set group =>   1
Atom   8N    basis set group =>   3
Atom   9C    basis set group =>   1
Atom  10S    basis set group =>   4
Atom  11N    basis set group =>   3
Atom  12C    basis set group =>   1
Atom  13C    basis set group =>   1
Atom  14C    basis set group =>   1
Atom  15C    basis set group =>   1
Atom  16C    basis set group =>   1
Atom  17C    basis set group =>   1
Atom  18O    basis set group =>   2
Atom  19C    basis set group =>   1
Atom  20H    basis set group =>   5
Atom  21H    basis set group =>   5
Atom  22H    basis set group =>   5
Atom  23H    basis set group =>   5
Atom  24H    basis set group =>   5
Atom  25H    basis set group =>   5
Atom  26H    basis set group =>   5
Atom  27H    basis set group =>   5
Atom  28H    basis set group =>   5
Atom  29H    basis set group =>   5
Atom  30H    basis set group =>   5
Atom  31H    basis set group =>   5
Atom  32H    basis set group =>   5
Atom  33H    basis set group =>   5
Atom  34H    basis set group =>   5
Atom  35H    basis set group =>   5
------------------------------------------------------------------------------
                           ORCA GTO INTEGRAL CALCULATION
------------------------------------------------------------------------------
------------------------------------------------------------------------------
                   ___                                                        
                  /   \      - P O W E R E D   B Y -                         
                 /     \                                                     
                 |  |  |   _    _      __       _____    __    __             
                 |  |  |  | |  | |    /  \     |  _  \  |  |  /  |          
                  \  \/   | |  | |   /    \    | | | |  |  | /  /          
                 / \  \   | |__| |  /  /\  \   | |_| |  |  |/  /          
                |  |  |   |  __  | /  /__\  \  |    /   |      \           
                |  |  |   | |  | | |   __   |  |    \   |  |\   \          
                \     /   | |  | | |  |  |  |  | |\  \  |  | \   \       
                 \___/    |_|  |_| |__|  |__|  |_| \__\ |__|  \__/        
                                                                              
                      - O R C A' S   B I G   F R I E N D -                    
                                      &                                       
                       - I N T E G R A L  F E E D E R -                       
                                                                              
 v1 FN, 2020, v2 2021                                                         
------------------------------------------------------------------------------


Reading SHARK input file qm_input.solv.SHARKINP.tmp ... ok
----------------------
SHARK INTEGRAL PACKAGE
----------------------

Number of atoms                             ...     36
Number of basis functions                   ...    828
Number of shells                            ...    298
Maximum angular momentum                    ...      3
Integral batch strategy                     ... SHARK/LIBINT Hybrid
RI-J (if used) integral strategy            ... SPLIT-RIJ (Revised 2003 algorithm where possible)
Printlevel                                  ...      1
Contraction scheme used                     ... SEGMENTED contraction
Coulomb Range Separation                    ... NOT USED
Exchange Range Separation                   ... NOT USED
Finite Nucleus Model                        ... NOT USED
Auxiliary Coulomb fitting basis             ... NOT available
Auxiliary J/K fitting basis                 ... NOT available
Auxiliary Correlation fitting basis         ... AVAILABLE
   # of basis functions in Aux-C            ...   2141
   # of shells in Aux-C                     ...    629
   Maximum angular momentum in Aux-C        ...      4
Auxiliary 'external' fitting basis          ... NOT available
Integral threshold                          ...     2.500000e-11
Primitive cut-off                           ...     2.500000e-12
Primitive pair pre-selection threshold      ...     2.500000e-12

Calculating pre-screening integrals         ... done (  0.6 sec) Dimension = 298
Organizing shell pair data                  ... done (  0.4 sec)
Shell pair information
Total number of shell pairs                 ...     44551
Shell pairs after pre-screening             ...     32051
Total number of primitive shell pairs       ...    234348
Primitive shell pairs kept                  ...     93096
          la=0 lb=0:   6423 shell pairs
          la=1 lb=0:   8932 shell pairs
          la=1 lb=1:   3151 shell pairs
          la=2 lb=0:   5097 shell pairs
          la=2 lb=1:   3494 shell pairs
          la=2 lb=2:    989 shell pairs
          la=3 lb=0:   1848 shell pairs
          la=3 lb=1:   1269 shell pairs
          la=3 lb=2:    706 shell pairs
          la=3 lb=3:    142 shell pairs

Reading point charge file                   ... ok (45380 point charges)
Calculating one electron integrals          ... done (234.3 sec)
Calculating RI/C V-Matrix + Cholesky decomp.... done (  0.4 sec)
Calculating Nuclear repulsion               ... (+Point charges) done (  0.0 sec) ENN=   1824.095650787667 Eh

SHARK setup successfully completed in 235.9 seconds

Maximum memory used throughout the entire GTOINT-calculation: 476.0 MB
ENUC WAS=  0.000000000
ENUC IS =  0.000000000
-------------------------------------------------------------------------------
                                 ORCA SCF
-------------------------------------------------------------------------------

------------
SCF SETTINGS
------------
Hamiltonian:
 Ab initio Hamiltonian  Method          .... Hartree-Fock(GTOs)


General Settings:
 Integral files         IntName         .... qm_input.solv
 Hartree-Fock type      HFTyp           .... RHF
 Total Charge           Charge          ....    0
 Multiplicity           Mult            ....    1
 Number of Electrons    NEL             ....  154
 Basis Dimension        Dim             ....  828
 Nuclear Repulsion      ENuc            ....   1824.0956507877 Eh

Convergence Acceleration:
 DIIS                   CNVDIIS         .... on
   Start iteration      DIISMaxIt       ....    12
   Startup error        DIISStart       ....  0.200000
   # of expansion vecs  DIISMaxEq       ....     5
   Bias factor          DIISBfac        ....   1.050
   Max. coefficient     DIISMaxC        ....  10.000
 Trust-Rad. Augm. Hess. CNVTRAH         .... auto
   Auto Start mean grad. ratio tolernc. ....  1.125000
   Auto Start start iteration           ....    20
   Auto Start num. interpolation iter.  ....    10
   Max. Number of Micro iterations      ....    16
   Max. Number of Macro iterations      .... Maxiter - #DIIS iter
   Number of Davidson start vectors     ....     2
   Converg. threshold I  (grad. norm)   ....   1.000e-05
   Converg. threshold II (energy diff.) ....   1.000e-08
   Grad. Scal. Fac. for Micro threshold ....   0.100
   Minimum threshold for Micro iter.    ....   0.010
   NR start threshold (gradient norm)   ....   0.001
   Initial trust radius                 ....   0.400
   Minimum AH scaling param. (alpha)    ....   1.000
   Maximum AH scaling param. (alpha)    .... 1000.000
   Orbital update algorithm             .... Taylor
   White noise on init. David. guess    .... on
   Maximum white noise                  ....   0.010
   Quad. conv. algorithm                .... NR
 SOSCF                  CNVSOSCF        .... on
   Start iteration      SOSCFMaxIt      ....   150
   Startup grad/error   SOSCFStart      ....  0.003300
 Level Shifting         CNVShift        .... on
   Level shift para.    LevelShift      ....    0.2500
   Turn off err/grad.   ShiftErr        ....    0.0010
 Zerner damping         CNVZerner       .... off
 Static damping         CNVDamp         .... on
   Fraction old density DampFac         ....    0.7000
   Max. Damping (<1)    DampMax         ....    0.9800
   Min. Damping (>=0)   DampMin         ....    0.0000
   Turn off err/grad.   DampErr         ....    0.1000
 Fernandez-Rico         CNVRico         .... off

SCF Procedure:
 Maximum # iterations   MaxIter         ....   125
 SCF integral mode      SCFMode         .... Direct
   Integral package                     .... SHARK and LIBINT hybrid scheme
 Reset frequency        DirectResetFreq ....    20
 Integral Threshold     Thresh          ....  2.500e-11 Eh
 Primitive CutOff       TCut            ....  2.500e-12 Eh

Convergence Tolerance:
 Convergence Check Mode ConvCheckMode   .... Total+1el-Energy
 Convergence forced     ConvForced      .... 1
 Energy Change          TolE            ....  1.000e-08 Eh
 1-El. energy change                    ....  1.000e-05 Eh
 Orbital Gradient       TolG            ....  1.000e-05
 Orbital Rotation angle TolX            ....  1.000e-05
 DIIS Error             TolErr          ....  5.000e-07


Diagonalization of the overlap matrix:
Smallest eigenvalue                        ... 3.662e-05
Time for diagonalization                   ...    0.147 sec
Threshold for overlap eigenvalues          ... 1.000e-08
Number of eigenvalues below threshold      ... 0
Time for construction of square roots      ...    0.066 sec
Total time needed                          ...    0.216 sec

Time for model grid setup =    1.454 sec

------------------------------
INITIAL GUESS: MODEL POTENTIAL
------------------------------
Loading Hartree-Fock densities                     ... done
Calculating cut-offs                               ... done
Initializing the effective Hamiltonian             ... done
Setting up the integral package (SHARK)            ... done
Starting the Coulomb interaction                   ... done (   4.4 sec)
Reading the grid                                   ... done
Mapping shells                                     ... done
Starting the XC term evaluation                    ... done (   1.4 sec)
Transforming the Hamiltonian                       ... done (   0.1 sec)
Diagonalizing the Hamiltonian                      ... done (   0.2 sec)
Back transforming the eigenvectors                 ... done (   0.0 sec)
Now organizing SCF variables                       ... done
                      ------------------
                      INITIAL GUESS DONE (   7.5 sec)
                      ------------------
--------------
SCF ITERATIONS
--------------
ITER       Energy         Delta-E        Max-DP      RMS-DP      [F,P]     Damp
               ***  Starting incremental Fock matrix formation  ***
  0  -1270.0375999273   0.000000000000 0.07088236  0.00051397  0.3738178 0.7000
  1  -1270.3335308994  -0.295930972044 0.06696569  0.00042588  0.2176880 0.7000
                               ***Turning on DIIS***
  2  -1270.5162942090  -0.182763309643 0.03717548  0.00027572  0.1158705 0.7000
  3  -1272.6797855005  -2.163491291450 0.06463188  0.00055282  0.0843651 0.0000
  4  -1270.8570496167   1.822735883799 0.02235940  0.00012657  0.0082976 0.0000
  5  -1270.9168001017  -0.059750485036 0.00488639  0.00006021  0.0050909 0.0000
  6  -1270.8938647909   0.022935310789 0.00290976  0.00002917  0.0038972 0.0000
                      *** Initiating the SOSCF procedure ***
                           *** Shutting down DIIS ***
                      *** Re-Reading the Fockian *** 
                      *** Removing any level shift *** 
ITER      Energy       Delta-E        Grad      Rot      Max-DP    RMS-DP
  7  -1270.90916080  -0.0152960084  0.001099  0.001099  0.001695  0.000016
               *** Restarting incremental Fock matrix formation ***
  8  -1270.91083968  -0.0016788824  0.000497  0.000991  0.000696  0.000008
  9  -1270.91085353  -0.0000138504  0.000202  0.001024  0.001012  0.000011
 10  -1270.91085883  -0.0000052943  0.000071  0.000103  0.000180  0.000002
 11  -1270.91085939  -0.0000005681  0.000029  0.000065  0.000073  0.000001
 12  -1270.91085947  -0.0000000775  0.000012  0.000045  0.000028  0.000000
 13  -1270.91085948  -0.0000000109  0.000006  0.000030  0.000015  0.000000
                  ***Gradient check signals convergence***
              ***Rediagonalizing the Fockian in SOSCF/NRSCF***

               *****************************************************
               *                     SUCCESS                       *
               *           SCF CONVERGED AFTER  14 CYCLES          *
               *****************************************************


----------------
TOTAL SCF ENERGY
----------------

Total Energy       :        -1270.91085949 Eh          -34583.24266 eV

Components:
Nuclear Repulsion  :         1824.09565079 Eh           49636.16611 eV
Electronic Energy  :        -3095.00651027 Eh          -84219.40878 eV
One Electron Energy:        -5234.82090442 Eh         -142446.71866 eV
Two Electron Energy:         2139.81439414 Eh           58227.30988 eV

Virial components:
Potential Energy   :        -2540.48948118 Eh          -69130.23330 eV
Kinetic Energy     :         1269.57862170 Eh           34546.99063 eV
Virial Ratio       :            2.00104935


---------------
SCF CONVERGENCE
---------------

  Last Energy change         ...   -2.3806e-09  Tolerance :   1.0000e-08
  Last MAX-Density change    ...    4.5126e-06  Tolerance :   1.0000e-07
  Last RMS-Density change    ...    3.8131e-08  Tolerance :   5.0000e-09
  Last Orbital Gradient      ...    1.7612e-06  Tolerance :   1.0000e-05
  Last Orbital Rotation      ...    4.2953e-06  Tolerance :   1.0000e-05

             **** THE GBW FILE WAS UPDATED (qm_input.solv.gbw) ****
             **** DENSITY qm_input.solv.scfp WAS UPDATED ****
             **** ENERGY FILE WAS UPDATED (qm_input.solv.en.tmp) ****
             **** THE GBW FILE WAS UPDATED (qm_input.solv.gbw) ****
             **** DENSITY qm_input.solv.scfp WAS UPDATED ****
----------------
ORBITAL ENERGIES
----------------

  NO   OCC          E(Eh)            E(eV) 
   0   2.0000     -92.791802     -2524.9933 
   1   2.0000     -21.472708      -584.3021 
   2   2.0000     -21.457868      -583.8983 
   3   2.0000     -21.426119      -583.0343 
   4   2.0000     -16.491836      -448.7657 
   5   2.0000     -16.477944      -448.3877 
   6   2.0000     -12.269944      -333.8821 
   7   2.0000     -12.265185      -333.7526 
   8   2.0000     -12.200477      -331.9919 
   9   2.0000     -12.180201      -331.4401 
  10   2.0000     -12.177848      -331.3761 
  11   2.0000     -12.165762      -331.0472 
  12   2.0000     -12.130290      -330.0820 
  13   2.0000     -12.126038      -329.9663 
  14   2.0000     -12.119059      -329.7764 
  15   2.0000     -12.112874      -329.6081 
  16   2.0000     -12.111058      -329.5586 
  17   2.0000     -12.106704      -329.4402 
  18   2.0000     -12.104405      -329.3776 
  19   2.0000     -12.086940      -328.9024 
  20   2.0000      -9.800184      -266.6766 
  21   2.0000      -7.482387      -203.6061 
  22   2.0000      -7.480120      -203.5444 
  23   2.0000      -7.479680      -203.5324 
  24   2.0000      -2.327368       -63.3309 
  25   2.0000      -2.290534       -62.3286 
  26   2.0000      -2.234487       -60.8035 
  27   2.0000      -2.222102       -60.4665 
  28   2.0000      -2.110350       -57.4255 
  29   2.0000      -2.040969       -55.5376 
  30   2.0000      -2.001305       -54.4583 
  31   2.0000      -1.923764       -52.3483 
  32   2.0000      -1.902583       -51.7719 
  33   2.0000      -1.882927       -51.2370 
  34   2.0000      -1.875551       -51.0363 
  35   2.0000      -1.863734       -50.7148 
  36   2.0000      -1.804562       -49.1046 
  37   2.0000      -1.753648       -47.7192 
  38   2.0000      -1.730639       -47.0931 
  39   2.0000      -1.720018       -46.8041 
  40   2.0000      -1.699166       -46.2367 
  41   2.0000      -1.687826       -45.9281 
  42   2.0000      -1.630794       -44.3762 
  43   2.0000      -1.624451       -44.2036 
  44   2.0000      -1.608082       -43.7581 
  45   2.0000      -1.571519       -42.7632 
  46   2.0000      -1.555732       -42.3336 
  47   2.0000      -1.551621       -42.2218 
  48   2.0000      -1.545179       -42.0464 
  49   2.0000      -1.530872       -41.6571 
  50   2.0000      -1.520700       -41.3803 
  51   2.0000      -1.513170       -41.1754 
  52   2.0000      -1.505968       -40.9795 
  53   2.0000      -1.483518       -40.3686 
  54   2.0000      -1.477545       -40.2061 
  55   2.0000      -1.465271       -39.8721 
  56   2.0000      -1.461963       -39.7820 
  57   2.0000      -1.442859       -39.2622 
  58   2.0000      -1.439284       -39.1649 
  59   2.0000      -1.434507       -39.0349 
  60   2.0000      -1.424616       -38.7658 
  61   2.0000      -1.413622       -38.4666 
  62   2.0000      -1.400506       -38.1097 
  63   2.0000      -1.395494       -37.9733 
  64   2.0000      -1.391246       -37.8577 
  65   2.0000      -1.386371       -37.7251 
  66   2.0000      -1.374239       -37.3949 
  67   2.0000      -1.372928       -37.3593 
  68   2.0000      -1.357606       -36.9423 
  69   2.0000      -1.341783       -36.5118 
  70   2.0000      -1.335581       -36.3430 
  71   2.0000      -1.330754       -36.2116 
  72   2.0000      -1.248997       -33.9869 
  73   2.0000      -1.238232       -33.6940 
  74   2.0000      -1.227955       -33.4144 
  75   2.0000      -1.218597       -33.1597 
  76   2.0000      -1.185470       -32.2583 
  77   0.0000      -0.801153       -21.8005 
  78   0.0000      -0.755585       -20.5605 
  79   0.0000      -0.747510       -20.3408 
  80   0.0000      -0.727164       -19.7871 
  81   0.0000      -0.716853       -19.5066 
  82   0.0000      -0.704954       -19.1828 
  83   0.0000      -0.697971       -18.9927 
  84   0.0000      -0.694491       -18.8981 
  85   0.0000      -0.689140       -18.7525 
  86   0.0000      -0.675840       -18.3905 
  87   0.0000      -0.672386       -18.2965 
  88   0.0000      -0.664169       -18.0729 
  89   0.0000      -0.660430       -17.9712 
  90   0.0000      -0.651304       -17.7229 
  91   0.0000      -0.650062       -17.6891 
  92   0.0000      -0.644010       -17.5244 
  93   0.0000      -0.627965       -17.0878 
  94   0.0000      -0.626026       -17.0350 
  95   0.0000      -0.614278       -16.7154 
  96   0.0000      -0.606885       -16.5142 
  97   0.0000      -0.604466       -16.4484 
  98   0.0000      -0.597394       -16.2559 
  99   0.0000      -0.590460       -16.0672 
 100   0.0000      -0.573866       -15.6157 
 101   0.0000      -0.566940       -15.4272 
 102   0.0000      -0.552692       -15.0395 
 103   0.0000      -0.548243       -14.9185 
 104   0.0000      -0.542434       -14.7604 
 105   0.0000      -0.535038       -14.5591 
 106   0.0000      -0.528356       -14.3773 
 107   0.0000      -0.519312       -14.1312 
 108   0.0000      -0.504841       -13.7374 
 109   0.0000      -0.501032       -13.6338 
 110   0.0000      -0.496153       -13.5010 
 111   0.0000      -0.484132       -13.1739 
 112   0.0000      -0.479182       -13.0392 
 113   0.0000      -0.479061       -13.0359 
 114   0.0000      -0.469447       -12.7743 
 115   0.0000      -0.467559       -12.7229 
 116   0.0000      -0.460633       -12.5345 
 117   0.0000      -0.450976       -12.2717 
 118   0.0000      -0.447048       -12.1648 
 119   0.0000      -0.438850       -11.9417 
 120   0.0000      -0.437512       -11.9053 
 121   0.0000      -0.432290       -11.7632 
 122   0.0000      -0.411943       -11.2095 
 123   0.0000      -0.406130       -11.0513 
 124   0.0000      -0.404667       -11.0116 
 125   0.0000      -0.403134       -10.9698 
 126   0.0000      -0.397597       -10.8192 
 127   0.0000      -0.389429       -10.5969 
 128   0.0000      -0.384821       -10.4715 
 129   0.0000      -0.376959       -10.2576 
 130   0.0000      -0.369503       -10.0547 
 131   0.0000      -0.364887        -9.9291 
 132   0.0000      -0.355793        -9.6816 
 133   0.0000      -0.351367        -9.5612 
 134   0.0000      -0.345138        -9.3917 
 135   0.0000      -0.340326        -9.2607 
 136   0.0000      -0.332009        -9.0344 
 137   0.0000      -0.331127        -9.0104 
 138   0.0000      -0.328469        -8.9381 
 139   0.0000      -0.320235        -8.7140 
 140   0.0000      -0.311257        -8.4697 
 141   0.0000      -0.305331        -8.3085 
 142   0.0000      -0.303572        -8.2606 
 143   0.0000      -0.293448        -7.9851 
 144   0.0000      -0.292004        -7.9458 
 145   0.0000      -0.288393        -7.8476 
 146   0.0000      -0.284934        -7.7535 
 147   0.0000      -0.280281        -7.6268 
 148   0.0000      -0.279242        -7.5986 
 149   0.0000      -0.270935        -7.3725 
 150   0.0000      -0.265547        -7.2259 
 151   0.0000      -0.261923        -7.1273 
 152   0.0000      -0.256489        -6.9794 
 153   0.0000      -0.249910        -6.8004 
 154   0.0000      -0.243021        -6.6129 
 155   0.0000      -0.238784        -6.4977 
 156   0.0000      -0.232961        -6.3392 
 157   0.0000      -0.230188        -6.2637 
 158   0.0000      -0.226581        -6.1656 
 159   0.0000      -0.221832        -6.0364 
 160   0.0000      -0.216254        -5.8846 
 161   0.0000      -0.211711        -5.7609 
 162   0.0000      -0.209386        -5.6977 
 163   0.0000      -0.204145        -5.5551 
 164   0.0000      -0.200299        -5.4504 
 165   0.0000      -0.196753        -5.3539 
 166   0.0000      -0.191459        -5.2099 
 167   0.0000      -0.189636        -5.1603 
 168   0.0000      -0.180586        -4.9140 
 169   0.0000      -0.176884        -4.8133 
 170   0.0000      -0.170754        -4.6465 
 171   0.0000      -0.167005        -4.5444 
 172   0.0000      -0.155922        -4.2428 
 173   0.0000      -0.144540        -3.9331 
 174   0.0000      -0.141968        -3.8631 
 175   0.0000      -0.139722        -3.8020 
 176   0.0000      -0.131071        -3.5666 
 177   0.0000      -0.128941        -3.5087 
 178   0.0000      -0.116075        -3.1586 
 179   0.0000      -0.112058        -3.0492 
 180   0.0000      -0.108106        -2.9417 
 181   0.0000      -0.097800        -2.6613 
 182   0.0000      -0.087122        -2.3707 
 183   0.0000      -0.084817        -2.3080 
 184   0.0000      -0.075209        -2.0465 
 185   0.0000      -0.066988        -1.8228 
 186   0.0000      -0.057796        -1.5727 
 187   0.0000      -0.048060        -1.3078 
 188   0.0000      -0.039149        -1.0653 
 189   0.0000      -0.032027        -0.8715 
 190   0.0000      -0.023903        -0.6504 
 191   0.0000      -0.018993        -0.5168 
 192   0.0000      -0.017433        -0.4744 
 193   0.0000      -0.010801        -0.2939 
 194   0.0000      -0.004675        -0.1272 
 195   0.0000       0.001529         0.0416 
 196   0.0000       0.016224         0.4415 
 197   0.0000       0.026197         0.7128 
 198   0.0000       0.032446         0.8829 
 199   0.0000       0.041356         1.1254 
 200   0.0000       0.047889         1.3031 
 201   0.0000       0.049826         1.3558 
 202   0.0000       0.052446         1.4271 
 203   0.0000       0.063000         1.7143 
 204   0.0000       0.075236         2.0473 
 205   0.0000       0.078768         2.1434 
 206   0.0000       0.084167         2.2903 
 207   0.0000       0.092719         2.5230 
 208   0.0000       0.102971         2.8020 
 209   0.0000       0.110362         3.0031 
 210   0.0000       0.113980         3.1016 
 211   0.0000       0.117430         3.1954 
 212   0.0000       0.134025         3.6470 
 213   0.0000       0.136062         3.7024 
 214   0.0000       0.142794         3.8856 
 215   0.0000       0.149655         4.0723 
 216   0.0000       0.156021         4.2456 
 217   0.0000       0.159083         4.3289 
 218   0.0000       0.171269         4.6605 
 219   0.0000       0.175299         4.7701 
 220   0.0000       0.185329         5.0431 
 221   0.0000       0.197175         5.3654 
 222   0.0000       0.199841         5.4380 
 223   0.0000       0.207267         5.6400 
 224   0.0000       0.211571         5.7572 
 225   0.0000       0.214338         5.8324 
 226   0.0000       0.220225         5.9926 
 227   0.0000       0.229473         6.2443 
 228   0.0000       0.238615         6.4931 
 229   0.0000       0.242797         6.6068 
 230   0.0000       0.255774         6.9600 
 231   0.0000       0.260660         7.0929 
 232   0.0000       0.272354         7.4111 
 233   0.0000       0.276911         7.5351 
 234   0.0000       0.294604         8.0166 
 235   0.0000       0.301243         8.1972 
 236   0.0000       0.308186         8.3862 
 237   0.0000       0.311586         8.4787 
 238   0.0000       0.322171         8.7667 
 239   0.0000       0.325590         8.8598 
 240   0.0000       0.332667         9.0523 
 241   0.0000       0.338151         9.2015 
 242   0.0000       0.341462         9.2916 
 243   0.0000       0.356943         9.7129 
 244   0.0000       0.357537         9.7291 
 245   0.0000       0.365282         9.9398 
 246   0.0000       0.372344        10.1320 
 247   0.0000       0.375343        10.2136 
 248   0.0000       0.383023        10.4226 
 249   0.0000       0.390553        10.6275 
 250   0.0000       0.401336        10.9209 
 251   0.0000       0.404414        11.0047 
 252   0.0000       0.407551        11.0900 
 253   0.0000       0.412592        11.2272 
 254   0.0000       0.419486        11.4148 
 255   0.0000       0.423590        11.5265 
 256   0.0000       0.435333        11.8460 
 257   0.0000       0.442426        12.0390 
 258   0.0000       0.458480        12.4759 
 259   0.0000       0.462329        12.5806 
 260   0.0000       0.466964        12.7067 
 261   0.0000       0.475630        12.9425 
 262   0.0000       0.480119        13.0647 
 263   0.0000       0.486509        13.2386 
 264   0.0000       0.499944        13.6042 
 265   0.0000       0.504593        13.7307 
 266   0.0000       0.515811        14.0359 
 267   0.0000       0.521326        14.1860 
 268   0.0000       0.534225        14.5370 
 269   0.0000       0.538721        14.6593 
 270   0.0000       0.543496        14.7893 
 271   0.0000       0.563777        15.3411 
 272   0.0000       0.572429        15.5766 
 273   0.0000       0.576518        15.6878 
 274   0.0000       0.584272        15.8989 
 275   0.0000       0.590687        16.0734 
 276   0.0000       0.599873        16.3234 
 277   0.0000       0.602865        16.4048 
 278   0.0000       0.611819        16.6485 
 279   0.0000       0.616788        16.7837 
 280   0.0000       0.620665        16.8892 
 281   0.0000       0.644020        17.5247 
 282   0.0000       0.648136        17.6367 
 283   0.0000       0.655750        17.8439 
 284   0.0000       0.661199        17.9921 
 285   0.0000       0.664436        18.0802 
 286   0.0000       0.667150        18.1541 
 287   0.0000       0.673716        18.3327 
 288   0.0000       0.679046        18.4778 
 289   0.0000       0.682775        18.5793 
 290   0.0000       0.687319        18.7029 
 291   0.0000       0.691414        18.8143 
 292   0.0000       0.699855        19.0440 
 293   0.0000       0.704656        19.1747 
 294   0.0000       0.715819        19.4784 
 295   0.0000       0.724253        19.7079 
 296   0.0000       0.729928        19.8624 
 297   0.0000       0.737209        20.0605 
 298   0.0000       0.743491        20.2314 
 299   0.0000       0.747601        20.3433 
 300   0.0000       0.758364        20.6361 
 301   0.0000       0.770735        20.9728 
 302   0.0000       0.775355        21.0985 
 303   0.0000       0.784029        21.3345 
 304   0.0000       0.793046        21.5799 
 305   0.0000       0.800833        21.7918 
 306   0.0000       0.809068        22.0159 
 307   0.0000       0.814975        22.1766 
 308   0.0000       0.823751        22.4154 
 309   0.0000       0.825959        22.4755 
 310   0.0000       0.845350        23.0031 
 311   0.0000       0.852318        23.1928 
 312   0.0000       0.864490        23.5240 
 313   0.0000       0.877414        23.8756 
 314   0.0000       0.880815        23.9682 
 315   0.0000       0.894632        24.3442 
 316   0.0000       0.906506        24.6673 
 317   0.0000       0.909813        24.7573 
 318   0.0000       0.922844        25.1119 
 319   0.0000       0.928408        25.2633 
 320   0.0000       0.933432        25.4000 
 321   0.0000       0.959972        26.1222 
 322   0.0000       0.973841        26.4996 
 323   0.0000       0.980546        26.6820 
 324   0.0000       0.993043        27.0221 
 325   0.0000       0.999515        27.1982 
 326   0.0000       1.002265        27.2730 
 327   0.0000       1.023054        27.8387 
 328   0.0000       1.031051        28.0563 
 329   0.0000       1.041943        28.3527 
 330   0.0000       1.052927        28.6516 
 331   0.0000       1.062288        28.9063 
 332   0.0000       1.078186        29.3389 
 333   0.0000       1.080593        29.4044 
 334   0.0000       1.097440        29.8628 
 335   0.0000       1.101428        29.9714 
 336   0.0000       1.110565        30.2200 
 337   0.0000       1.116584        30.3838 
 338   0.0000       1.124446        30.5977 
 339   0.0000       1.132061        30.8049 
 340   0.0000       1.144575        31.1455 
 341   0.0000       1.156506        31.4701 
 342   0.0000       1.171989        31.8914 
 343   0.0000       1.185057        32.2470 
 344   0.0000       1.204576        32.7782 
 345   0.0000       1.219737        33.1907 
 346   0.0000       1.246969        33.9318 
 347   0.0000       1.247601        33.9490 
 348   0.0000       1.271878        34.6096 
 349   0.0000       1.273382        34.6505 
 350   0.0000       1.315011        35.7833 
 351   0.0000       1.328958        36.1628 
 352   0.0000       1.343901        36.5694 
 353   0.0000       1.345405        36.6103 
 354   0.0000       1.361757        37.0553 
 355   0.0000       1.372721        37.3536 
 356   0.0000       1.384223        37.6666 
 357   0.0000       1.393980        37.9321 
 358   0.0000       1.402907        38.1750 
 359   0.0000       1.419246        38.6197 
 360   0.0000       1.435292        39.0563 
 361   0.0000       1.441933        39.2370 
 362   0.0000       1.454127        39.5688 
 363   0.0000       1.464518        39.8516 
 364   0.0000       1.481047        40.3013 
 365   0.0000       1.493274        40.6340 
 366   0.0000       1.502867        40.8951 
 367   0.0000       1.517154        41.2839 
 368   0.0000       1.532865        41.7114 
 369   0.0000       1.534432        41.7540 
 370   0.0000       1.554587        42.3025 
 371   0.0000       1.567748        42.6606 
 372   0.0000       1.575697        42.8769 
 373   0.0000       1.602998        43.6198 
 374   0.0000       1.611932        43.8629 
 375   0.0000       1.633115        44.4393 
 376   0.0000       1.656561        45.0773 
 377   0.0000       1.665081        45.3092 
 378   0.0000       1.673272        45.5320 
 379   0.0000       1.686021        45.8790 
 380   0.0000       1.707546        46.4647 
 381   0.0000       1.708481        46.4901 
 382   0.0000       1.714064        46.6421 
 383   0.0000       1.726710        46.9862 
 384   0.0000       1.737832        47.2888 
 385   0.0000       1.742951        47.4281 
 386   0.0000       1.760292        47.9000 
 387   0.0000       1.770855        48.1874 
 388   0.0000       1.780401        48.4472 
 389   0.0000       1.790272        48.7158 
 390   0.0000       1.806239        49.1503 
 391   0.0000       1.822688        49.5979 
 392   0.0000       1.832384        49.8617 
 393   0.0000       1.839953        50.0677 
 394   0.0000       1.851975        50.3948 
 395   0.0000       1.858514        50.5727 
 396   0.0000       1.863182        50.6998 
 397   0.0000       1.869869        50.8817 
 398   0.0000       1.879475        51.1431 
 399   0.0000       1.889814        51.4245 
 400   0.0000       1.894804        51.5602 
 401   0.0000       1.917458        52.1767 
 402   0.0000       1.923694        52.3464 
 403   0.0000       1.934160        52.6312 
 404   0.0000       1.941123        52.8206 
 405   0.0000       1.943833        52.8944 
 406   0.0000       1.952684        53.1352 
 407   0.0000       1.963583        53.4318 
 408   0.0000       1.974390        53.7259 
 409   0.0000       1.981859        53.9291 
 410   0.0000       1.995695        54.3056 
 411   0.0000       2.007413        54.6245 
 412   0.0000       2.015090        54.8334 
 413   0.0000       2.019340        54.9490 
 414   0.0000       2.029031        55.2127 
 415   0.0000       2.041938        55.5640 
 416   0.0000       2.055961        55.9455 
 417   0.0000       2.065028        56.1923 
 418   0.0000       2.076733        56.5108 
 419   0.0000       2.079881        56.5964 
 420   0.0000       2.084822        56.7309 
 421   0.0000       2.097922        57.0874 
 422   0.0000       2.109242        57.3954 
 423   0.0000       2.120679        57.7066 
 424   0.0000       2.133820        58.0642 
 425   0.0000       2.140147        58.2364 
 426   0.0000       2.154199        58.6187 
 427   0.0000       2.162244        58.8377 
 428   0.0000       2.166997        58.9670 
 429   0.0000       2.181445        59.3601 
 430   0.0000       2.189135        59.5694 
 431   0.0000       2.191913        59.6450 
 432   0.0000       2.205523        60.0153 
 433   0.0000       2.207686        60.0742 
 434   0.0000       2.224484        60.5313 
 435   0.0000       2.227699        60.6188 
 436   0.0000       2.232903        60.7604 
 437   0.0000       2.240439        60.9655 
 438   0.0000       2.247670        61.1622 
 439   0.0000       2.250133        61.2292 
 440   0.0000       2.263955        61.6054 
 441   0.0000       2.264412        61.6178 
 442   0.0000       2.270201        61.7753 
 443   0.0000       2.277039        61.9614 
 444   0.0000       2.280218        62.0479 
 445   0.0000       2.292102        62.3713 
 446   0.0000       2.298837        62.5545 
 447   0.0000       2.306225        62.7556 
 448   0.0000       2.313719        62.9595 
 449   0.0000       2.323902        63.2366 
 450   0.0000       2.334798        63.5331 
 451   0.0000       2.339338        63.6566 
 452   0.0000       2.344851        63.8066 
 453   0.0000       2.350878        63.9706 
 454   0.0000       2.356574        64.1256 
 455   0.0000       2.367305        64.4176 
 456   0.0000       2.375348        64.6365 
 457   0.0000       2.378513        64.7226 
 458   0.0000       2.388353        64.9904 
 459   0.0000       2.393008        65.1170 
 460   0.0000       2.400601        65.3237 
 461   0.0000       2.405128        65.4469 
 462   0.0000       2.409021        65.5528 
 463   0.0000       2.410064        65.5812 
 464   0.0000       2.424209        65.9661 
 465   0.0000       2.431696        66.1698 
 466   0.0000       2.441582        66.4388 
 467   0.0000       2.444006        66.5048 
 468   0.0000       2.453111        66.7526 
 469   0.0000       2.455283        66.8116 
 470   0.0000       2.462330        67.0034 
 471   0.0000       2.471277        67.2469 
 472   0.0000       2.476181        67.3803 
 473   0.0000       2.480938        67.5097 
 474   0.0000       2.482736        67.5587 
 475   0.0000       2.494839        67.8880 
 476   0.0000       2.508040        68.2472 
 477   0.0000       2.509271        68.2807 
 478   0.0000       2.512962        68.3812 
 479   0.0000       2.516543        68.4786 
 480   0.0000       2.530608        68.8613 
 481   0.0000       2.531994        68.8991 
 482   0.0000       2.538006        69.0627 
 483   0.0000       2.538661        69.0805 
 484   0.0000       2.545564        69.2683 
 485   0.0000       2.550771        69.4100 
 486   0.0000       2.558122        69.6100 
 487   0.0000       2.563243        69.7494 
 488   0.0000       2.569348        69.9155 
 489   0.0000       2.571618        69.9773 
 490   0.0000       2.586881        70.3926 
 491   0.0000       2.596210        70.6465 
 492   0.0000       2.597252        70.6748 
 493   0.0000       2.601595        70.7930 
 494   0.0000       2.607624        70.9571 
 495   0.0000       2.614720        71.1502 
 496   0.0000       2.617409        71.2233 
 497   0.0000       2.622137        71.3520 
 498   0.0000       2.628099        71.5142 
 499   0.0000       2.639531        71.8253 
 500   0.0000       2.654192        72.2242 
 501   0.0000       2.659052        72.3565 
 502   0.0000       2.661992        72.4365 
 503   0.0000       2.664676        72.5095 
 504   0.0000       2.673305        72.7443 
 505   0.0000       2.681283        72.9614 
 506   0.0000       2.690697        73.2176 
 507   0.0000       2.694362        73.3173 
 508   0.0000       2.695765        73.3555 
 509   0.0000       2.708794        73.7100 
 510   0.0000       2.718062        73.9622 
 511   0.0000       2.720558        74.0301 
 512   0.0000       2.731094        74.3168 
 513   0.0000       2.740626        74.5762 
 514   0.0000       2.754672        74.9584 
 515   0.0000       2.756849        75.0177 
 516   0.0000       2.770131        75.3791 
 517   0.0000       2.774805        75.5063 
 518   0.0000       2.781994        75.7019 
 519   0.0000       2.792890        75.9984 
 520   0.0000       2.802328        76.2552 
 521   0.0000       2.805232        76.3342 
 522   0.0000       2.810432        76.4758 
 523   0.0000       2.814649        76.5905 
 524   0.0000       2.822894        76.8148 
 525   0.0000       2.828073        76.9558 
 526   0.0000       2.831643        77.0529 
 527   0.0000       2.836509        77.1853 
 528   0.0000       2.843815        77.3841 
 529   0.0000       2.854921        77.6863 
 530   0.0000       2.864062        77.9351 
 531   0.0000       2.867173        78.0197 
 532   0.0000       2.873537        78.1929 
 533   0.0000       2.879196        78.3469 
 534   0.0000       2.885145        78.5088 
 535   0.0000       2.890370        78.6510 
 536   0.0000       2.895085        78.7793 
 537   0.0000       2.903981        79.0213 
 538   0.0000       2.907124        79.1069 
 539   0.0000       2.911951        79.2382 
 540   0.0000       2.915753        79.3417 
 541   0.0000       2.923488        79.5522 
 542   0.0000       2.930273        79.7368 
 543   0.0000       2.946877        80.1886 
 544   0.0000       2.950177        80.2784 
 545   0.0000       2.956322        80.4456 
 546   0.0000       2.961885        80.5970 
 547   0.0000       2.966081        80.7112 
 548   0.0000       2.972750        80.8926 
 549   0.0000       2.984113        81.2019 
 550   0.0000       2.989015        81.3352 
 551   0.0000       2.992105        81.4193 
 552   0.0000       3.001978        81.6880 
 553   0.0000       3.010871        81.9300 
 554   0.0000       3.018839        82.1468 
 555   0.0000       3.027607        82.3854 
 556   0.0000       3.033678        82.5506 
 557   0.0000       3.050364        83.0046 
 558   0.0000       3.067709        83.4766 
 559   0.0000       3.070297        83.5470 
 560   0.0000       3.081513        83.8522 
 561   0.0000       3.089618        84.0728 
 562   0.0000       3.103415        84.4482 
 563   0.0000       3.105349        84.5009 
 564   0.0000       3.117853        84.8411 
 565   0.0000       3.124620        85.0252 
 566   0.0000       3.136605        85.3514 
 567   0.0000       3.139999        85.4437 
 568   0.0000       3.142525        85.5125 
 569   0.0000       3.154130        85.8282 
 570   0.0000       3.158106        85.9364 
 571   0.0000       3.175640        86.4136 
 572   0.0000       3.177455        86.4630 
 573   0.0000       3.183241        86.6204 
 574   0.0000       3.190388        86.8149 
 575   0.0000       3.203567        87.1735 
 576   0.0000       3.216922        87.5369 
 577   0.0000       3.219163        87.5979 
 578   0.0000       3.228573        87.8539 
 579   0.0000       3.248285        88.3903 
 580   0.0000       3.255753        88.5935 
 581   0.0000       3.265558        88.8603 
 582   0.0000       3.270978        89.0078 
 583   0.0000       3.275494        89.1307 
 584   0.0000       3.281721        89.3002 
 585   0.0000       3.287465        89.4565 
 586   0.0000       3.295167        89.6660 
 587   0.0000       3.302058        89.8536 
 588   0.0000       3.309621        90.0594 
 589   0.0000       3.314641        90.1960 
 590   0.0000       3.318288        90.2952 
 591   0.0000       3.323277        90.4310 
 592   0.0000       3.328783        90.5808 
 593   0.0000       3.333713        90.7150 
 594   0.0000       3.337973        90.8309 
 595   0.0000       3.347380        91.0868 
 596   0.0000       3.358810        91.3979 
 597   0.0000       3.363673        91.5302 
 598   0.0000       3.373959        91.8101 
 599   0.0000       3.382873        92.0527 
 600   0.0000       3.387338        92.1741 
 601   0.0000       3.400174        92.5234 
 602   0.0000       3.413191        92.8776 
 603   0.0000       3.420654        93.0807 
 604   0.0000       3.427268        93.2607 
 605   0.0000       3.444329        93.7250 
 606   0.0000       3.447556        93.8128 
 607   0.0000       3.449629        93.8692 
 608   0.0000       3.458645        94.1145 
 609   0.0000       3.461654        94.1964 
 610   0.0000       3.478078        94.6433 
 611   0.0000       3.482754        94.7706 
 612   0.0000       3.493348        95.0588 
 613   0.0000       3.496022        95.1316 
 614   0.0000       3.499958        95.2387 
 615   0.0000       3.517667        95.7206 
 616   0.0000       3.523034        95.8666 
 617   0.0000       3.526706        95.9665 
 618   0.0000       3.534748        96.1854 
 619   0.0000       3.540341        96.3376 
 620   0.0000       3.549596        96.5894 
 621   0.0000       3.557427        96.8025 
 622   0.0000       3.567419        97.0744 
 623   0.0000       3.579956        97.4155 
 624   0.0000       3.584457        97.5380 
 625   0.0000       3.589859        97.6850 
 626   0.0000       3.597752        97.8998 
 627   0.0000       3.606314        98.1328 
 628   0.0000       3.616801        98.4182 
 629   0.0000       3.625938        98.6668 
 630   0.0000       3.631908        98.8293 
 631   0.0000       3.641812        99.0987 
 632   0.0000       3.652656        99.3938 
 633   0.0000       3.660132        99.5972 
 634   0.0000       3.674731        99.9945 
 635   0.0000       3.676566       100.0445 
 636   0.0000       3.684341       100.2560 
 637   0.0000       3.693626       100.5087 
 638   0.0000       3.699850       100.6780 
 639   0.0000       3.704535       100.8055 
 640   0.0000       3.710295       100.9623 
 641   0.0000       3.717998       101.1719 
 642   0.0000       3.736569       101.6772 
 643   0.0000       3.741494       101.8112 
 644   0.0000       3.747843       101.9840 
 645   0.0000       3.759373       102.2977 
 646   0.0000       3.764172       102.4283 
 647   0.0000       3.773790       102.6901 
 648   0.0000       3.779173       102.8365 
 649   0.0000       3.793029       103.2136 
 650   0.0000       3.797867       103.3452 
 651   0.0000       3.802107       103.4606 
 652   0.0000       3.807268       103.6010 
 653   0.0000       3.820763       103.9682 
 654   0.0000       3.830193       104.2248 
 655   0.0000       3.847158       104.6865 
 656   0.0000       3.853348       104.8549 
 657   0.0000       3.867266       105.2336 
 658   0.0000       3.885013       105.7166 
 659   0.0000       3.891076       105.8816 
 660   0.0000       3.903472       106.2189 
 661   0.0000       3.910624       106.4135 
 662   0.0000       3.942784       107.2886 
 663   0.0000       3.956217       107.6541 
 664   0.0000       3.964250       107.8727 
 665   0.0000       3.994804       108.7041 
 666   0.0000       4.000698       108.8645 
 667   0.0000       4.011322       109.1536 
 668   0.0000       4.027956       109.6062 
 669   0.0000       4.044671       110.0611 
 670   0.0000       4.075802       110.9082 
 671   0.0000       4.089706       111.2866 
 672   0.0000       4.095538       111.4453 
 673   0.0000       4.103447       111.6605 
 674   0.0000       4.110197       111.8441 
 675   0.0000       4.135463       112.5317 
 676   0.0000       4.154897       113.0605 
 677   0.0000       4.172377       113.5361 
 678   0.0000       4.174963       113.6065 
 679   0.0000       4.183432       113.8370 
 680   0.0000       4.187867       113.9577 
 681   0.0000       4.192839       114.0930 
 682   0.0000       4.235603       115.2566 
 683   0.0000       4.238083       115.3241 
 684   0.0000       4.243566       115.4733 
 685   0.0000       4.250117       115.6516 
 686   0.0000       4.259148       115.8973 
 687   0.0000       4.263863       116.0256 
 688   0.0000       4.270293       116.2006 
 689   0.0000       4.290436       116.7487 
 690   0.0000       4.306272       117.1796 
 691   0.0000       4.308615       117.2434 
 692   0.0000       4.317285       117.4793 
 693   0.0000       4.324080       117.6642 
 694   0.0000       4.334047       117.9354 
 695   0.0000       4.342339       118.1611 
 696   0.0000       4.360073       118.6436 
 697   0.0000       4.382118       119.2435 
 698   0.0000       4.391950       119.5110 
 699   0.0000       4.401657       119.7752 
 700   0.0000       4.424964       120.4094 
 701   0.0000       4.431948       120.5994 
 702   0.0000       4.443720       120.9198 
 703   0.0000       4.456447       121.2661 
 704   0.0000       4.466936       121.5515 
 705   0.0000       4.469868       121.6313 
 706   0.0000       4.480239       121.9135 
 707   0.0000       4.494434       122.2998 
 708   0.0000       4.508583       122.6848 
 709   0.0000       4.523917       123.1020 
 710   0.0000       4.535911       123.4284 
 711   0.0000       4.543562       123.6366 
 712   0.0000       4.571472       124.3961 
 713   0.0000       4.581549       124.6703 
 714   0.0000       4.607057       125.3644 
 715   0.0000       4.633108       126.0733 
 716   0.0000       4.645210       126.4026 
 717   0.0000       4.656959       126.7223 
 718   0.0000       4.659189       126.7830 
 719   0.0000       4.670413       127.0884 
 720   0.0000       4.684647       127.4757 
 721   0.0000       4.691970       127.6750 
 722   0.0000       4.714810       128.2965 
 723   0.0000       4.717537       128.3707 
 724   0.0000       4.735644       128.8634 
 725   0.0000       4.742657       129.0543 
 726   0.0000       4.755285       129.3979 
 727   0.0000       4.778055       130.0175 
 728   0.0000       4.786994       130.2607 
 729   0.0000       4.796221       130.5118 
 730   0.0000       4.804259       130.7305 
 731   0.0000       4.816396       131.0608 
 732   0.0000       4.833644       131.5301 
 733   0.0000       4.844850       131.8351 
 734   0.0000       4.855142       132.1151 
 735   0.0000       4.859782       132.2414 
 736   0.0000       4.876277       132.6902 
 737   0.0000       4.881244       132.8254 
 738   0.0000       4.892196       133.1234 
 739   0.0000       4.906278       133.5066 
 740   0.0000       4.913793       133.7111 
 741   0.0000       4.947522       134.6289 
 742   0.0000       4.950830       134.7189 
 743   0.0000       4.970029       135.2414 
 744   0.0000       4.990877       135.8087 
 745   0.0000       5.002960       136.1375 
 746   0.0000       5.023631       136.6999 
 747   0.0000       5.031187       136.9056 
 748   0.0000       5.036768       137.0574 
 749   0.0000       5.047685       137.3545 
 750   0.0000       5.085955       138.3959 
 751   0.0000       5.106749       138.9617 
 752   0.0000       5.113342       139.1411 
 753   0.0000       5.141859       139.9171 
 754   0.0000       5.161036       140.4389 
 755   0.0000       5.163765       140.5132 
 756   0.0000       5.177708       140.8926 
 757   0.0000       5.201193       141.5317 
 758   0.0000       5.222797       142.1195 
 759   0.0000       5.242459       142.6546 
 760   0.0000       5.273370       143.4957 
 761   0.0000       5.308523       144.4523 
 762   0.0000       5.331136       145.0676 
 763   0.0000       5.344035       145.4186 
 764   0.0000       5.398727       146.9068 
 765   0.0000       5.422839       147.5630 
 766   0.0000       5.433164       147.8439 
 767   0.0000       5.448659       148.2656 
 768   0.0000       5.469057       148.8206 
 769   0.0000       5.487978       149.3355 
 770   0.0000       5.505697       149.8176 
 771   0.0000       5.522523       150.2755 
 772   0.0000       5.547035       150.9425 
 773   0.0000       5.556648       151.2041 
 774   0.0000       5.578675       151.8035 
 775   0.0000       5.590348       152.1211 
 776   0.0000       5.612385       152.7208 
 777   0.0000       5.677122       154.4824 
 778   0.0000       5.684640       154.6869 
 779   0.0000       5.719028       155.6227 
 780   0.0000       5.734718       156.0496 
 781   0.0000       5.819193       158.3483 
 782   0.0000       5.877993       159.9483 
 783   0.0000       5.900921       160.5722 
 784   0.0000       5.946846       161.8219 
 785   0.0000       6.016382       163.7141 
 786   0.0000       6.039972       164.3560 
 787   0.0000       6.083366       165.5368 
 788   0.0000       6.096123       165.8839 
 789   0.0000       6.103652       166.0888 
 790   0.0000       6.156442       167.5253 
 791   0.0000       6.188796       168.4057 
 792   0.0000       6.223866       169.3600 
 793   0.0000       6.283673       170.9874 
 794   0.0000       6.349981       172.7918 
 795   0.0000       6.381209       173.6415 
 796   0.0000       6.404758       174.2823 
 797   0.0000       6.432551       175.0386 
 798   0.0000       6.478417       176.2867 
 799   0.0000       6.506026       177.0380 
 800   0.0000       6.517741       177.3567 
 801   0.0000       6.644011       180.7927 
 802   0.0000       6.698051       182.2632 
 803   0.0000       6.780674       184.5115 
 804   0.0000       6.801914       185.0895 
 805   0.0000       6.892247       187.5476 
 806   0.0000       6.947033       189.0384 
 807   0.0000       7.079249       192.6362 
 808   0.0000       7.229275       196.7186 
 809   0.0000       8.600928       234.0431 
 810   0.0000       8.806505       239.6372 
 811   0.0000      10.186824       277.1976 
 812   0.0000      10.711158       291.4654 
 813   0.0000      11.116787       302.5032 
 814   0.0000      11.772168       320.3370 
 815   0.0000      12.047344       327.8249 
 816   0.0000      12.189782       331.7008 
 817   0.0000      12.513268       340.5033 
 818   0.0000      12.692876       345.3907 
 819   0.0000      12.733753       346.5030 
 820   0.0000      12.817333       348.7774 
 821   0.0000      12.888346       350.7097 
 822   0.0000      13.007832       353.9611 
 823   0.0000      13.161012       358.1293 
 824   0.0000      13.265067       360.9608 
 825   0.0000      13.885321       377.8388 
 826   0.0000      14.191147       386.1608 
 827   0.0000      15.212273       413.9470 

                    ********************************
                    * MULLIKEN POPULATION ANALYSIS *
                    ********************************

-----------------------
MULLIKEN ATOMIC CHARGES
-----------------------
   0 C :   -0.283671
   1 C :    0.029054
   2 O :   -0.340044
   3 C :    0.473590
   4 O :   -0.580919
   5 C :   -0.177432
   6 C :    0.180325
   7 C :   -0.275614
   8 N :   -0.135329
   9 C :    0.334684
  10 S :   -0.697788
  11 N :   -0.220965
  12 C :    0.071690
  13 C :    0.075496
  14 C :   -0.301679
  15 C :   -0.182529
  16 C :   -0.247199
  17 C :    0.322171
  18 O :   -0.428745
  19 C :   -0.295807
  20 H :    0.103843
  21 H :    0.101574
  22 H :    0.111107
  23 H :    0.113733
  24 H :    0.125293
  25 H :    0.121253
  26 H :    0.128083
  27 H :    0.136025
  28 H :    0.252547
  29 H :    0.236533
  30 H :    0.171102
  31 H :    0.192442
  32 H :    0.206400
  33 H :    0.179845
  34 H :    0.329317
  35 H :    0.171614
Sum of atomic charges:   -0.0000000

--------------------------------
MULLIKEN REDUCED ORBITAL CHARGES
--------------------------------
  0 C s       :     3.263005  s :     3.263005
      pz      :     0.999627  p :     2.946682
      px      :     1.029918
      py      :     0.917137
      dz2     :     0.018776  d :     0.069649
      dxz     :     0.010809
      dyz     :     0.013694
      dx2y2   :     0.009945
      dxy     :     0.016426
      f0      :     0.000713  f :     0.004336
      f+1     :     0.000627
      f-1     :     0.000451
      f+2     :     0.000681
      f-2     :     0.000392
      f+3     :     0.000409
      f-3     :     0.001064
  1 C s       :     3.185822  s :     3.185822
      pz      :     0.948974  p :     2.625918
      px      :     0.760959
      py      :     0.915984
      dz2     :     0.037588  d :     0.148201
      dxz     :     0.024105
      dyz     :     0.020146
      dx2y2   :     0.027248
      dxy     :     0.039114
      f0      :     0.001574  f :     0.011005
      f+1     :     0.001745
      f-1     :     0.000826
      f+2     :     0.001648
      f-2     :     0.001544
      f+3     :     0.001712
      f-3     :     0.001957
  2 O s       :     3.727089  s :     3.727089
      pz      :     1.699173  p :     4.575808
      px      :     1.551734
      py      :     1.324901
      dz2     :     0.004198  d :     0.035004
      dxz     :     0.005111
      dyz     :     0.006128
      dx2y2   :     0.014020
      dxy     :     0.005546
      f0      :     0.000259  f :     0.002143
      f+1     :     0.000143
      f-1     :     0.000294
      f+2     :     0.000287
      f-2     :     0.000202
[...]
 15 C s       :     2.715889  s :     2.715889
      pz      :     0.979371  p :     2.798526
      px      :     0.926555
      py      :     0.892600
      dz2     :     0.096818  d :     0.398376
      dxz     :     0.085198
      dyz     :     0.079527
      dx2y2   :     0.080115
      dxy     :     0.056718
      f0      :     0.007839  f :     0.039079
      f+1     :     0.005723
      f-1     :     0.005428
      f+2     :     0.005049
      f-2     :     0.007028
      f+3     :     0.004102
      f-3     :     0.003910
 16 C s       :     2.701746  s :     2.701746
      pz      :     0.975332  p :     2.867908
      px      :     0.954429
      py      :     0.938146
      dz2     :     0.090704  d :     0.396397
      dxz     :     0.116547
      dyz     :     0.083166
      dx2y2   :     0.054521
      dxy     :     0.051459
      f0      :     0.008937  f :     0.040949
      f+1     :     0.007437
      f-1     :     0.006476
      f+2     :     0.002733
      f-2     :     0.007331
      f+3     :     0.004080
      f-3     :     0.003954
 17 C s       :     2.692991  s :     2.692991
      pz      :     1.041319  p :     2.688620
      px      :     0.831232
      py      :     0.816068
      dz2     :     0.162220  d :     0.739729
      dxz     :     0.161029
      dyz     :     0.133976
      dx2y2   :     0.160630
      dxy     :     0.121874
      f0      :     0.021048  f :     0.108872
      f+1     :     0.015060
      f-1     :     0.011718
      f+2     :     0.007939
      f-2     :     0.018574
      f+3     :     0.018766
      f-3     :     0.015766
 18 O s       :     3.137158  s :     3.137158
      pz      :     1.440571  p :     4.372920
      px      :     1.472147
      py      :     1.460202
      dz2     :     0.016982  d :     0.078460
      dxz     :     0.012958
      dyz     :     0.014780
      dx2y2   :     0.015183
      dxy     :     0.018557
      f0      :     0.000699  f :     0.004620
      f+1     :     0.000599
      f-1     :     0.000482
      f+2     :     0.000227
      f-2     :     0.000791
      f+3     :     0.000937
      f-3     :     0.000886
 19 C s       :     2.686811  s :     2.686811
      pz      :     0.960304  p :     2.840720
      px      :     0.953355
      py      :     0.927061
      dz2     :     0.090616  d :     0.411806
      dxz     :     0.112191
      dyz     :     0.077103
      dx2y2   :     0.070428
      dxy     :     0.061467
      f0      :     0.008028  f :     0.044826
      f+1     :     0.007532
      f-1     :     0.004809
      f+2     :     0.004951
      f-2     :     0.009343
      f+3     :     0.004804
      f-3     :     0.005358
 20 H s       :     0.843850  s :     0.843850
      pz      :     0.069606  p :     0.152587
      px      :     0.046237
      py      :     0.036744
      dz2     :     0.009216  d :     0.027761
      dxz     :     0.008392
      dyz     :     0.007708
      dx2y2   :     0.001270
      dxy     :     0.001176
 21 H s       :     0.839704  s :     0.839704
      pz      :     0.047128  p :     0.154469
      px      :     0.055762
      py      :     0.051579
      dz2     :     0.005521  d :     0.027843
      dxz     :     0.004331
      dyz     :     0.004802
      dx2y2   :     0.007514
      dxy     :     0.005674
 22 H s       :     0.844647  s :     0.844647
      pz      :     0.040447  p :     0.152217
      px      :     0.064279
      py      :     0.047492
      dz2     :     0.002247  d :     0.027700
      dxz     :     0.006947
      dyz     :     0.002531
      dx2y2   :     0.008218
      dxy     :     0.007757
 23 H s       :     0.852987  s :     0.852987
      pz      :     0.037224  p :     0.148392
      px      :     0.059594
      py      :     0.051574
      dz2     :     0.003844  d :     0.027012
      dxz     :     0.005949
      dyz     :     0.002283
      dx2y2   :     0.007241
      dxy     :     0.007695
 24 H s       :     0.854139  s :     0.854139
      pz      :     0.080140  p :     0.145061
      px      :     0.029160
      py      :     0.035761
      dz2     :     0.010400  d :     0.026446
      dxz     :     0.007019
      dyz     :     0.008437
      dx2y2   :     0.000217
      dxy     :     0.000372
 25 H s       :     0.827402  s :     0.827402
      pz      :     0.063982  p :     0.156895
      px      :     0.052135
      py      :     0.040778
      dz2     :     0.009295  d :     0.028368
      dxz     :     0.006569
      dyz     :     0.006238
      dx2y2   :     0.003686
      dxy     :     0.002581
 26 H s       :     0.831268  s :     0.831268
      pz      :     0.043439  p :     0.150223
      px      :     0.072272
      py      :     0.034513
      dz2     :     0.002510  d :     0.027740
      dxz     :     0.009479
      dyz     :     0.000602
      dx2y2   :     0.007004
      dxy     :     0.008144
 27 H s       :     0.826241  s :     0.826241
      pz      :     0.059589  p :     0.153450
      px      :     0.045520
      py      :     0.048340
      dz2     :     0.008274  d :     0.027822
      dxz     :     0.005249
      dyz     :     0.006159
      dx2y2   :     0.004448
      dxy     :     0.003692
 28 H s       :     0.714304  s :     0.714304
      pz      :     0.083184  p :     0.249370
      px      :     0.094527
      py      :     0.071659
      dz2     :     0.005931  d :     0.060627
      dxz     :     0.013834
      dyz     :     0.009123
      dx2y2   :     0.015803
      dxy     :     0.015936
 29 H s       :     0.727722  s :     0.727722
      pz      :     0.083868  p :     0.260143
      px      :     0.058441
      py      :     0.117834
      dz2     :     0.005110  d :     0.062082
      dxz     :     0.002709
      dyz     :     0.021277
      dx2y2   :     0.016177
      dxy     :     0.016810
 30 H s       :     0.813092  s :     0.813092
      pz      :     0.065141  p :     0.147307
      px      :     0.039134
      py      :     0.043032
      dz2     :     0.009252  d :     0.028624
      dxz     :     0.006439
      dyz     :     0.006553
      dx2y2   :     0.003590
      dxy     :     0.002790
 31 H s       :     0.836824  s :     0.836824
      pz      :     0.034224  p :     0.161071
      px      :     0.063004
      py      :     0.063844
      dz2     :     0.003054  d :     0.027835
      dxz     :     0.004085
      dyz     :     0.004989
      dx2y2   :     0.008283
      dxy     :     0.007425
 32 H s       :     0.833173  s :     0.833173
      pz      :     0.072875  p :     0.152407
      px      :     0.036138
      py      :     0.043394
      dz2     :     0.009295  d :     0.026492
      dxz     :     0.006641
      dyz     :     0.007745
      dx2y2   :     0.001354
      dxy     :     0.001457
 33 H s       :     0.837643  s :     0.837643
      pz      :     0.058916  p :     0.156593
      px      :     0.051097
      py      :     0.046580
      dz2     :     0.007783  d :     0.027705
      dxz     :     0.006941
      dyz     :     0.005675
      dx2y2   :     0.003650
      dxy     :     0.003656
 34 H s       :     0.666283  s :     0.666283
      pz      :     0.165676  p :     0.338959
      px      :     0.077827
      py      :     0.095455
      dz2     :     0.032759  d :     0.097122
      dxz     :     0.024486
      dyz     :     0.026470
      dx2y2   :     0.007358
      dxy     :     0.006049
 35 H s       :     0.828740  s :     0.828740
      pz      :     0.071462  p :     0.156139
      px      :     0.041117
      py      :     0.043560
      dz2     :     0.009345  d :     0.028150
      dxz     :     0.007913
      dyz     :     0.007175
      dx2y2   :     0.001895
      dxy     :     0.001823


                      *****************************
                      * MAYER POPULATION ANALYSIS *
                      *****************************

  NA   - Mulliken gross atomic population
  ZA   - Total nuclear charge
  QA   - Mulliken gross atomic charge
  VA   - Mayer's total valence
  BVA  - Mayer's bonded valence
  FA   - Mayer's free valence

  ATOM       NA         ZA         QA         VA         BVA        FA
  0 C      6.2837     6.0000    -0.2837     3.8919     3.8919     0.0000
  1 C      5.9709     6.0000     0.0291     3.8130     3.8130    -0.0000
  2 O      8.3400     8.0000    -0.3400     2.0809     2.0809    -0.0000
  3 C      5.5264     6.0000     0.4736     4.2509     4.2509     0.0000
  4 O      8.5809     8.0000    -0.5809     1.9461     1.9461     0.0000
  5 C      6.1774     6.0000    -0.1774     3.6432     3.6432     0.0000
  6 C      5.8197     6.0000     0.1803     3.8247     3.8247    -0.0000
  7 C      6.2756     6.0000    -0.2756     3.8741     3.8741    -0.0000
  8 N      7.1353     7.0000    -0.1353     3.3683     3.3683     0.0000
  9 C      5.6653     6.0000     0.3347     4.0662     4.0662    -0.0000
 10 S     16.6978    16.0000    -0.6978     1.4877     1.4877     0.0000
 11 N      7.2210     7.0000    -0.2210     3.3390     3.3390    -0.0000
 12 C      5.9283     6.0000     0.0717     3.9224     3.9224    -0.0000
 13 C      5.9245     6.0000     0.0755     3.6661     3.6661     0.0000
 14 C      6.3017     6.0000    -0.3017     3.8007     3.8007     0.0000
 15 C      6.1825     6.0000    -0.1825     3.7950     3.7950     0.0000
 16 C      6.2472     6.0000    -0.2472     3.7335     3.7335     0.0000
 17 C      5.6778     6.0000     0.3222     3.9075     3.9075     0.0000
 18 O      8.4287     8.0000    -0.4287     2.0691     2.0691     0.0000
 19 C      6.2958     6.0000    -0.2958     3.7883     3.7883    -0.0000
 20 H      0.8962     1.0000     0.1038     0.9819     0.9819     0.0000
 21 H      0.8984     1.0000     0.1016     0.9805     0.9805     0.0000
 22 H      0.8889     1.0000     0.1111     0.9785     0.9785    -0.0000
 23 H      0.8863     1.0000     0.1137     0.9926     0.9926    -0.0000
 24 H      0.8747     1.0000     0.1253     0.9775     0.9775    -0.0000
 25 H      0.8787     1.0000     0.1213     0.9831     0.9831    -0.0000
 26 H      0.8719     1.0000     0.1281     0.9839     0.9839     0.0000
 27 H      0.8640     1.0000     0.1360     0.9755     0.9755     0.0000
 28 H      0.7475     1.0000     0.2525     0.9675     0.9675     0.0000
 29 H      0.7635     1.0000     0.2365     0.9776     0.9776    -0.0000
 30 H      0.8289     1.0000     0.1711     1.0000     1.0000    -0.0000
 31 H      0.8076     1.0000     0.1924     0.9709     0.9709     0.0000
 32 H      0.7936     1.0000     0.2064     0.9628     0.9628    -0.0000
 33 H      0.8202     1.0000     0.1798     0.9774     0.9774     0.0000
 34 H      0.6707     1.0000     0.3293     0.9342     0.9342    -0.0000
 35 H      0.8284     1.0000     0.1716     0.9827     0.9827    -0.0000

  Mayer bond orders larger than 0.100000
B(  0-C ,  1-C ) :   0.9744 B(  0-C , 20-H ) :   0.9786 B(  0-C , 21-H ) :   0.9751 
B(  0-C , 22-H ) :   0.9739 B(  1-C ,  2-O ) :   0.8576 B(  1-C , 23-H ) :   0.9784 
B(  1-C , 24-H ) :   0.9758 B(  2-O ,  3-C ) :   1.2240 B(  3-C ,  4-O ) :   1.8636 
B(  3-C ,  5-C ) :   1.1164 B(  5-C ,  6-C ) :   1.6164 B(  5-C , 12-C ) :   0.9599 
B(  6-C ,  7-C ) :   0.9631 B(  6-C ,  8-N ) :   1.1296 B(  7-C , 25-H ) :   0.9659 
B(  7-C , 26-H ) :   0.9848 B(  7-C , 27-H ) :   0.9582 B(  8-N ,  9-C ) :   1.2596 
B(  8-N , 28-H ) :   0.9297 B(  9-C , 10-S ) :   1.3400 B(  9-C , 11-N ) :   1.3921 
B( 11-N , 12-C ) :   0.9615 B( 11-N , 29-H ) :   0.9327 B( 12-C , 13-C ) :   0.9639 
B( 12-C , 30-H ) :   0.9880 B( 13-C , 14-C ) :   1.3430 B( 13-C , 19-C ) :   1.3145 
B( 14-C , 15-C ) :   1.3962 B( 14-C , 31-H ) :   0.9609 B( 15-C , 16-C ) :   1.3735 
B( 15-C , 32-H ) :   0.9579 B( 16-C , 17-C ) :   1.3250 B( 16-C , 33-H ) :   0.9564 
B( 17-C , 18-O ) :   1.1514 B( 17-C , 19-C ) :   1.3617 B( 18-O , 34-H ) :   0.9034 
B( 19-C , 35-H ) :   0.9613 

-------
TIMINGS
-------

Total SCF time: 0 days 1 hours 58 min 33 sec 

Total time                  ....    7113.520 sec
Sum of individual times     ....    7109.577 sec  ( 99.9%)

Fock matrix formation       ....    7096.604 sec  ( 99.8%)
Diagonalization             ....       1.709 sec  (  0.0%)
Density matrix formation    ....       0.194 sec  (  0.0%)
Population analysis         ....       0.218 sec  (  0.0%)
Initial guess               ....       6.089 sec  (  0.1%)
Orbital Transformation      ....       0.000 sec  (  0.0%)
Orbital Orthonormalization  ....       0.000 sec  (  0.0%)
DIIS solution               ....       1.635 sec  (  0.0%)
SOSCF solution              ....       1.675 sec  (  0.0%)

Maximum memory used throughout the entire SCF-calculation: 718.3 MB

------------------------------------------------------------------------------
                                ORCA  MP2 
------------------------------------------------------------------------------

Freezing NCore=48 chemical core electrons

-------------
RI-MP2 ENERGY
-------------
Dimension of the basis                    ...  828
Memory devoted to MP2                     ...  256 MB   
Data format for buffers                   ... DOUBLE
Compression type for matrix containers    ... UNCOMPRESSED
Overall scaling of the MP2 energy         ...   1.000e+00
Calculating two index integrals           ... done (    0.047 sec)
Cholesky decomposition of V**-1           ... done (    0.582 sec)

-----------------
RI-TRANSFORMATION (AUX index driven)
-----------------

Dimension of the orbital-basis         ... 828
Dimension of the aux-basis             ... 2141
Transformation of internal/external MOs...   24-  76 to   77- 827
Number Format for Storage              ... Double (8 Byte)
Integral mode                          ... Direct

First Phase: integral generation and transformation of MO indices
  Aux angular momentum 0               ... done (    5.190 sec)
  Aux angular momentum 1               ... done (    8.580 sec)
  Aux angular momentum 2               ... done (   11.215 sec)
  Aux angular momentum 3               ... done (    8.807 sec)
  Aux angular momentum 4               ... done (    3.075 sec)
Closing buffer VIA ( 0.63 GB; CompressionRatio= 1.00)
  Phase 1 completed in    37.034 sec
Second Phase: sorting and transformation of aux index

IA-Transformation
Memory available                       ... 158 MB 
Max. # MO pairs treated in a batch     ... 11    
# of internal orbitals                 ... 53
# batches for internal orbitals        ... 5
Closing buffer IAV ( 0.63 GB; CompressionRatio= 1.00)
(ia|v) transformation done in    19.613 sec

  Phase 2 completed in    19.624 sec
RI-Integral transformation completed in    56.664 sec
Opening buffers                              ... done

Starting loop over batches of integrals:

Operator 0  - window                       ... ( 24- 76)x( 77-827)
Operator 0  - Memory available             ...   256 MB
Operator 0  - Memory needed per MO         ...  12.3 MB
Operator 0  - Number of orbitals per batch ... 13
Operator 0  - Number of batches            ... 5

OPERATOR  0   PASS   0:  MOs    24 ...   36
  Reading integrals       ... ok
  Internal MO  26
  Internal MO  29
  Internal MO  32
  Internal MO  35
OPERATOR  0   PASS   1:  MOs    37 ...   49
  Reading integrals       ... ok
  Internal MO  38
  Internal MO  41
  Internal MO  44
  Internal MO  47
OPERATOR  0   PASS   2:  MOs    50 ...   62
  Reading integrals       ... ok
  Internal MO  50
  Internal MO  53
  Internal MO  56
  Internal MO  59
  Internal MO  62
OPERATOR  0   PASS   3:  MOs    63 ...   75
  Reading integrals       ... ok
  Internal MO  65
  Internal MO  68
  Internal MO  71
  Internal MO  74
OPERATOR  0   PASS   4:  MOs    76 ...   76
  Reading integrals       ... ok
Time spent in pair loops =    99.067 sec
Deleting buffer (Ka|jb)[aa] ...done

-----------------------------------------------
 RI-MP2 CORRELATION ENERGY:     -3.521806736 Eh
-----------------------------------------------


-------
TIMINGS
-------

Total time                :  156.460 sec
Integral trafo            :   56.685 sec ( 36.2%)
I/O of integrals          :    0.987 sec (  0.6%)
K(i,j) Operators          :   69.897 sec ( 44.7%)
T(i,j) pair energies      :   10.183 sec (  6.5%)
V-calculation             :    0.047 sec (  0.0%)
V**(-1/2)                 :    0.582 sec (  0.4%)
Gamma(ia|P)               :    0.000 sec (  0.0%)
Gamma-Trafo               :    0.000 sec (  0.0%)
D(virtual)                :    0.000 sec (  0.0%)
D(internal)               :    0.000 sec (  0.0%)
W(virtual)                :    0.000 sec (  0.0%)
W(internal)               :    0.000 sec (  0.0%)
L(virtual)                :    0.000 sec (  0.0%)
L(internal)               :    0.000 sec (  0.0%)
G(D)                      :    0.000 sec (  0.0%)
G(Z)                      :    0.000 sec (  0.0%)
Z-Vector Solution         :    0.000 sec (  0.0%)
3-Index Derivative        :    0.000 sec (  0.0%)
2-Index Derivative        :    0.000 sec (  0.0%)
Separable Gradient        :    0.000 sec (  0.0%)


---------------------------------------
MP2 TOTAL ENERGY:    -1274.432666221 Eh
---------------------------------------

Maximum memory used throughout the entire MP2-calculation: 302.8 MB

-------------------------   --------------------
FINAL SINGLE POINT ENERGY     -1274.432666220945
-------------------------   --------------------


                            ***************************************
                            *     ORCA property calculations      *
                            ***************************************


  WARNING: The energy has been calculated at the MP2 level but the densities
           used in the property calculations are still SCF densities
           MP2 response densities have not been calculated 
           use %mp2 Density relaxed end
           or  %mp2 Density unrelaxed end

                                    ---------------------
                                    Active property flags
                                    ---------------------
   (+) Dipole Moment


------------------------------------------------------------------------------
                       ORCA ELECTRIC PROPERTIES CALCULATION
------------------------------------------------------------------------------

Dipole Moment Calculation                       ... on
Quadrupole Moment Calculation                   ... off
Polarizability Calculation                      ... off
GBWName                                         ... qm_input.solv.gbw
Electron density file                           ... qm_input.solv.scfp
The origin for moment calculation is the CENTER OF MASS  = ( 1.184835, -28.885796 -5.058372)

-------------
DIPOLE MOMENT
-------------
                                X             Y             Z
Electronic contribution:     -9.06285      14.91452       1.25108
Nuclear contribution   :     10.64821     -17.55516      -2.84798
                        -----------------------------------------
Total Dipole Moment    :      1.58536      -2.64064      -1.59690
                        -----------------------------------------
Magnitude (a.u.)       :      3.46936
Magnitude (Debye)      :      8.81841



--------------------
Rotational spectrum 
--------------------
 
Rotational constants in cm-1:     0.009955     0.009251     0.005491 
Rotational constants in MHz :   298.429555   277.348344   164.604150 

 Dipole components along the rotational axes: 
x,y,z [a.u.] :    -3.139944     1.460480    -0.210231 
x,y,z [Debye]:    -7.981103     3.712246    -0.534365 

 

Timings for individual modules:

Sum of individual times         ...     7506.455 sec (= 125.108 min)
GTO integral calculation        ...      235.950 sec (=   3.932 min)   3.1 %
SCF iterations                  ...     7113.577 sec (= 118.560 min)  94.8 %
MP2 module                      ...      156.928 sec (=   2.615 min)   2.1 %
                             ****ORCA TERMINATED NORMALLY****
TOTAL RUN TIME: 0 days 2 hours 5 minutes 7 seconds 458 msec
