
                                        *****************
                                        * O   R   C   A *
                                        *****************

                                            #,                                       
                                            ###                                      
                                            ####                                     
                                            #####                                    
                                            ######                                   
                                           ########,                                 
                                     ,,################,,,,,                         
                               ,,#################################,,                 
                          ,,##########################################,,             
                       ,#########################################, ''#####,          
                    ,#############################################,,   '####,        
                  ,##################################################,,,,####,       
                ,###########''''           ''''###############################       
              ,#####''   ,,,,##########,,,,          '''####'''          '####       
            ,##' ,,,,###########################,,,                        '##       
           ' ,,###''''                  '''############,,,                           
         ,,##''                                '''############,,,,        ,,,,,,###''
      ,#''                                            '''#######################'''  
     '                                                          ''''####''''         
             ,#######,   #######,   ,#######,      ##                                
            ,#'     '#,  ##    ##  ,#'     '#,    #''#        ######   ,####,        
            ##       ##  ##   ,#'  ##            #'  '#       #        #'  '#        
            ##       ##  #######   ##           ,######,      #####,   #    #        
            '#,     ,#'  ##    ##  '#,     ,#' ,#      #,         ##   #,  ,#        
             '#######'   ##     ##  '#######'  #'      '#     #####' # '####'        



                  #######################################################
                  #                        -***-                        #
                  #          Department of theory and spectroscopy      #
                  #    Directorship and core code : Frank Neese         #
                  #        Max Planck Institute fuer Kohlenforschung    #
                  #                Kaiser Wilhelm Platz 1               #
                  #                 D-45470 Muelheim/Ruhr               #
                  #                      Germany                        #
                  #                                                     #
                  #                  All rights reserved                #
                  #                        -***-                        #
                  #######################################################


                         Program Version 5.0.0 -  RELEASE  -
                                (SVN: $Rev: 19529$)
                ($Date: 2021-06-28 11:36:33 +0200 (Mo, 28 Jun 2021) $)


 With contributions from (in alphabetic order):
   Daniel Aravena         : Magnetic Suceptibility
   Michael Atanasov       : Ab Initio Ligand Field Theory (pilot matlab implementation)
   Alexander A. Auer      : GIAO ZORA, VPT2 properties, NMR spectrum
   Ute Becker             : Parallelization
   Giovanni Bistoni       : ED, misc. LED, open-shell LED, HFLD
   Martin Brehm           : Molecular dynamics
   Dmytro Bykov           : SCF Hessian
   Vijay G. Chilkuri      : MRCI spin determinant printing, contributions to CSF-ICE
   Dipayan Datta          : RHF DLPNO-CCSD density
   Achintya Kumar Dutta   : EOM-CC, STEOM-CC
   Dmitry Ganyushin       : Spin-Orbit,Spin-Spin,Magnetic field MRCI
   Miquel Garcia          : C-PCM Hessian, Gaussian charge scheme
   Yang Guo               : DLPNO-NEVPT2, F12-NEVPT2, CIM, IAO-localization
   Andreas Hansen         : Spin unrestricted coupled pair/coupled cluster methods
   Benjamin Helmich-Paris : MC-RPA, TRAH-SCF, COSX integrals
   Lee Huntington         : MR-EOM, pCC
   Robert Izsak           : Overlap fitted RIJCOSX, COSX-SCS-MP3, EOM
   Marcus Kettner         : VPT2
   Christian Kollmar      : KDIIS, OOCD, Brueckner-CCSD(T), CCSD density, CASPT2, CASPT2-K
   Simone Kossmann        : Meta GGA functionals, TD-DFT gradient, OOMP2, MP2 Hessian
   Martin Krupicka        : Initial AUTO-CI
   Lucas Lang             : DCDCAS
   Marvin Lechner         : AUTO-CI (C++ implementation), FIC-MRCC
   Dagmar Lenk            : GEPOL surface, SMD
   Dimitrios Liakos       : Extrapolation schemes; Compound Job, initial MDCI parallelization
   Dimitrios Manganas     : Further ROCIS development; embedding schemes
   Dimitrios Pantazis     : SARC Basis sets
   Anastasios Papadopoulos: AUTO-CI, single reference methods and gradients
   Taras Petrenko         : DFT Hessian,TD-DFT gradient, ASA, ECA, R-Raman, ABS, FL, XAS/XES, NRVS
   Peter Pinski           : DLPNO-MP2, DLPNO-MP2 Gradient
   Christoph Reimann      : Effective Core Potentials
   Marius Retegan         : Local ZFS, SOC
   Christoph Riplinger    : Optimizer, TS searches, QM/MM, DLPNO-CCSD(T), (RO)-DLPNO pert. Triples
   Tobias Risthaus        : Range-separated hybrids, TD-DFT gradient, RPA, STAB
   Michael Roemelt        : Original ROCIS implementation
   Masaaki Saitow         : Open-shell DLPNO-CCSD energy and density
   Barbara Sandhoefer     : DKH picture change effects
   Avijit Sen             : IP-ROCIS
   Kantharuban Sivalingam : CASSCF convergence, NEVPT2, FIC-MRCI
   Bernardo de Souza      : ESD, SOC TD-DFT
   Georgi Stoychev        : AutoAux, RI-MP2 NMR
   Willem Van den Heuvel  : Paramagnetic NMR
   Boris Wezisla          : Elementary symmetry handling
   Frank Wennmohs         : Technical directorship


 We gratefully acknowledge several colleagues who have allowed us to
 interface, adapt or use parts of their codes:
   Stefan Grimme, W. Hujo, H. Kruse, P. Pracht,  : VdW corrections, initial TS optimization,
                  C. Bannwarth, S. Ehlert          DFT functionals, gCP, sTDA/sTD-DF
   Ed Valeev, F. Pavosevic, A. Kumar             : LibInt (2-el integral package), F12 methods
   Garnet Chan, S. Sharma, J. Yang, R. Olivares  : DMRG
   Ulf Ekstrom                                   : XCFun DFT Library
   Mihaly Kallay                                 : mrcc  (arbitrary order and MRCC methods)
   Jiri Pittner, Ondrej Demel                    : Mk-CCSD
   Frank Weinhold                                : gennbo (NPA and NBO analysis)
   Christopher J. Cramer and Donald G. Truhlar   : smd solvation model
   Lars Goerigk                                  : TD-DFT with DH, B97 family of functionals
   V. Asgeirsson, H. Jonsson                     : NEB implementation
   FAccTs GmbH                                   : IRC, NEB, NEB-TS, DLPNO-Multilevel, CI-OPT
                                                   MM, QMMM, 2- and 3-layer-ONIOM, Crystal-QMMM,
                                                   LR-CPCM, SF, NACMEs, symmetry and pop. for TD-DFT,
                                                   nearIR, NL-DFT gradient (VV10), updates on ESD,
                                                   ML-optimized integration grids
   S Lehtola, MJT Oliveira, MAL Marques          : LibXC Library
   Liviu Ungur et al                             : ANISO software


 Your calculation uses the libint2 library for the computation of 2-el integrals
 For citations please refer to: http://libint.valeyev.net

 Your ORCA version has been built with support for libXC version: 5.1.0
 For citations please refer to: https://tddft.org/programs/libxc/

 This ORCA versions uses:
   CBLAS   interface :  Fast vector & matrix operations
   LAPACKE interface :  Fast linear algebra routines
   SCALAPACK package :  Parallel linear algebra routines
   Shared memory     :  Shared parallel matrices
   BLAS/LAPACK       :  OpenBLAS 0.3.15  USE64BITINT DYNAMIC_ARCH NO_AFFINITY SkylakeX SINGLE_THREADED
        Core in use  :  SkylakeX
   Copyright (c) 2011-2014, The OpenBLAS Project


================================================================================

----- Orbital basis set information -----
Your calculation utilizes the basis: cc-pVTZ 
       H, B-Ne : Obtained from the ccRepo (grant-hill.group.shef.ac.uk/ccrepo) Feb. 2017
                 T. H. Dunning, Jr., J. Chem. Phys. 90, 1007 (1989)
            He : Obtained from the ccRepo (grant-hill.group.shef.ac.uk/ccrepo) Feb. 2017
                 D. E. Woon, T. H. Dunning, Jr., J. Chem. Phys. 100, 2975 (1994)
  Li-Be, Na-Mg : Obtained from the ccRepo (grant-hill.group.shef.ac.uk/ccrepo) Feb. 2017
                 B. P. Prascher, D. E. Woon, K. A. Peterson, T. H. Dunning, Jr., A. K. Wilson, Theor. Chem. Acc. 128, 69 (2011)
         Al-Ar : Obtained from the ccRepo (grant-hill.group.shef.ac.uk/ccrepo) Feb. 2017
                 D. E. Woon, T. H. Dunning, Jr., J. Chem. Phys. 98, 1358 (1993)
            Ca : Obtained from the Peterson Research Group Website (tyr0.chem.wsu.edu/~kipeters) Feb. 2017
                 J. Koput, K. A. Peterson, J. Phys. Chem. 106, 9595 (2002)
         Sc-Zn : Obtained from the ccRepo (grant-hill.group.shef.ac.uk/ccrepo) Feb. 2017
                 N. B. Balabanov, K. A. Peterson, J. Chem. Phys. 123, 064107 (2005)
                 N. B. Balabanov, K. A. Peterson, J. Chem. Phys. 125, 074110 (2006)
         Ga-Kr : Obtained from the ccRepo (grant-hill.group.shef.ac.uk/ccrepo) Feb. 2017
                 A. K. Wilson, D. E. Woon, K. A. Peterson, T. H. Dunning, Jr., J. Chem. Phys. 110, 7667 (1999)
             Y : Obtained from the ccRepo (grant-hill.group.shef.ac.uk/ccrepo) Feb. 2017
                 K. A. Peterson, D. Figgen, M. Dolg, H. Stoll, J. Chem. Phys. 126, 124101 (2007)
        Ag, Au : Obtained from the Peterson Research Group Website (tyr0.chem.wsu.edu/~kipeters) Feb. 2017
                 K. A. Peterson, C. Puzzarini, Theor. Chem. Acc. 114, 283 (2005)

----- AuxC basis set information -----
Your calculation utilizes the auxiliary basis: cc-pVTZ/C 
  Obtained from the EMSL Basis Set Exchange (bse.pnl.gov) Feb. 2017
  H-He, B-F, Al-Ar, Ga-Kr : F. Weigend, A. Kohn, C. Hattig, J. Chem. Phys. 116, 3175 (2002)
             Li-Be, Na-Mg : C. Haettig, Phys. Chem. Chem. Phys. 7, 59 (2005)
                       Ne : C. Haettig, Phys. Chem. Chem. Phys. 7, 59 (2005)
                            F. Weigend, A. Kohn, C. Hattig, J. Chem. Phys. 116, 3175 (2002)
                    Sc-Zn : J. G. Hill, J. A. Platts, J. Chem. Phys. 128, 044104 (2008)

================================================================================
                                        WARNINGS
                       Please study these warnings very carefully!
================================================================================


WARNING: No MP2 level density has been requested!
         To caclulate MP2 level properties use
         %mp2 Density relaxed end
         or
         %mp2 Density unrelaxed end

WARNING: Post HF methods need fully converged wavefunctions
  ===> : Setting SCFConvForced true
         You can overwrite this default with %scf ConvForced false 


INFO   : the flag for use of the SHARK integral package has been found!

================================================================================
                                       INPUT FILE
================================================================================
NAME = qm_input.vacu
|  1> ! RI-MP2 cc-pVTZ cc-pVTZ/c TightSCF KeepDens NoKeepInts
|  2> 
|  3> *xyz  0  1
|  4>     C     3.1853120  -19.7566734   -3.8810327
|  5>     C     3.0820225  -18.3603966   -4.5552863
|  6>     O     1.8812792  -17.7934928   -3.9199719
|  7>     C     1.6525004  -16.4566483   -4.0566664
|  8>     O     2.5584893  -15.6549556   -4.2314761
|  9>     C     0.4114432  -15.9378829   -3.4911458
| 10>     C    -0.6448503  -16.7378299   -3.3393468
| 11>     C    -0.9227283  -18.2466917   -3.5488037
| 12>     N    -1.8470865  -16.2187586   -2.8936852
| 13>     C    -2.1525863  -14.8857398   -2.9079619
| 14>     S    -3.5750403  -14.2428067   -2.4945644
| 15>     N    -1.1146601  -14.1084927   -3.2969499
| 16>     C     0.3351796  -14.4479328   -3.3098636
| 17>     C     1.0205321  -13.9946349   -2.0776926
| 18>     C     0.7457121  -14.4860365   -0.7942263
| 19>     C     1.4189146  -13.9917102    0.3808678
| 20>     C     2.5109172  -13.1442725    0.1237571
| 21>     C     2.8118795  -12.6996797   -1.1575341
| 22>     O     3.8163201  -11.8509593   -1.2844491
| 23>     C     2.0288813  -13.0965565   -2.2458100
| 24>     H     3.5804315  -19.6923959   -2.8597839
| 25>     H     3.8821553  -20.4253664   -4.4010825
| 26>     H     2.2587831  -20.3419882   -3.8347678
| 27>     H     3.9613087  -17.7767120   -4.2563586
| 28>     H     2.8899206  -18.3780773   -5.6350885
| 29>     H    -0.3795549  -18.5808407   -4.4412735
| 30>     H    -1.9715771  -18.5303013   -3.6993761
| 31>     H    -0.5279292  -18.8804222   -2.7452436
| 32>     H    -2.6398105  -16.8295281   -2.7371104
| 33>     H    -1.4524824  -13.1551559   -3.3516429
| 34>     H     0.7878228  -14.0033707   -4.2046643
| 35>     H     0.0297377  -15.2822019   -0.6128499
| 36>     H     1.2110085  -14.4055018    1.3631853
| 37>     H     3.1229909  -12.7656550    0.9370286
| 38>     H     4.0002112  -11.4437221   -2.1487819
| 39>     H     2.4232705  -12.7700910   -3.2035540
| 40> *
| 41> 
| 42>                          ****END OF INPUT****
================================================================================

                       ****************************
                       * Single Point Calculation *
                       ****************************

---------------------------------
CARTESIAN COORDINATES (ANGSTROEM)
---------------------------------
  C      3.185312  -19.756673   -3.881033
  C      3.082022  -18.360397   -4.555286
  O      1.881279  -17.793493   -3.919972
  C      1.652500  -16.456648   -4.056666
  O      2.558489  -15.654956   -4.231476
  C      0.411443  -15.937883   -3.491146
  C     -0.644850  -16.737830   -3.339347
  C     -0.922728  -18.246692   -3.548804
  N     -1.847087  -16.218759   -2.893685
  C     -2.152586  -14.885740   -2.907962
  S     -3.575040  -14.242807   -2.494564
  N     -1.114660  -14.108493   -3.296950
  C      0.335180  -14.447933   -3.309864
  C      1.020532  -13.994635   -2.077693
  C      0.745712  -14.486037   -0.794226
  C      1.418915  -13.991710    0.380868
  C      2.510917  -13.144272    0.123757
  C      2.811879  -12.699680   -1.157534
  O      3.816320  -11.850959   -1.284449
  C      2.028881  -13.096557   -2.245810
  H      3.580431  -19.692396   -2.859784
  H      3.882155  -20.425366   -4.401083
  H      2.258783  -20.341988   -3.834768
  H      3.961309  -17.776712   -4.256359
  H      2.889921  -18.378077   -5.635089
  H     -0.379555  -18.580841   -4.441274
  H     -1.971577  -18.530301   -3.699376
  H     -0.527929  -18.880422   -2.745244
  H     -2.639810  -16.829528   -2.737110
  H     -1.452482  -13.155156   -3.351643
  H      0.787823  -14.003371   -4.204664
  H      0.029738  -15.282202   -0.612850
  H      1.211008  -14.405502    1.363185
  H      3.122991  -12.765655    0.937029
  H      4.000211  -11.443722   -2.148782
  H      2.423271  -12.770091   -3.203554

----------------------------
CARTESIAN COORDINATES (A.U.)
----------------------------
  NO LB      ZA    FRAG     MASS         X           Y           Z
   0 C     6.0000    0    12.011    6.019367  -37.334702   -7.334089
   1 C     6.0000    0    12.011    5.824178  -34.696121   -8.608244
   2 O     8.0000    0    15.999    3.555102  -33.624828   -7.407673
   3 C     6.0000    0    12.011    3.122773  -31.098558   -7.665989
   4 O     8.0000    0    15.999    4.834844  -29.583579   -7.996331
   5 C     6.0000    0    12.011    0.777515  -30.118234   -6.597309
   6 C     6.0000    0    12.011   -1.218590  -31.629915   -6.310451
   7 C     6.0000    0    12.011   -1.743704  -34.481250   -6.706267
   8 N     7.0000    0    14.007   -3.490488  -30.649012   -5.468273
   9 C     6.0000    0    12.011   -4.067799  -28.129972   -5.495252
  10 S    16.0000    0    32.060   -6.755847  -26.915004   -4.714044
  11 N     7.0000    0    14.007   -2.106402  -26.661187   -6.230332
  12 C     6.0000    0    12.011    0.633398  -27.302636   -6.254736
  13 C     6.0000    0    12.011    1.928526  -26.446027   -3.926270
  14 C     6.0000    0    12.011    1.409192  -27.374642   -1.500870
  15 C     6.0000    0    12.011    2.681360  -26.440500    0.719736
  16 C     6.0000    0    12.011    4.744946  -24.839075    0.233867
  17 C     6.0000    0    12.011    5.313682  -23.998917   -2.187422
  18 O     8.0000    0    15.999    7.211800  -22.395068   -2.427257
  19 C     6.0000    0    12.011    3.834030  -24.748905   -4.243966
  20 H     1.0000    0     1.008    6.766035  -37.213235   -5.404208
  21 H     1.0000    0     1.008    7.336210  -38.598349   -8.316841
  22 H     1.0000    0     1.008    4.268481  -38.440787   -7.246661
  23 H     1.0000    0     1.008    7.485789  -33.593117   -8.043352
  24 H     1.0000    0     1.008    5.461158  -34.729533  -10.648774
  25 H     1.0000    0     1.008   -0.717255  -35.112700   -8.392791
  26 H     1.0000    0     1.008   -3.725741  -35.017195   -6.990808
  27 H     1.0000    0     1.008   -0.997642  -35.678827   -5.187759
  28 H     1.0000    0     1.008   -4.988519  -31.803199   -5.172389
  29 H     1.0000    0     1.008   -2.744794  -24.859642   -6.333687
  30 H     1.0000    0     1.008    1.488769  -26.462536   -7.945664
  31 H     1.0000    0     1.008    0.056196  -28.879176   -1.158118
  32 H     1.0000    0     1.008    2.288474  -27.222453    2.576047
  33 H     1.0000    0     1.008    5.901598  -24.123592    1.770727
  34 H     1.0000    0     1.008    7.559304  -21.625501   -4.060609
  35 H     1.0000    0     1.008    4.579318  -24.131975   -6.053840

--------------------------------
INTERNAL COORDINATES (ANGSTROEM)
--------------------------------
 C      0   0   0     0.000000000000     0.00000000     0.00000000
 C      1   0   0     1.553986981973     0.00000000     0.00000000
 O      2   1   0     1.472001622892   102.29781761     0.00000000
 C      3   2   1     1.363150154180   118.11973482   165.81464986
 O      4   3   2     1.222327903376   122.21933390   333.03446143
 C      4   3   2     1.459162109888   116.90692035   176.13439676
 C      6   4   3     1.333684406954   120.29793279   334.51449617
 C      7   6   4     1.548467728866   135.33215672     4.60221287
 N      7   6   4     1.383264673441   119.99700474   184.67839641
 C      9   7   6     1.367652394842   123.81596680    17.26399037
 S     10   9   7     1.614817589141   125.60240795   175.55174181
 N     10   9   7     1.353778237101   113.03746564   354.67426447
 C     12  10   9     1.489100903509   128.17699812   340.38973441
 C     13  12  10     1.481024108056   111.93603409   265.23622244
 C     14  13  12     1.401530345058   124.32135141    64.52040426
 C     15  14  13     1.441667867691   122.31981076   181.43479933
 C     16  15  14     1.405960968819   114.85359779   350.28388591
 C     17  16  15     1.389225756683   121.99353780     7.16225067
 O     18  17  16     1.321111143519   117.31684180   176.55717602
 C     14  13  12     1.360726416981   116.24023020   240.71707491
 H      1   2   3     1.096904794313   112.03980638   283.43950502
 H      1   2   3     1.096901411925   112.59829580   166.13963866
 H      1   2   3     1.096900022156   116.20667364    47.18484409
 H      2   1   3     1.096900042672   107.85411377   115.24535939
 H      2   1   3     1.096899511469   115.10515594   244.66533277
 H      8   7   6     1.096902566585   108.54393363   322.42933381
 H      8   7   6     1.096900295430   116.23812587   202.54980176
 H      8   7   6     1.096899954555   113.53361000    77.53479681
 H      9   7   6     1.012899990276   120.24743461   182.76389813
 H     12  10   9     1.012899938227   107.46837858   175.37774194
 H     13  12  10     1.096900004551   108.44930617   142.02958397
 H     15  14  13     1.086000038715   122.63347356     2.97519925
 H     16  15  14     1.086000048552   121.14674191   181.72176458
 H     17  16  15     1.085999980778   120.72642897   183.70561331
 H     19  18  17     0.973000135087   119.86186981   186.41562146
 H     20  14  13     1.086000061373   125.20307551   353.73765380

---------------------------
INTERNAL COORDINATES (A.U.)
---------------------------
 C      0   0   0     0.000000000000     0.00000000     0.00000000
 C      1   0   0     2.936609811608     0.00000000     0.00000000
 O      2   1   0     2.781679935954   102.29781761     0.00000000
 C      3   2   1     2.575980470812   118.11973482   165.81464986
 O      4   3   2     2.309864983230   122.21933390   333.03446143
 C      4   3   2     2.757416772683   116.90692035   176.13439676
 C      6   4   3     2.520298278224   120.29793279   334.51449617
 C      7   6   4     2.926179934773   135.33215672     4.60221287
 N      7   6   4     2.613991403531   119.99700474   184.67839641
 C      9   7   6     2.584488472652   123.81596680    17.26399037
 S     10   9   7     3.051562999715   125.60240795   175.55174181
 N     10   9   7     2.558270114184   113.03746564   354.67426447
 C     12  10   9     2.813992893407   128.17699812   340.38973441
 C     13  12  10     2.798729961960   111.93603409   265.23622244
 C     14  13  12     2.648508520540   124.32135141    64.52040426
 C     15  14  13     2.724357446010   122.31981076   181.43479933
 C     16  15  14     2.656881186051   114.85359779   350.28388591
 C     17  16  15     2.625256218320   121.99353780     7.16225067
 O     18  17  16     2.496538253722   117.31684180   176.55717602
 C     14  13  12     2.571400271286   116.24023020   240.71707491
 H      1   2   3     2.072849656238   112.03980638   283.43950502
 H      1   2   3     2.072843264451   112.59829580   166.13963866
 H      1   2   3     2.072840638167   116.20667364    47.18484409
 H      2   1   3     2.072840676938   107.85411377   115.24535939
 H      2   1   3     2.072839673108   115.10515594   244.66533277
 H      8   7   6     2.072845446441   108.54393363   322.42933381
 H      8   7   6     2.072841154581   116.23812587   202.54980176
 H      8   7   6     2.072840510420   113.53361000    77.53479681
 H      9   7   6     1.914103582673   120.24743461   182.76389813
 H     12  10   9     1.914103484315   107.46837858   175.37774194
 H     13  12  10     2.072840604898   108.44930617   142.02958397
 H     15  14  13     2.052242654600   122.63347356     2.97519925
 H     16  15  14     2.052242673188   121.14674191   181.72176458
 H     17  16  15     2.052242545114   120.72642897   183.70561331
 H     19  18  17     1.838703783582   119.86186981   186.41562146
 H     20  14  13     2.052242697417   125.20307551   353.73765380

---------------------
BASIS SET INFORMATION
---------------------
There are 5 groups of distinct atoms

 Group   1 Type C   : 18s5p2d1f contracted to 4s3p2d1f pattern {8811/311/11/1}
 Group   2 Type O   : 18s5p2d1f contracted to 4s3p2d1f pattern {8811/311/11/1}
 Group   3 Type N   : 18s5p2d1f contracted to 4s3p2d1f pattern {8811/311/11/1}
 Group   4 Type S   : 41s16p2d1f contracted to 5s4p2d1f pattern {13131311/7711/11/1}
 Group   5 Type H   : 5s2p1d contracted to 3s2p1d pattern {311/11/1}

Atom   0C    basis set group =>   1
Atom   1C    basis set group =>   1
Atom   2O    basis set group =>   2
Atom   3C    basis set group =>   1
Atom   4O    basis set group =>   2
Atom   5C    basis set group =>   1
Atom   6C    basis set group =>   1
Atom   7C    basis set group =>   1
Atom   8N    basis set group =>   3
Atom   9C    basis set group =>   1
Atom  10S    basis set group =>   4
Atom  11N    basis set group =>   3
Atom  12C    basis set group =>   1
Atom  13C    basis set group =>   1
Atom  14C    basis set group =>   1
Atom  15C    basis set group =>   1
Atom  16C    basis set group =>   1
Atom  17C    basis set group =>   1
Atom  18O    basis set group =>   2
Atom  19C    basis set group =>   1
Atom  20H    basis set group =>   5
Atom  21H    basis set group =>   5
Atom  22H    basis set group =>   5
Atom  23H    basis set group =>   5
Atom  24H    basis set group =>   5
Atom  25H    basis set group =>   5
Atom  26H    basis set group =>   5
Atom  27H    basis set group =>   5
Atom  28H    basis set group =>   5
Atom  29H    basis set group =>   5
Atom  30H    basis set group =>   5
Atom  31H    basis set group =>   5
Atom  32H    basis set group =>   5
Atom  33H    basis set group =>   5
Atom  34H    basis set group =>   5
Atom  35H    basis set group =>   5
---------------------------------
AUXILIARY/C BASIS SET INFORMATION
---------------------------------
There are 5 groups of distinct atoms

 Group   1 Type C   : 8s6p5d3f1g contracted to 8s6p5d3f1g pattern {11111111/111111/11111/111/1}
 Group   2 Type O   : 8s6p5d3f1g contracted to 8s6p5d3f1g pattern {11111111/111111/11111/111/1}
 Group   3 Type N   : 8s6p5d3f1g contracted to 8s6p5d3f1g pattern {11111111/111111/11111/111/1}
 Group   4 Type S   : 10s8p7d5f2g contracted to 10s8p7d5f2g pattern {1111111111/11111111/1111111/11111/11}
 Group   5 Type H   : 4s3p2d1f contracted to 4s3p2d1f pattern {1111/111/11/1}

Atom   0C    basis set group =>   1
Atom   1C    basis set group =>   1
Atom   2O    basis set group =>   2
Atom   3C    basis set group =>   1
Atom   4O    basis set group =>   2
Atom   5C    basis set group =>   1
Atom   6C    basis set group =>   1
Atom   7C    basis set group =>   1
Atom   8N    basis set group =>   3
Atom   9C    basis set group =>   1
Atom  10S    basis set group =>   4
Atom  11N    basis set group =>   3
Atom  12C    basis set group =>   1
Atom  13C    basis set group =>   1
Atom  14C    basis set group =>   1
Atom  15C    basis set group =>   1
Atom  16C    basis set group =>   1
Atom  17C    basis set group =>   1
Atom  18O    basis set group =>   2
Atom  19C    basis set group =>   1
Atom  20H    basis set group =>   5
Atom  21H    basis set group =>   5
Atom  22H    basis set group =>   5
Atom  23H    basis set group =>   5
Atom  24H    basis set group =>   5
Atom  25H    basis set group =>   5
Atom  26H    basis set group =>   5
Atom  27H    basis set group =>   5
Atom  28H    basis set group =>   5
Atom  29H    basis set group =>   5
Atom  30H    basis set group =>   5
Atom  31H    basis set group =>   5
Atom  32H    basis set group =>   5
Atom  33H    basis set group =>   5
Atom  34H    basis set group =>   5
Atom  35H    basis set group =>   5
------------------------------------------------------------------------------
                           ORCA GTO INTEGRAL CALCULATION
------------------------------------------------------------------------------
------------------------------------------------------------------------------
                   ___                                                        
                  /   \      - P O W E R E D   B Y -                         
                 /     \                                                     
                 |  |  |   _    _      __       _____    __    __             
                 |  |  |  | |  | |    /  \     |  _  \  |  |  /  |          
                  \  \/   | |  | |   /    \    | | | |  |  | /  /          
                 / \  \   | |__| |  /  /\  \   | |_| |  |  |/  /          
                |  |  |   |  __  | /  /__\  \  |    /   |      \           
                |  |  |   | |  | | |   __   |  |    \   |  |\   \          
                \     /   | |  | | |  |  |  |  | |\  \  |  | \   \       
                 \___/    |_|  |_| |__|  |__|  |_| \__\ |__|  \__/        
                                                                              
                      - O R C A' S   B I G   F R I E N D -                    
                                      &                                       
                       - I N T E G R A L  F E E D E R -                       
                                                                              
 v1 FN, 2020, v2 2021                                                         
------------------------------------------------------------------------------


Reading SHARK input file qm_input.vacu.SHARKINP.tmp ... ok
----------------------
SHARK INTEGRAL PACKAGE
----------------------

Number of atoms                             ...     36
Number of basis functions                   ...    828
Number of shells                            ...    298
Maximum angular momentum                    ...      3
Integral batch strategy                     ... SHARK/LIBINT Hybrid
RI-J (if used) integral strategy            ... SPLIT-RIJ (Revised 2003 algorithm where possible)
Printlevel                                  ...      1
Contraction scheme used                     ... SEGMENTED contraction
Coulomb Range Separation                    ... NOT USED
Exchange Range Separation                   ... NOT USED
Finite Nucleus Model                        ... NOT USED
Auxiliary Coulomb fitting basis             ... NOT available
Auxiliary J/K fitting basis                 ... NOT available
Auxiliary Correlation fitting basis         ... AVAILABLE
   # of basis functions in Aux-C            ...   2141
   # of shells in Aux-C                     ...    629
   Maximum angular momentum in Aux-C        ...      4
Auxiliary 'external' fitting basis          ... NOT available
Integral threshold                          ...     2.500000e-11
Primitive cut-off                           ...     2.500000e-12
Primitive pair pre-selection threshold      ...     2.500000e-12

Calculating pre-screening integrals         ... done (  0.6 sec) Dimension = 298
Organizing shell pair data                  ... done (  0.4 sec)
Shell pair information
Total number of shell pairs                 ...     44551
Shell pairs after pre-screening             ...     32051
Total number of primitive shell pairs       ...    234348
Primitive shell pairs kept                  ...     93096
          la=0 lb=0:   6423 shell pairs
          la=1 lb=0:   8932 shell pairs
          la=1 lb=1:   3151 shell pairs
          la=2 lb=0:   5097 shell pairs
          la=2 lb=1:   3494 shell pairs
          la=2 lb=2:    989 shell pairs
          la=3 lb=0:   1848 shell pairs
          la=3 lb=1:   1269 shell pairs
          la=3 lb=2:    706 shell pairs
          la=3 lb=3:    142 shell pairs

Calculating one electron integrals          ... done (  0.4 sec)
Calculating RI/C V-Matrix + Cholesky decomp.... done (  0.4 sec)
Calculating Nuclear repulsion               ... done (  0.0 sec) ENN=   1688.886729651977 Eh

SHARK setup successfully completed in   1.8 seconds

Maximum memory used throughout the entire GTOINT-calculation: 476.0 MB
-------------------------------------------------------------------------------
                                 ORCA SCF
-------------------------------------------------------------------------------

------------
SCF SETTINGS
------------
Hamiltonian:
 Ab initio Hamiltonian  Method          .... Hartree-Fock(GTOs)


General Settings:
 Integral files         IntName         .... qm_input.vacu
 Hartree-Fock type      HFTyp           .... RHF
 Total Charge           Charge          ....    0
 Multiplicity           Mult            ....    1
 Number of Electrons    NEL             ....  154
 Basis Dimension        Dim             ....  828
 Nuclear Repulsion      ENuc            ....   1688.8867296520 Eh

Convergence Acceleration:
 DIIS                   CNVDIIS         .... on
   Start iteration      DIISMaxIt       ....    12
   Startup error        DIISStart       ....  0.200000
   # of expansion vecs  DIISMaxEq       ....     5
   Bias factor          DIISBfac        ....   1.050
   Max. coefficient     DIISMaxC        ....  10.000
 Trust-Rad. Augm. Hess. CNVTRAH         .... auto
   Auto Start mean grad. ratio tolernc. ....  1.125000
   Auto Start start iteration           ....    20
   Auto Start num. interpolation iter.  ....    10
   Max. Number of Micro iterations      ....    16
   Max. Number of Macro iterations      .... Maxiter - #DIIS iter
   Number of Davidson start vectors     ....     2
   Converg. threshold I  (grad. norm)   ....   1.000e-05
   Converg. threshold II (energy diff.) ....   1.000e-08
   Grad. Scal. Fac. for Micro threshold ....   0.100
   Minimum threshold for Micro iter.    ....   0.010
   NR start threshold (gradient norm)   ....   0.001
   Initial trust radius                 ....   0.400
   Minimum AH scaling param. (alpha)    ....   1.000
   Maximum AH scaling param. (alpha)    .... 1000.000
   Orbital update algorithm             .... Taylor
   White noise on init. David. guess    .... on
   Maximum white noise                  ....   0.010
   Quad. conv. algorithm                .... NR
 SOSCF                  CNVSOSCF        .... on
   Start iteration      SOSCFMaxIt      ....   150
   Startup grad/error   SOSCFStart      ....  0.003300
 Level Shifting         CNVShift        .... on
   Level shift para.    LevelShift      ....    0.2500
   Turn off err/grad.   ShiftErr        ....    0.0010
 Zerner damping         CNVZerner       .... off
 Static damping         CNVDamp         .... on
   Fraction old density DampFac         ....    0.7000
   Max. Damping (<1)    DampMax         ....    0.9800
   Min. Damping (>=0)   DampMin         ....    0.0000
   Turn off err/grad.   DampErr         ....    0.1000
 Fernandez-Rico         CNVRico         .... off

SCF Procedure:
 Maximum # iterations   MaxIter         ....   125
 SCF integral mode      SCFMode         .... Direct
   Integral package                     .... SHARK and LIBINT hybrid scheme
 Reset frequency        DirectResetFreq ....    20
 Integral Threshold     Thresh          ....  2.500e-11 Eh
 Primitive CutOff       TCut            ....  2.500e-12 Eh

Convergence Tolerance:
 Convergence Check Mode ConvCheckMode   .... Total+1el-Energy
 Convergence forced     ConvForced      .... 1
 Energy Change          TolE            ....  1.000e-08 Eh
 1-El. energy change                    ....  1.000e-05 Eh
 Orbital Gradient       TolG            ....  1.000e-05
 Orbital Rotation angle TolX            ....  1.000e-05
 DIIS Error             TolErr          ....  5.000e-07


Diagonalization of the overlap matrix:
Smallest eigenvalue                        ... 3.662e-05
Time for diagonalization                   ...    0.151 sec
Threshold for overlap eigenvalues          ... 1.000e-08
Number of eigenvalues below threshold      ... 0
Time for construction of square roots      ...    0.065 sec
Total time needed                          ...    0.219 sec

Time for model grid setup =    1.442 sec

------------------------------
INITIAL GUESS: MODEL POTENTIAL
------------------------------
Loading Hartree-Fock densities                     ... done
Calculating cut-offs                               ... done
Initializing the effective Hamiltonian             ... done
Setting up the integral package (SHARK)            ... done
Starting the Coulomb interaction                   ... done (   4.4 sec)
Reading the grid                                   ... done
Mapping shells                                     ... done
Starting the XC term evaluation                    ... done (   1.4 sec)
Transforming the Hamiltonian                       ... done (   0.1 sec)
Diagonalizing the Hamiltonian                      ... done (   0.2 sec)
Back transforming the eigenvectors                 ... done (   0.0 sec)
Now organizing SCF variables                       ... done
                      ------------------
                      INITIAL GUESS DONE (   7.5 sec)
                      ------------------
--------------
SCF ITERATIONS
--------------
ITER       Energy         Delta-E        Max-DP      RMS-DP      [F,P]     Damp
               ***  Starting incremental Fock matrix formation  ***
  0  -1269.9602720525   0.000000000000 0.06010008  0.00048630  0.3264665 0.7000
  1  -1270.2359364613  -0.275664408814 0.05850035  0.00040738  0.1950916 0.7000
                               ***Turning on DIIS***
  2  -1270.4070375860  -0.171101124699 0.03302063  0.00026309  0.1096461 0.7000
  3  -1272.6398026366  -2.232765050618 0.06311038  0.00052675  0.0829768 0.0000
  4  -1270.7156825658   1.924120070812 0.02058268  0.00013765  0.0081852 0.0000
  5  -1270.7872873928  -0.071604827006 0.00497801  0.00006132  0.0049081 0.0000
  6  -1270.7632951301   0.023992262754 0.00184061  0.00002947  0.0035421 0.0000
                      *** Initiating the SOSCF procedure ***
                           *** Shutting down DIIS ***
                      *** Re-Reading the Fockian *** 
                      *** Removing any level shift *** 
ITER      Energy       Delta-E        Grad      Rot      Max-DP    RMS-DP
  7  -1270.77595760  -0.0126624718  0.001117  0.001117  0.000992  0.000015
               *** Restarting incremental Fock matrix formation ***
  8  -1270.77773773  -0.0017801268  0.000606  0.001503  0.000670  0.000008
  9  -1270.77775201  -0.0000142792  0.000266  0.001705  0.001169  0.000011
 10  -1270.77775786  -0.0000058557  0.000118  0.000179  0.000189  0.000002
 11  -1270.77775850  -0.0000006315  0.000035  0.000063  0.000066  0.000001
 12  -1270.77775860  -0.0000001017  0.000011  0.000044  0.000034  0.000000
 13  -1270.77775861  -0.0000000151  0.000005  0.000027  0.000016  0.000000
                  ***Gradient check signals convergence***
              ***Rediagonalizing the Fockian in SOSCF/NRSCF***

               *****************************************************
               *                     SUCCESS                       *
               *           SCF CONVERGED AFTER  14 CYCLES          *
               *****************************************************


----------------
TOTAL SCF ENERGY
----------------

Total Energy       :        -1270.77775861 Eh          -34579.62081 eV

Components:
Nuclear Repulsion  :         1688.88672965 Eh           45956.94432 eV
Electronic Energy  :        -2959.66448827 Eh          -80536.56513 eV
One Electron Energy:        -5099.45291809 Eh         -138763.16848 eV
Two Electron Energy:         2139.78842982 Eh           58226.60336 eV

Virial components:
Potential Energy   :        -2540.34876138 Eh          -69126.40412 eV
Kinetic Energy     :         1269.57100276 Eh           34546.78331 eV
Virial Ratio       :            2.00095052


---------------
SCF CONVERGENCE
---------------

  Last Energy change         ...   -2.9213e-09  Tolerance :   1.0000e-08
  Last MAX-Density change    ...    2.4234e-06  Tolerance :   1.0000e-07
  Last RMS-Density change    ...    3.5329e-08  Tolerance :   5.0000e-09
  Last Orbital Gradient      ...    1.7229e-06  Tolerance :   1.0000e-05
  Last Orbital Rotation      ...    4.7639e-06  Tolerance :   1.0000e-05

             **** THE GBW FILE WAS UPDATED (qm_input.vacu.gbw) ****
             **** DENSITY qm_input.vacu.scfp WAS UPDATED ****
             **** ENERGY FILE WAS UPDATED (qm_input.vacu.en.tmp) ****
             **** THE GBW FILE WAS UPDATED (qm_input.vacu.gbw) ****
             **** DENSITY qm_input.vacu.scfp WAS UPDATED ****
----------------
ORBITAL ENERGIES
----------------

  NO   OCC          E(Eh)            E(eV) 
   0   2.0000     -91.885855     -2500.3412 
   1   2.0000     -20.602244      -560.6156 
   2   2.0000     -20.585970      -560.1727 
   3   2.0000     -20.537951      -558.8661 
   4   2.0000     -15.617842      -424.9831 
   5   2.0000     -15.593428      -424.3187 
   6   2.0000     -11.383312      -309.7557 
   7   2.0000     -11.369565      -309.3816 
   8   2.0000     -11.329454      -308.2901 
   9   2.0000     -11.308648      -307.7240 
  10   2.0000     -11.300916      -307.5136 
  11   2.0000     -11.297599      -307.4233 
  12   2.0000     -11.261014      -306.4278 
  13   2.0000     -11.248188      -306.0788 
  14   2.0000     -11.247765      -306.0672 
  15   2.0000     -11.242595      -305.9266 
  16   2.0000     -11.236892      -305.7714 
  17   2.0000     -11.230656      -305.6017 
  18   2.0000     -11.224067      -305.4224 
  19   2.0000     -11.223875      -305.4172 
  20   2.0000      -8.892553      -241.9787 
  21   2.0000      -6.574313      -178.8962 
  22   2.0000      -6.572101      -178.8360 
  23   2.0000      -6.571501      -178.8196 
  24   2.0000      -1.448990       -39.4290 
  25   2.0000      -1.416432       -38.5431 
  26   2.0000      -1.352157       -36.7941 
  27   2.0000      -1.343408       -36.5560 
  28   2.0000      -1.233293       -33.5596 
  29   2.0000      -1.157650       -31.5013 
  30   2.0000      -1.122067       -30.5330 
  31   2.0000      -1.047073       -28.4923 
  32   2.0000      -1.034508       -28.1504 
  33   2.0000      -1.006190       -27.3798 
  34   2.0000      -0.996672       -27.1208 
  35   2.0000      -0.987517       -26.8717 
  36   2.0000      -0.927365       -25.2349 
  37   2.0000      -0.888508       -24.1775 
  38   2.0000      -0.851909       -23.1816 
  39   2.0000      -0.846627       -23.0379 
  40   2.0000      -0.826300       -22.4848 
  41   2.0000      -0.811548       -22.0833 
  42   2.0000      -0.757505       -20.6128 
  43   2.0000      -0.746419       -20.3111 
  44   2.0000      -0.729843       -19.8600 
  45   2.0000      -0.694505       -18.8984 
  46   2.0000      -0.682589       -18.5742 
  47   2.0000      -0.672033       -18.2870 
  48   2.0000      -0.667178       -18.1548 
  49   2.0000      -0.656129       -17.8542 
  50   2.0000      -0.641084       -17.4448 
  51   2.0000      -0.636313       -17.3149 
  52   2.0000      -0.634775       -17.2731 
  53   2.0000      -0.608155       -16.5488 
  54   2.0000      -0.599432       -16.3114 
  55   2.0000      -0.593457       -16.1488 
  56   2.0000      -0.592417       -16.1205 
  57   2.0000      -0.577258       -15.7080 
  58   2.0000      -0.566544       -15.4165 
  59   2.0000      -0.561081       -15.2678 
  60   2.0000      -0.555291       -15.1102 
  61   2.0000      -0.544544       -14.8178 
  62   2.0000      -0.531737       -14.4693 
  63   2.0000      -0.527216       -14.3463 
  64   2.0000      -0.517847       -14.0913 
  65   2.0000      -0.513869       -13.9831 
  66   2.0000      -0.505931       -13.7671 
  67   2.0000      -0.492193       -13.3933 
  68   2.0000      -0.475574       -12.9410 
  69   2.0000      -0.465317       -12.6619 
  70   2.0000      -0.453290       -12.3346 
  71   2.0000      -0.450151       -12.2492 
  72   2.0000      -0.359519        -9.7830 
  73   2.0000      -0.343760        -9.3542 
  74   2.0000      -0.328550        -8.9403 
  75   2.0000      -0.320769        -8.7286 
  76   2.0000      -0.299207        -8.1418 
  77   0.0000       0.082450         2.2436 
  78   0.0000       0.117223         3.1898 
  79   0.0000       0.128219         3.4890 
  80   0.0000       0.131656         3.5825 
  81   0.0000       0.139374         3.7926 
  82   0.0000       0.139685         3.8010 
  83   0.0000       0.153324         4.1722 
  84   0.0000       0.160298         4.3619 
  85   0.0000       0.167182         4.5492 
  86   0.0000       0.170821         4.6483 
  87   0.0000       0.175777         4.7831 
  88   0.0000       0.188726         5.1355 
  89   0.0000       0.195204         5.3118 
  90   0.0000       0.199975         5.4416 
  91   0.0000       0.207651         5.6505 
  92   0.0000       0.213322         5.8048 
  93   0.0000       0.224653         6.1131 
  94   0.0000       0.226674         6.1681 
  95   0.0000       0.237334         6.4582 
  96   0.0000       0.242872         6.6089 
  97   0.0000       0.251817         6.8523 
  98   0.0000       0.259342         7.0571 
  99   0.0000       0.267590         7.2815 
 100   0.0000       0.295778         8.0485 
 101   0.0000       0.307701         8.3730 
 102   0.0000       0.314791         8.5659 
 103   0.0000       0.319742         8.7006 
 104   0.0000       0.323926         8.8145 
 105   0.0000       0.334902         9.1132 
 106   0.0000       0.338949         9.2233 
 107   0.0000       0.343685         9.3521 
 108   0.0000       0.363706         9.8969 
 109   0.0000       0.370711        10.0876 
 110   0.0000       0.374693        10.1959 
 111   0.0000       0.379371        10.3232 
 112   0.0000       0.391216        10.6455 
 113   0.0000       0.392986        10.6937 
 114   0.0000       0.400320        10.8933 
 115   0.0000       0.404909        11.0181 
 116   0.0000       0.414269        11.2728 
 117   0.0000       0.419590        11.4176 
 118   0.0000       0.436438        11.8761 
 119   0.0000       0.441048        12.0015 
 120   0.0000       0.444715        12.1013 
 121   0.0000       0.455534        12.3957 
 122   0.0000       0.459023        12.4906 
 123   0.0000       0.466263        12.6877 
 124   0.0000       0.470786        12.8107 
 125   0.0000       0.475373        12.9356 
 126   0.0000       0.482112        13.1189 
 127   0.0000       0.485938        13.2230 
 128   0.0000       0.493372        13.4253 
 129   0.0000       0.504674        13.7329 
 130   0.0000       0.505994        13.7688 
 131   0.0000       0.514203        13.9922 
 132   0.0000       0.523517        14.2456 
 133   0.0000       0.523920        14.2566 
 134   0.0000       0.529345        14.4042 
 135   0.0000       0.535558        14.5733 
 136   0.0000       0.541325        14.7302 
 137   0.0000       0.546771        14.8784 
 138   0.0000       0.554204        15.0807 
 139   0.0000       0.558018        15.1844 
 140   0.0000       0.562620        15.3097 
 141   0.0000       0.567916        15.4538 
 142   0.0000       0.569056        15.4848 
 143   0.0000       0.573000        15.5921 
 144   0.0000       0.574917        15.6443 
 145   0.0000       0.584497        15.9050 
 146   0.0000       0.586236        15.9523 
 147   0.0000       0.589775        16.0486 
 148   0.0000       0.590190        16.0599 
 149   0.0000       0.597185        16.2502 
 150   0.0000       0.599437        16.3115 
 151   0.0000       0.607270        16.5247 
 152   0.0000       0.610521        16.6131 
 153   0.0000       0.613698        16.6996 
 154   0.0000       0.619422        16.8553 
 155   0.0000       0.623684        16.9713 
 156   0.0000       0.627546        17.0764 
 157   0.0000       0.628262        17.0959 
 158   0.0000       0.637681        17.3522 
 159   0.0000       0.644260        17.5312 
 160   0.0000       0.645863        17.5748 
 161   0.0000       0.649912        17.6850 
 162   0.0000       0.655057        17.8250 
 163   0.0000       0.662489        18.0273 
 164   0.0000       0.665582        18.1114 
 165   0.0000       0.672938        18.3116 
 166   0.0000       0.674349        18.3500 
 167   0.0000       0.679252        18.4834 
 168   0.0000       0.682494        18.5716 
 169   0.0000       0.686785        18.6884 
 170   0.0000       0.695623        18.9289 
 171   0.0000       0.701871        19.0989 
 172   0.0000       0.709545        19.3077 
 173   0.0000       0.718159        19.5421 
 174   0.0000       0.735218        20.0063 
 175   0.0000       0.739511        20.1231 
 176   0.0000       0.741140        20.1674 
 177   0.0000       0.747884        20.3510 
 178   0.0000       0.752596        20.4792 
 179   0.0000       0.762994        20.7621 
 180   0.0000       0.765368        20.8267 
 181   0.0000       0.775609        21.1054 
 182   0.0000       0.782439        21.2913 
 183   0.0000       0.795163        21.6375 
 184   0.0000       0.795894        21.6574 
 185   0.0000       0.804191        21.8831 
 186   0.0000       0.815486        22.1905 
 187   0.0000       0.827927        22.5291 
 188   0.0000       0.831083        22.6149 
 189   0.0000       0.836217        22.7546 
 190   0.0000       0.843169        22.9438 
 191   0.0000       0.855526        23.2800 
 192   0.0000       0.857269        23.3275 
 193   0.0000       0.858535        23.3619 
 194   0.0000       0.873071        23.7575 
 195   0.0000       0.878523        23.9058 
 196   0.0000       0.895376        24.3644 
 197   0.0000       0.902679        24.5632 
 198   0.0000       0.910454        24.7747 
 199   0.0000       0.918359        24.9898 
 200   0.0000       0.920112        25.0375 
 201   0.0000       0.923463        25.1287 
 202   0.0000       0.930228        25.3128 
 203   0.0000       0.937727        25.5168 
 204   0.0000       0.952056        25.9068 
 205   0.0000       0.955946        26.0126 
 206   0.0000       0.962504        26.1911 
 207   0.0000       0.968202        26.3461 
 208   0.0000       0.977331        26.5945 
 209   0.0000       0.982435        26.7334 
 210   0.0000       0.987450        26.8699 
 211   0.0000       0.995552        27.0903 
 212   0.0000       1.008497        27.4426 
 213   0.0000       1.009505        27.4700 
 214   0.0000       1.017077        27.6761 
 215   0.0000       1.022023        27.8107 
 216   0.0000       1.028325        27.9822 
 217   0.0000       1.037412        28.2294 
 218   0.0000       1.046894        28.4874 
 219   0.0000       1.048174        28.5223 
 220   0.0000       1.050705        28.5911 
 221   0.0000       1.067895        29.0589 
 222   0.0000       1.071689        29.1621 
 223   0.0000       1.074970        29.2514 
 224   0.0000       1.082188        29.4478 
 225   0.0000       1.086380        29.5619 
 226   0.0000       1.090317        29.6690 
 227   0.0000       1.100739        29.9526 
 228   0.0000       1.113214        30.2921 
 229   0.0000       1.122143        30.5351 
 230   0.0000       1.126872        30.6637 
 231   0.0000       1.138166        30.9711 
 232   0.0000       1.141691        31.0670 
 233   0.0000       1.150694        31.3120 
 234   0.0000       1.164478        31.6871 
 235   0.0000       1.170950        31.8632 
 236   0.0000       1.179015        32.0826 
 237   0.0000       1.182361        32.1737 
 238   0.0000       1.189339        32.3636 
 239   0.0000       1.197410        32.5832 
 240   0.0000       1.199482        32.6396 
 241   0.0000       1.209015        32.8990 
 242   0.0000       1.212084        32.9825 
 243   0.0000       1.222004        33.2524 
 244   0.0000       1.223670        33.2978 
 245   0.0000       1.228597        33.4318 
 246   0.0000       1.239625        33.7319 
 247   0.0000       1.242704        33.8157 
 248   0.0000       1.248146        33.9638 
 249   0.0000       1.258075        34.2340 
 250   0.0000       1.260860        34.3097 
 251   0.0000       1.265090        34.4249 
 252   0.0000       1.273060        34.6417 
 253   0.0000       1.285479        34.9797 
 254   0.0000       1.290003        35.1028 
 255   0.0000       1.291785        35.1513 
 256   0.0000       1.304136        35.4873 
 257   0.0000       1.307046        35.5665 
 258   0.0000       1.322112        35.9765 
 259   0.0000       1.328263        36.1439 
 260   0.0000       1.331976        36.2449 
 261   0.0000       1.338457        36.4213 
 262   0.0000       1.349502        36.7218 
 263   0.0000       1.351914        36.7875 
 264   0.0000       1.363080        37.0913 
 265   0.0000       1.370623        37.2965 
 266   0.0000       1.382217        37.6120 
 267   0.0000       1.391913        37.8759 
 268   0.0000       1.406547        38.2741 
 269   0.0000       1.413949        38.4755 
 270   0.0000       1.417568        38.5740 
 271   0.0000       1.425718        38.7958 
 272   0.0000       1.441360        39.2214 
 273   0.0000       1.445715        39.3399 
 274   0.0000       1.450406        39.4676 
 275   0.0000       1.460189        39.7338 
 276   0.0000       1.463106        39.8131 
 277   0.0000       1.468263        39.9535 
 278   0.0000       1.478781        40.2397 
 279   0.0000       1.484681        40.4002 
 280   0.0000       1.487132        40.4669 
 281   0.0000       1.502696        40.8904 
 282   0.0000       1.505437        40.9650 
 283   0.0000       1.518712        41.3262 
 284   0.0000       1.522894        41.4401 
 285   0.0000       1.530170        41.6380 
 286   0.0000       1.538760        41.8718 
 287   0.0000       1.544919        42.0394 
 288   0.0000       1.545613        42.0583 
 289   0.0000       1.550879        42.2016 
 290   0.0000       1.554206        42.2921 
 291   0.0000       1.558339        42.4046 
 292   0.0000       1.567925        42.6654 
 293   0.0000       1.569157        42.6989 
 294   0.0000       1.579948        42.9926 
 295   0.0000       1.589919        43.2639 
 296   0.0000       1.595154        43.4063 
 297   0.0000       1.598775        43.5049 
 298   0.0000       1.616328        43.9825 
 299   0.0000       1.623261        44.1712 
 300   0.0000       1.626449        44.2579 
 301   0.0000       1.646073        44.7919 
 302   0.0000       1.649318        44.8802 
 303   0.0000       1.650518        44.9129 
 304   0.0000       1.660252        45.1778 
 305   0.0000       1.667273        45.3688 
 306   0.0000       1.673433        45.5364 
 307   0.0000       1.685690        45.8700 
 308   0.0000       1.691435        46.0263 
 309   0.0000       1.692800        46.0634 
 310   0.0000       1.716285        46.7025 
 311   0.0000       1.722573        46.8736 
 312   0.0000       1.733406        47.1684 
 313   0.0000       1.746724        47.5308 
 314   0.0000       1.758078        47.8397 
 315   0.0000       1.763927        47.9989 
 316   0.0000       1.775722        48.3198 
 317   0.0000       1.776811        48.3495 
 318   0.0000       1.789778        48.7023 
 319   0.0000       1.801865        49.0312 
 320   0.0000       1.807529        49.1854 
 321   0.0000       1.828142        49.7463 
 322   0.0000       1.856026        50.5050 
 323   0.0000       1.857316        50.5401 
 324   0.0000       1.861632        50.6576 
 325   0.0000       1.878326        51.1119 
 326   0.0000       1.900430        51.7133 
 327   0.0000       1.907273        51.8995 
 328   0.0000       1.917458        52.1767 
 329   0.0000       1.920582        52.2617 
 330   0.0000       1.936705        52.7004 
 331   0.0000       1.946757        52.9739 
 332   0.0000       1.951926        53.1146 
 333   0.0000       1.971818        53.6559 
 334   0.0000       1.976130        53.7732 
 335   0.0000       1.990274        54.1581 
 336   0.0000       1.996386        54.3244 
 337   0.0000       2.005221        54.5648 
 338   0.0000       2.014933        54.8291 
 339   0.0000       2.027533        55.1720 
 340   0.0000       2.030907        55.2638 
 341   0.0000       2.039177        55.4888 
 342   0.0000       2.054441        55.9042 
 343   0.0000       2.070680        56.3461 
 344   0.0000       2.088260        56.8244 
 345   0.0000       2.107173        57.3391 
 346   0.0000       2.121354        57.7250 
 347   0.0000       2.133078        58.0440 
 348   0.0000       2.152828        58.5814 
 349   0.0000       2.154941        58.6389 
 350   0.0000       2.196761        59.7769 
 351   0.0000       2.204082        59.9761 
 352   0.0000       2.219912        60.4069 
 353   0.0000       2.222347        60.4731 
 354   0.0000       2.244450        61.0746 
 355   0.0000       2.261394        61.5357 
 356   0.0000       2.271632        61.8142 
 357   0.0000       2.283568        62.1390 
 358   0.0000       2.300889        62.6104 
 359   0.0000       2.304122        62.6983 
 360   0.0000       2.321261        63.1647 
 361   0.0000       2.324720        63.2589 
 362   0.0000       2.339498        63.6610 
 363   0.0000       2.344433        63.7953 
 364   0.0000       2.367481        64.4224 
 365   0.0000       2.375824        64.6495 
 366   0.0000       2.389051        65.0094 
 367   0.0000       2.397711        65.2450 
 368   0.0000       2.412974        65.6604 
 369   0.0000       2.421535        65.8933 
 370   0.0000       2.430381        66.1340 
 371   0.0000       2.450165        66.6724 
 372   0.0000       2.455241        66.8105 
 373   0.0000       2.466714        67.1227 
 374   0.0000       2.486808        67.6695 
 375   0.0000       2.516489        68.4772 
 376   0.0000       2.528711        68.8097 
 377   0.0000       2.534138        68.9574 
 378   0.0000       2.551478        69.4293 
 379   0.0000       2.561068        69.6902 
 380   0.0000       2.576911        70.1213 
 381   0.0000       2.585373        70.3516 
 382   0.0000       2.591261        70.5118 
 383   0.0000       2.599456        70.7348 
 384   0.0000       2.615617        71.1745 
 385   0.0000       2.621067        71.3229 
 386   0.0000       2.632585        71.6363 
 387   0.0000       2.651937        72.1629 
 388   0.0000       2.653368        72.2018 
 389   0.0000       2.665363        72.5282 
 390   0.0000       2.680802        72.9483 
 391   0.0000       2.694216        73.3133 
 392   0.0000       2.707768        73.6821 
 393   0.0000       2.715410        73.8901 
 394   0.0000       2.718753        73.9810 
 395   0.0000       2.725821        74.1734 
 396   0.0000       2.737573        74.4931 
 397   0.0000       2.740336        74.5683 
 398   0.0000       2.752240        74.8923 
 399   0.0000       2.762322        75.1666 
 400   0.0000       2.767230        75.3002 
 401   0.0000       2.795417        76.0672 
 402   0.0000       2.804198        76.3061 
 403   0.0000       2.808728        76.4294 
 404   0.0000       2.810787        76.4854 
 405   0.0000       2.821482        76.7764 
 406   0.0000       2.823650        76.8354 
 407   0.0000       2.834146        77.1210 
 408   0.0000       2.844848        77.4122 
 409   0.0000       2.851165        77.5841 
 410   0.0000       2.873298        78.1864 
 411   0.0000       2.881343        78.4053 
 412   0.0000       2.889193        78.6190 
 413   0.0000       2.894182        78.7547 
 414   0.0000       2.902172        78.9721 
 415   0.0000       2.907892        79.1278 
 416   0.0000       2.927215        79.6536 
 417   0.0000       2.937541        79.9345 
 418   0.0000       2.952201        80.3335 
 419   0.0000       2.954473        80.3953 
 420   0.0000       2.959271        80.5258 
 421   0.0000       2.976507        80.9949 
 422   0.0000       2.988290        81.3155 
 423   0.0000       2.999428        81.6186 
 424   0.0000       3.010166        81.9108 
 425   0.0000       3.019000        82.1512 
 426   0.0000       3.032064        82.5067 
 427   0.0000       3.040677        82.7410 
 428   0.0000       3.046732        82.9058 
 429   0.0000       3.057139        83.1890 
 430   0.0000       3.059309        83.2480 
 431   0.0000       3.065704        83.4221 
 432   0.0000       3.071342        83.5755 
 433   0.0000       3.083665        83.9108 
 434   0.0000       3.086794        83.9959 
 435   0.0000       3.099884        84.3521 
 436   0.0000       3.102920        84.4348 
 437   0.0000       3.108566        84.5884 
 438   0.0000       3.114038        84.7373 
 439   0.0000       3.116864        84.8142 
 440   0.0000       3.128802        85.1390 
 441   0.0000       3.137798        85.3838 
 442   0.0000       3.146310        85.6155 
 443   0.0000       3.151470        85.7559 
 444   0.0000       3.155801        85.8737 
 445   0.0000       3.165675        86.1424 
 446   0.0000       3.173335        86.3508 
 447   0.0000       3.176084        86.4256 
 448   0.0000       3.178008        86.4780 
 449   0.0000       3.196763        86.9883 
 450   0.0000       3.202887        87.1550 
 451   0.0000       3.210887        87.3727 
 452   0.0000       3.218732        87.5862 
 453   0.0000       3.219847        87.6165 
 454   0.0000       3.226333        87.7930 
 455   0.0000       3.232924        87.9723 
 456   0.0000       3.245171        88.3056 
 457   0.0000       3.247413        88.3666 
 458   0.0000       3.252270        88.4988 
 459   0.0000       3.265534        88.8597 
 460   0.0000       3.271902        89.0330 
 461   0.0000       3.277824        89.1941 
 462   0.0000       3.280849        89.2764 
 463   0.0000       3.283990        89.3619 
 464   0.0000       3.291234        89.5590 
 465   0.0000       3.297627        89.7330 
 466   0.0000       3.304484        89.9196 
 467   0.0000       3.321395        90.3798 
 468   0.0000       3.327353        90.5419 
 469   0.0000       3.329996        90.6138 
 470   0.0000       3.339138        90.8626 
 471   0.0000       3.341218        90.9192 
 472   0.0000       3.343162        90.9721 
 473   0.0000       3.350185        91.1632 
 474   0.0000       3.360262        91.4374 
 475   0.0000       3.363046        91.5131 
 476   0.0000       3.375356        91.8481 
 477   0.0000       3.381129        92.0052 
 478   0.0000       3.386739        92.1579 
 479   0.0000       3.393602        92.3446 
 480   0.0000       3.398731        92.4842 
 481   0.0000       3.406505        92.6957 
 482   0.0000       3.411054        92.8195 
 483   0.0000       3.414287        92.9075 
 484   0.0000       3.419250        93.0425 
 485   0.0000       3.422226        93.1235 
 486   0.0000       3.431484        93.3754 
 487   0.0000       3.436282        93.5060 
 488   0.0000       3.442975        93.6881 
 489   0.0000       3.443420        93.7002 
 490   0.0000       3.449530        93.8665 
 491   0.0000       3.464954        94.2862 
 492   0.0000       3.468482        94.3822 
 493   0.0000       3.475322        94.5683 
 494   0.0000       3.481558        94.7380 
 495   0.0000       3.486108        94.8618 
 496   0.0000       3.487674        94.9044 
 497   0.0000       3.498533        95.1999 
 498   0.0000       3.502099        95.2970 
 499   0.0000       3.510630        95.5291 
 500   0.0000       3.524472        95.9057 
 501   0.0000       3.527407        95.9856 
 502   0.0000       3.534934        96.1904 
 503   0.0000       3.540896        96.3527 
 504   0.0000       3.547940        96.5444 
 505   0.0000       3.553677        96.7005 
 506   0.0000       3.558150        96.8222 
 507   0.0000       3.567633        97.0802 
 508   0.0000       3.568662        97.1082 
 509   0.0000       3.582376        97.4814 
 510   0.0000       3.591603        97.7325 
 511   0.0000       3.595487        97.8382 
 512   0.0000       3.604968        98.0962 
 513   0.0000       3.612068        98.2894 
 514   0.0000       3.627774        98.7167 
 515   0.0000       3.632463        98.8444 
 516   0.0000       3.637446        98.9799 
 517   0.0000       3.653914        99.4281 
 518   0.0000       3.659393        99.5771 
 519   0.0000       3.665468        99.7425 
 520   0.0000       3.671363        99.9029 
 521   0.0000       3.676478       100.0420 
 522   0.0000       3.683853       100.2427 
 523   0.0000       3.684212       100.2525 
 524   0.0000       3.687318       100.3370 
 525   0.0000       3.702054       100.7380 
 526   0.0000       3.708381       100.9102 
 527   0.0000       3.711969       101.0078 
 528   0.0000       3.716078       101.1196 
 529   0.0000       3.723697       101.3269 
 530   0.0000       3.729535       101.4858 
 531   0.0000       3.733007       101.5803 
 532   0.0000       3.743819       101.8745 
 533   0.0000       3.747673       101.9794 
 534   0.0000       3.753313       102.1328 
 535   0.0000       3.760188       102.3199 
 536   0.0000       3.761771       102.3630 
 537   0.0000       3.772505       102.6551 
 538   0.0000       3.777401       102.7883 
 539   0.0000       3.781179       102.8911 
 540   0.0000       3.784044       102.9691 
 541   0.0000       3.794968       103.2663 
 542   0.0000       3.799905       103.4007 
 543   0.0000       3.809561       103.6634 
 544   0.0000       3.815149       103.8155 
 545   0.0000       3.822780       104.0231 
 546   0.0000       3.825545       104.0984 
 547   0.0000       3.833762       104.3220 
 548   0.0000       3.839289       104.4724 
 549   0.0000       3.851443       104.8031 
 550   0.0000       3.857075       104.9564 
 551   0.0000       3.858509       104.9954 
 552   0.0000       3.872184       105.3675 
 553   0.0000       3.880795       105.6018 
 554   0.0000       3.888685       105.8165 
 555   0.0000       3.893591       105.9500 
 556   0.0000       3.907024       106.3155 
 557   0.0000       3.920073       106.6706 
 558   0.0000       3.936338       107.1132 
 559   0.0000       3.942399       107.2781 
 560   0.0000       3.949419       107.4691 
 561   0.0000       3.959934       107.7553 
 562   0.0000       3.970602       108.0456 
 563   0.0000       3.977728       108.2395 
 564   0.0000       3.988140       108.5228 
 565   0.0000       3.996859       108.7601 
 566   0.0000       4.003143       108.9311 
 567   0.0000       4.008306       109.0715 
 568   0.0000       4.010204       109.1232 
 569   0.0000       4.016836       109.3037 
 570   0.0000       4.029957       109.6607 
 571   0.0000       4.045010       110.0703 
 572   0.0000       4.047115       110.1276 
 573   0.0000       4.052530       110.2750 
 574   0.0000       4.063389       110.5704 
 575   0.0000       4.067780       110.6899 
 576   0.0000       4.079943       111.0209 
 577   0.0000       4.096122       111.4611 
 578   0.0000       4.096227       111.4640 
 579   0.0000       4.108108       111.7873 
 580   0.0000       4.118476       112.0694 
 581   0.0000       4.137287       112.5813 
 582   0.0000       4.139268       112.6352 
 583   0.0000       4.145954       112.8171 
 584   0.0000       4.149587       112.9160 
 585   0.0000       4.153835       113.0316 
 586   0.0000       4.161108       113.2295 
 587   0.0000       4.168354       113.4267 
 588   0.0000       4.175003       113.6076 
 589   0.0000       4.181555       113.7859 
 590   0.0000       4.183187       113.8303 
 591   0.0000       4.187196       113.9394 
 592   0.0000       4.190232       114.0220 
 593   0.0000       4.201262       114.3221 
 594   0.0000       4.206347       114.4605 
 595   0.0000       4.215349       114.7055 
 596   0.0000       4.226189       115.0005 
 597   0.0000       4.230415       115.1154 
 598   0.0000       4.237488       115.3079 
 599   0.0000       4.247001       115.5668 
 600   0.0000       4.255659       115.8024 
 601   0.0000       4.265510       116.0704 
 602   0.0000       4.276295       116.3639 
 603   0.0000       4.288252       116.6893 
 604   0.0000       4.296181       116.9050 
 605   0.0000       4.316470       117.4571 
 606   0.0000       4.319244       117.5326 
 607   0.0000       4.321477       117.5934 
 608   0.0000       4.326253       117.7233 
 609   0.0000       4.332995       117.9068 
 610   0.0000       4.343716       118.1985 
 611   0.0000       4.344374       118.2164 
 612   0.0000       4.358334       118.5963 
 613   0.0000       4.359261       118.6215 
 614   0.0000       4.365013       118.7780 
 615   0.0000       4.378494       119.1449 
 616   0.0000       4.387506       119.3901 
 617   0.0000       4.389806       119.4527 
 618   0.0000       4.394567       119.5822 
 619   0.0000       4.408402       119.9587 
 620   0.0000       4.415913       120.1631 
 621   0.0000       4.421598       120.3178 
 622   0.0000       4.433530       120.6425 
 623   0.0000       4.444129       120.9309 
 624   0.0000       4.449479       121.0765 
 625   0.0000       4.456170       121.2585 
 626   0.0000       4.459821       121.3579 
 627   0.0000       4.470498       121.6484 
 628   0.0000       4.488748       122.1451 
 629   0.0000       4.495251       122.3220 
 630   0.0000       4.499336       122.4332 
 631   0.0000       4.512568       122.7932 
 632   0.0000       4.521645       123.0402 
 633   0.0000       4.522733       123.0698 
 634   0.0000       4.535995       123.4307 
 635   0.0000       4.543603       123.6377 
 636   0.0000       4.557733       124.0222 
 637   0.0000       4.561767       124.1320 
 638   0.0000       4.569791       124.3503 
 639   0.0000       4.574589       124.4809 
 640   0.0000       4.581008       124.6556 
 641   0.0000       4.588665       124.8639 
 642   0.0000       4.608583       125.4059 
 643   0.0000       4.611192       125.4769 
 644   0.0000       4.621398       125.7546 
 645   0.0000       4.623897       125.8226 
 646   0.0000       4.638542       126.2211 
 647   0.0000       4.646365       126.4340 
 648   0.0000       4.652890       126.6116 
 649   0.0000       4.661629       126.8494 
 650   0.0000       4.663823       126.9091 
 651   0.0000       4.675291       127.2211 
 652   0.0000       4.678447       127.3070 
 653   0.0000       4.694394       127.7410 
 654   0.0000       4.704175       128.0071 
 655   0.0000       4.714536       128.2890 
 656   0.0000       4.726239       128.6075 
 657   0.0000       4.741949       129.0350 
 658   0.0000       4.756815       129.4395 
 659   0.0000       4.759388       129.5095 
 660   0.0000       4.769568       129.7865 
 661   0.0000       4.780065       130.0722 
 662   0.0000       4.805786       130.7721 
 663   0.0000       4.828483       131.3897 
 664   0.0000       4.840013       131.7034 
 665   0.0000       4.870154       132.5236 
 666   0.0000       4.873784       132.6224 
 667   0.0000       4.882261       132.8531 
 668   0.0000       4.898307       133.2897 
 669   0.0000       4.912207       133.6679 
 670   0.0000       4.945932       134.5857 
 671   0.0000       4.958087       134.9164 
 672   0.0000       4.966702       135.1508 
 673   0.0000       4.974924       135.3746 
 674   0.0000       4.980474       135.5256 
 675   0.0000       5.007518       136.2615 
 676   0.0000       5.025298       136.7453 
 677   0.0000       5.036056       137.0380 
 678   0.0000       5.049952       137.4162 
 679   0.0000       5.055648       137.5712 
 680   0.0000       5.063445       137.7833 
 681   0.0000       5.071141       137.9928 
 682   0.0000       5.094258       138.6218 
 683   0.0000       5.103151       138.8638 
 684   0.0000       5.109167       139.0275 
 685   0.0000       5.117396       139.2514 
 686   0.0000       5.122836       139.3995 
 687   0.0000       5.134760       139.7239 
 688   0.0000       5.138850       139.8352 
 689   0.0000       5.146361       140.0396 
 690   0.0000       5.172467       140.7500 
 691   0.0000       5.177408       140.8844 
 692   0.0000       5.181709       141.0015 
 693   0.0000       5.194871       141.3596 
 694   0.0000       5.199298       141.4801 
 695   0.0000       5.213603       141.8693 
 696   0.0000       5.235814       142.4737 
 697   0.0000       5.247488       142.7914 
 698   0.0000       5.254872       142.9923 
 699   0.0000       5.270493       143.4174 
 700   0.0000       5.295396       144.0951 
 701   0.0000       5.301705       144.2667 
 702   0.0000       5.309135       144.4689 
 703   0.0000       5.326028       144.9286 
 704   0.0000       5.329131       145.0130 
 705   0.0000       5.340474       145.3217 
 706   0.0000       5.347702       145.5184 
 707   0.0000       5.352841       145.6582 
 708   0.0000       5.381473       146.4373 
 709   0.0000       5.396490       146.8460 
 710   0.0000       5.406692       147.1236 
 711   0.0000       5.415234       147.3560 
 712   0.0000       5.441553       148.0722 
 713   0.0000       5.449667       148.2930 
 714   0.0000       5.463084       148.6581 
 715   0.0000       5.504704       149.7906 
 716   0.0000       5.514874       150.0674 
 717   0.0000       5.523336       150.2976 
 718   0.0000       5.532681       150.5519 
 719   0.0000       5.536754       150.6627 
 720   0.0000       5.549823       151.0184 
 721   0.0000       5.560235       151.3017 
 722   0.0000       5.574244       151.6829 
 723   0.0000       5.584931       151.9737 
 724   0.0000       5.609095       152.6312 
 725   0.0000       5.619436       152.9126 
 726   0.0000       5.639985       153.4718 
 727   0.0000       5.651109       153.7745 
 728   0.0000       5.655466       153.8931 
 729   0.0000       5.663628       154.1151 
 730   0.0000       5.675345       154.4340 
 731   0.0000       5.681668       154.6060 
 732   0.0000       5.706457       155.2806 
 733   0.0000       5.710451       155.3893 
 734   0.0000       5.717407       155.5786 
 735   0.0000       5.720333       155.6582 
 736   0.0000       5.741852       156.2437 
 737   0.0000       5.751479       156.5057 
 738   0.0000       5.766399       156.9117 
 739   0.0000       5.778547       157.2423 
 740   0.0000       5.787262       157.4794 
 741   0.0000       5.803042       157.9088 
 742   0.0000       5.812676       158.1709 
 743   0.0000       5.836852       158.8288 
 744   0.0000       5.865049       159.5961 
 745   0.0000       5.877540       159.9360 
 746   0.0000       5.894656       160.4017 
 747   0.0000       5.906489       160.7237 
 748   0.0000       5.914706       160.9473 
 749   0.0000       5.920581       161.1072 
 750   0.0000       5.962250       162.2411 
 751   0.0000       5.983053       162.8072 
 752   0.0000       5.992121       163.0539 
 753   0.0000       6.019062       163.7870 
 754   0.0000       6.033290       164.1742 
 755   0.0000       6.045724       164.5125 
 756   0.0000       6.050248       164.6356 
 757   0.0000       6.077426       165.3752 
 758   0.0000       6.098032       165.9359 
 759   0.0000       6.118981       166.5059 
 760   0.0000       6.144340       167.1960 
 761   0.0000       6.176304       168.0658 
 762   0.0000       6.208737       168.9483 
 763   0.0000       6.216916       169.1709 
 764   0.0000       6.256932       170.2598 
 765   0.0000       6.278066       170.8349 
 766   0.0000       6.286472       171.0636 
 767   0.0000       6.324628       172.1019 
 768   0.0000       6.327004       172.1665 
 769   0.0000       6.341659       172.5653 
 770   0.0000       6.382112       173.6661 
 771   0.0000       6.398711       174.1178 
 772   0.0000       6.417536       174.6300 
 773   0.0000       6.431257       175.0034 
 774   0.0000       6.455717       175.6690 
 775   0.0000       6.466586       175.9648 
 776   0.0000       6.489079       176.5768 
 777   0.0000       6.554566       178.3588 
 778   0.0000       6.561915       178.5588 
 779   0.0000       6.592846       179.4004 
 780   0.0000       6.610768       179.8881 
 781   0.0000       6.691055       182.0729 
 782   0.0000       6.766887       184.1364 
 783   0.0000       6.780419       184.5046 
 784   0.0000       6.820159       185.5860 
 785   0.0000       6.894313       187.6038 
 786   0.0000       6.916270       188.2013 
 787   0.0000       6.964568       189.5155 
 788   0.0000       6.973427       189.7566 
 789   0.0000       6.980572       189.9510 
 790   0.0000       7.046195       191.7367 
 791   0.0000       7.060395       192.1231 
 792   0.0000       7.097332       193.1282 
 793   0.0000       7.155640       194.7149 
 794   0.0000       7.222991       196.5476 
 795   0.0000       7.256734       197.4658 
 796   0.0000       7.280829       198.1214 
 797   0.0000       7.308676       198.8792 
 798   0.0000       7.375624       200.7009 
 799   0.0000       7.380697       200.8390 
 800   0.0000       7.389499       201.0785 
 801   0.0000       7.517514       204.5619 
 802   0.0000       7.598010       206.7524 
 803   0.0000       7.653771       208.2697 
 804   0.0000       7.695984       209.4184 
 805   0.0000       7.763381       211.2523 
 806   0.0000       7.817281       212.7190 
 807   0.0000       7.948875       216.2999 
 808   0.0000       8.098687       220.3765 
 809   0.0000       9.480884       257.9880 
 810   0.0000       9.680834       263.4289 
 811   0.0000      11.069689       301.2216 
 812   0.0000      11.583793       315.2110 
 813   0.0000      11.995549       326.4155 
 814   0.0000      12.651283       344.2589 
 815   0.0000      12.905424       351.1744 
 816   0.0000      13.071566       355.6954 
 817   0.0000      13.383419       364.1814 
 818   0.0000      13.566460       369.1621 
 819   0.0000      13.593268       369.8916 
 820   0.0000      13.690721       372.5435 
 821   0.0000      13.767833       374.6418 
 822   0.0000      13.877876       377.6362 
 823   0.0000      14.033276       381.8649 
 824   0.0000      14.145529       384.9194 
 825   0.0000      14.754553       401.4918 
 826   0.0000      15.062985       409.8847 
 827   0.0000      16.094180       437.9449 

                    ********************************
                    * MULLIKEN POPULATION ANALYSIS *
                    ********************************

-----------------------
MULLIKEN ATOMIC CHARGES
-----------------------
   0 C :   -0.274650
   1 C :    0.028274
   2 O :   -0.349455
   3 C :    0.405808
   4 O :   -0.443630
   5 C :   -0.163280
   6 C :    0.154752
   7 C :   -0.285109
   8 N :   -0.123128
   9 C :    0.196614
  10 S :   -0.431651
  11 N :   -0.203649
  12 C :    0.037574
  13 C :    0.109504
  14 C :   -0.239972
  15 C :   -0.142223
  16 C :   -0.202163
  17 C :    0.294306
  18 O :   -0.357093
  19 C :   -0.243375
  20 H :    0.104518
  21 H :    0.090994
  22 H :    0.097127
  23 H :    0.126463
  24 H :    0.101466
  25 H :    0.112580
  26 H :    0.109669
  27 H :    0.128573
  28 H :    0.190452
  29 H :    0.178583
  30 H :    0.153240
  31 H :    0.147888
  32 H :    0.167815
  33 H :    0.153551
  34 H :    0.246142
  35 H :    0.123485
Sum of atomic charges:    0.0000000

--------------------------------
MULLIKEN REDUCED ORBITAL CHARGES
--------------------------------
  0 C s       :     3.258321  s :     3.258321
      pz      :     1.000639  p :     2.941386
      px      :     1.020221
      py      :     0.920525
      dz2     :     0.019014  d :     0.070593
      dxz     :     0.011005
      dyz     :     0.013677
      dx2y2   :     0.009657
      dxy     :     0.017241
      f0      :     0.000720  f :     0.004350
      f+1     :     0.000614
      f-1     :     0.000455
      f+2     :     0.000670
      f-2     :     0.000405
      f+3     :     0.000416
      f-3     :     0.001071
  1 C s       :     3.184390  s :     3.184390
      pz      :     0.929951  p :     2.627178
      px      :     0.781292
      py      :     0.915935
      dz2     :     0.037916  d :     0.149082
      dxz     :     0.024032
      dyz     :     0.019843
      dx2y2   :     0.027860
      dxy     :     0.039430
      f0      :     0.001573  f :     0.011076
      f+1     :     0.001769
      f-1     :     0.000831
      f+2     :     0.001661
      f-2     :     0.001544
      f+3     :     0.001725
      f-3     :     0.001972
  2 O s       :     3.726344  s :     3.726344
      pz      :     1.706795  p :     4.586650
      px      :     1.542128
      py      :     1.337727
      dz2     :     0.004102  d :     0.034331
      dxz     :     0.005213
      dyz     :     0.005990
      dx2y2   :     0.013751
      dxy     :     0.005275
      f0      :     0.000258  f :     0.002130
      f+1     :     0.000142
      f-1     :     0.000293
      f+2     :     0.000286
      f-2     :     0.000204
      f+3     :     0.000397
      f-3     :     0.000550
  3 C s       :     3.096386  s :     3.096386
      pz      :     0.654417  p :     2.173114
[...]
 15 C s       :     2.713727  s :     2.713727
      pz      :     0.974146  p :     2.791935
      px      :     0.926809
      py      :     0.890980
      dz2     :     0.096961  d :     0.395372
      dxz     :     0.084085
      dyz     :     0.078926
      dx2y2   :     0.078724
      dxy     :     0.056676
      f0      :     0.007768  f :     0.039169
      f+1     :     0.005700
      f-1     :     0.005411
      f+2     :     0.005002
      f-2     :     0.007050
      f+3     :     0.004249
      f-3     :     0.003988
 16 C s       :     2.700007  s :     2.700007
      pz      :     0.971988  p :     2.853447
      px      :     0.949500
      py      :     0.931959
      dz2     :     0.090274  d :     0.394410
      dxz     :     0.116355
      dyz     :     0.082681
      dx2y2   :     0.053769
      dxy     :     0.051331
      f0      :     0.008859  f :     0.041121
      f+1     :     0.007457
      f-1     :     0.006507
      f+2     :     0.002824
      f-2     :     0.007298
      f+3     :     0.004131
      f-3     :     0.004045
 17 C s       :     2.692044  s :     2.692044
      pz      :     1.041363  p :     2.684333
      px      :     0.827636
      py      :     0.815334
      dz2     :     0.161596  d :     0.734457
      dxz     :     0.159688
      dyz     :     0.133233
      dx2y2   :     0.157907
      dxy     :     0.122033
      f0      :     0.020748  f :     0.108836
      f+1     :     0.015093
      f-1     :     0.011844
      f+2     :     0.007966
      f-2     :     0.018337
      f+3     :     0.018876
      f-3     :     0.015970
 18 O s       :     3.141044  s :     3.141044
      pz      :     1.414237  p :     4.344241
      px      :     1.472325
      py      :     1.457679
      dz2     :     0.018424  d :     0.081013
      dxz     :     0.012805
      dyz     :     0.015790
      dx2y2   :     0.015634
      dxy     :     0.018361
      f0      :     0.000729  f :     0.004730
      f+1     :     0.000586
      f-1     :     0.000542
      f+2     :     0.000226
      f-2     :     0.000802
      f+3     :     0.000963
      f-3     :     0.000883
 19 C s       :     2.685189  s :     2.685189
      pz      :     0.953088  p :     2.840492
      px      :     0.955056
      py      :     0.932348
      dz2     :     0.090621  d :     0.413239
      dxz     :     0.111553
      dyz     :     0.078055
      dx2y2   :     0.071552
      dxy     :     0.061457
      f0      :     0.007975  f :     0.045114
      f+1     :     0.007548
      f-1     :     0.004833
      f+2     :     0.005015
      f-2     :     0.009434
      f+3     :     0.004905
      f-3     :     0.005404
 20 H s       :     0.843732  s :     0.843732
      pz      :     0.069661  p :     0.152144
      px      :     0.045686
      py      :     0.036797
      dz2     :     0.009187  d :     0.027739
      dxz     :     0.008378
      dyz     :     0.007739
      dx2y2   :     0.001255
      dxy     :     0.001180
 21 H s       :     0.844786  s :     0.844786
      pz      :     0.047480  p :     0.155020
      px      :     0.055699
      py      :     0.051840
      dz2     :     0.005559  d :     0.027840
      dxz     :     0.004332
      dyz     :     0.004782
      dx2y2   :     0.007513
      dxy     :     0.005653
 22 H s       :     0.849243  s :     0.849243
      pz      :     0.040703  p :     0.152036
      px      :     0.064003
      py      :     0.047330
      dz2     :     0.002232  d :     0.027695
      dxz     :     0.006963
      dyz     :     0.002521
      dx2y2   :     0.008207
      dxy     :     0.007772
 23 H s       :     0.849092  s :     0.849092
      pz      :     0.036882  p :     0.148288
      px      :     0.059359
      py      :     0.052047
      dz2     :     0.003828  d :     0.027038
      dxz     :     0.005875
      dyz     :     0.002312
      dx2y2   :     0.007337
      dxy     :     0.007685
 24 H s       :     0.862402  s :     0.862402
      pz      :     0.078914  p :     0.144893
      px      :     0.030084
      py      :     0.035895
      dz2     :     0.010311  d :     0.026471
      dxz     :     0.007149
      dyz     :     0.008408
      dx2y2   :     0.000234
      dxy     :     0.000369
 25 H s       :     0.832358  s :     0.832358
      pz      :     0.063348  p :     0.157388
      px      :     0.052348
      py      :     0.041692
      dz2     :     0.009239  d :     0.028367
      dxz     :     0.006519
      dyz     :     0.006303
      dx2y2   :     0.003709
      dxy     :     0.002598
 26 H s       :     0.841887  s :     0.841887
      pz      :     0.044113  p :     0.150537
      px      :     0.071136
      py      :     0.035288
      dz2     :     0.002467  d :     0.027736
      dxz     :     0.009434
      dyz     :     0.000594
      dx2y2   :     0.007000
      dxy     :     0.008241
 27 H s       :     0.831581  s :     0.831581
      pz      :     0.059317  p :     0.153373
      px      :     0.045316
      py      :     0.048741
      dz2     :     0.008310  d :     0.027792
      dxz     :     0.005208
      dyz     :     0.006145
      dx2y2   :     0.004485
      dxy     :     0.003643
 28 H s       :     0.742851  s :     0.742851
      pz      :     0.088365  p :     0.251149
      px      :     0.092738
      py      :     0.070046
      dz2     :     0.005851  d :     0.060868
      dxz     :     0.014180
      dyz     :     0.009096
      dx2y2   :     0.015910
      dxy     :     0.015832
 29 H s       :     0.751497  s :     0.751497
      pz      :     0.087899  p :     0.262149
      px      :     0.060196
      py      :     0.114054
      dz2     :     0.005004  d :     0.062400
      dxz     :     0.002910
      dyz     :     0.021662
      dx2y2   :     0.016319
      dxy     :     0.016505
 30 H s       :     0.819797  s :     0.819797
      pz      :     0.064454  p :     0.147412
      px      :     0.040174
      py      :     0.042784
      dz2     :     0.009278  d :     0.028644
      dxz     :     0.006405
      dyz     :     0.006529
      dx2y2   :     0.003620
      dxy     :     0.002813
 31 H s       :     0.846598  s :     0.846598
      pz      :     0.034512  p :     0.160906
      px      :     0.063041
      py      :     0.063352
      dz2     :     0.003009  d :     0.027839
      dxz     :     0.004111
      dyz     :     0.005001
      dx2y2   :     0.008348
      dxy     :     0.007370
 32 H s       :     0.845176  s :     0.845176
      pz      :     0.070967  p :     0.152627
      px      :     0.037252
      py      :     0.044408
      dz2     :     0.009238  d :     0.026493
      dxz     :     0.006701
      dyz     :     0.007706
      dx2y2   :     0.001378
      dxy     :     0.001470
 33 H s       :     0.844066  s :     0.844066
      pz      :     0.057900  p :     0.156341
      px      :     0.051376
      py      :     0.047065
      dz2     :     0.007790  d :     0.027705
      dxz     :     0.006911
      dyz     :     0.005669
      dx2y2   :     0.003684
      dxy     :     0.003651
 34 H s       :     0.704374  s :     0.704374
      pz      :     0.163942  p :     0.342903
      px      :     0.081486
      py      :     0.097475
      dz2     :     0.032752  d :     0.096694
      dxz     :     0.024392
      dyz     :     0.026095
      dx2y2   :     0.007386
      dxy     :     0.006068
 35 H s       :     0.841228  s :     0.841228
      pz      :     0.070437  p :     0.156525
      px      :     0.041691
      py      :     0.044397
      dz2     :     0.009295  d :     0.028232
      dxz     :     0.007882
      dyz     :     0.007287
      dx2y2   :     0.001911
      dxy     :     0.001857


                      *****************************
                      * MAYER POPULATION ANALYSIS *
                      *****************************

  NA   - Mulliken gross atomic population
  ZA   - Total nuclear charge
  QA   - Mulliken gross atomic charge
  VA   - Mayer's total valence
  BVA  - Mayer's bonded valence
  FA   - Mayer's free valence

  ATOM       NA         ZA         QA         VA         BVA        FA
  0 C      6.2746     6.0000    -0.2746     3.8918     3.8918     0.0000
  1 C      5.9717     6.0000     0.0283     3.8420     3.8420    -0.0000
  2 O      8.3495     8.0000    -0.3495     2.0618     2.0618     0.0000
  3 C      5.5942     6.0000     0.4058     4.2385     4.2385     0.0000
  4 O      8.4436     8.0000    -0.4436     2.0590     2.0590     0.0000
  5 C      6.1633     6.0000    -0.1633     3.6428     3.6428     0.0000
  6 C      5.8452     6.0000     0.1548     3.8259     3.8259     0.0000
  7 C      6.2851     6.0000    -0.2851     3.8825     3.8825    -0.0000
  8 N      7.1231     7.0000    -0.1231     3.2622     3.2622     0.0000
  9 C      5.8034     6.0000     0.1966     4.1755     4.1755    -0.0000
 10 S     16.4317    16.0000    -0.4317     1.8004     1.8004    -0.0000
 11 N      7.2036     7.0000    -0.2036     3.2234     3.2234    -0.0000
 12 C      5.9624     6.0000     0.0376     3.9846     3.9846    -0.0000
 13 C      5.8905     6.0000     0.1095     3.7409     3.7409     0.0000
 14 C      6.2400     6.0000    -0.2400     3.8751     3.8751    -0.0000
 15 C      6.1422     6.0000    -0.1422     3.8358     3.8358     0.0000
 16 C      6.2022     6.0000    -0.2022     3.7925     3.7925     0.0000
 17 C      5.7057     6.0000     0.2943     3.9314     3.9314     0.0000
 18 O      8.3571     8.0000    -0.3571     2.1236     2.1236    -0.0000
 19 C      6.2434     6.0000    -0.2434     3.8479     3.8479    -0.0000
 20 H      0.8955     1.0000     0.1045     0.9821     0.9821     0.0000
 21 H      0.9090     1.0000     0.0910     0.9799     0.9799     0.0000
 22 H      0.9029     1.0000     0.0971     0.9807     0.9807    -0.0000
 23 H      0.8735     1.0000     0.1265     0.9851     0.9851    -0.0000
 24 H      0.8985     1.0000     0.1015     0.9801     0.9801     0.0000
 25 H      0.8874     1.0000     0.1126     0.9885     0.9885    -0.0000
 26 H      0.8903     1.0000     0.1097     0.9839     0.9839     0.0000
 27 H      0.8714     1.0000     0.1286     0.9750     0.9750    -0.0000
 28 H      0.8095     1.0000     0.1905     1.0227     1.0227     0.0000
 29 H      0.8214     1.0000     0.1786     1.0251     1.0251     0.0000
 30 H      0.8468     1.0000     0.1532     1.0009     1.0009    -0.0000
 31 H      0.8521     1.0000     0.1479     0.9855     0.9855     0.0000
 32 H      0.8322     1.0000     0.1678     0.9747     0.9747    -0.0000
 33 H      0.8464     1.0000     0.1536     0.9854     0.9854     0.0000
 34 H      0.7539     1.0000     0.2461     1.0103     1.0103    -0.0000
 35 H      0.8765     1.0000     0.1235     0.9990     0.9990    -0.0000

  Mayer bond orders larger than 0.100000
B(  0-C ,  1-C ) :   0.9710 B(  0-C , 20-H ) :   0.9795 B(  0-C , 21-H ) :   0.9767 
B(  0-C , 22-H ) :   0.9762 B(  1-C ,  2-O ) :   0.8780 B(  1-C , 23-H ) :   0.9762 
B(  1-C , 24-H ) :   0.9804 B(  2-O ,  3-C ) :   1.1796 B(  3-C ,  4-O ) :   1.9426 
B(  3-C ,  5-C ) :   1.0791 B(  5-C ,  6-C ) :   1.6364 B(  5-C , 12-C ) :   0.9675 
B(  6-C ,  7-C ) :   0.9610 B(  6-C ,  8-N ) :   1.1278 B(  7-C , 25-H ) :   0.9699 
B(  7-C , 26-H ) :   0.9907 B(  7-C , 27-H ) :   0.9613 B(  8-N ,  9-C ) :   1.1702 
B(  8-N , 28-H ) :   0.9576 B(  9-C , 10-S ) :   1.6522 B(  9-C , 11-N ) :   1.2986 
B( 11-N , 12-C ) :   0.9758 B( 11-N , 29-H ) :   0.9542 B( 12-C , 13-C ) :   0.9662 
B( 12-C , 30-H ) :   0.9929 B( 13-C , 14-C ) :   1.3794 B( 13-C , 19-C ) :   1.3493 
B( 14-C , 15-C ) :   1.4062 B( 14-C , 31-H ) :   0.9702 B( 15-C , 16-C ) :   1.3810 
B( 15-C , 32-H ) :   0.9708 B( 16-C , 17-C ) :   1.3510 B( 16-C , 33-H ) :   0.9670 
B( 17-C , 18-O ) :   1.1281 B( 17-C , 19-C ) :   1.3761 B( 18-O , 34-H ) :   0.9731 
B( 19-C , 35-H ) :   0.9611 

-------
TIMINGS
-------

Total SCF time: 0 days 2 hours 0 min 14 sec 

Total time                  ....    7214.365 sec
Sum of individual times     ....    7210.994 sec  (100.0%)

Fock matrix formation       ....    7197.258 sec  ( 99.8%)
Diagonalization             ....       1.740 sec  (  0.0%)
Density matrix formation    ....       0.208 sec  (  0.0%)
Population analysis         ....       0.246 sec  (  0.0%)
Initial guess               ....       6.099 sec  (  0.1%)
Orbital Transformation      ....       0.000 sec  (  0.0%)
Orbital Orthonormalization  ....       0.000 sec  (  0.0%)
DIIS solution               ....       2.045 sec  (  0.0%)
SOSCF solution              ....       1.955 sec  (  0.0%)

Maximum memory used throughout the entire SCF-calculation: 718.3 MB

------------------------------------------------------------------------------
                                ORCA  MP2 
------------------------------------------------------------------------------

Freezing NCore=48 chemical core electrons

-------------
RI-MP2 ENERGY
-------------
Dimension of the basis                    ...  828
Memory devoted to MP2                     ...  256 MB   
Data format for buffers                   ... DOUBLE
Compression type for matrix containers    ... UNCOMPRESSED
Overall scaling of the MP2 energy         ...   1.000e+00
Calculating two index integrals           ... done (    0.046 sec)
Cholesky decomposition of V**-1           ... done (    0.609 sec)

-----------------
RI-TRANSFORMATION (AUX index driven)
-----------------

Dimension of the orbital-basis         ... 828
Dimension of the aux-basis             ... 2141
Transformation of internal/external MOs...   24-  76 to   77- 827
Number Format for Storage              ... Double (8 Byte)
Integral mode                          ... Direct

First Phase: integral generation and transformation of MO indices
  Aux angular momentum 0               ... done (    5.248 sec)
  Aux angular momentum 1               ... done (    8.704 sec)
  Aux angular momentum 2               ... done (   11.031 sec)
  Aux angular momentum 3               ... done (    8.792 sec)
  Aux angular momentum 4               ... done (    3.019 sec)
Closing buffer VIA ( 0.63 GB; CompressionRatio= 1.00)
  Phase 1 completed in    36.976 sec
Second Phase: sorting and transformation of aux index

IA-Transformation
Memory available                       ... 158 MB 
Max. # MO pairs treated in a batch     ... 11    
# of internal orbitals                 ... 53
# batches for internal orbitals        ... 5
Closing buffer IAV ( 0.63 GB; CompressionRatio= 1.00)
(ia|v) transformation done in    19.972 sec

  Phase 2 completed in    19.988 sec
RI-Integral transformation completed in    56.970 sec
Opening buffers                              ... done

Starting loop over batches of integrals:

Operator 0  - window                       ... ( 24- 76)x( 77-827)
Operator 0  - Memory available             ...   256 MB
Operator 0  - Memory needed per MO         ...  12.3 MB
Operator 0  - Number of orbitals per batch ... 13
Operator 0  - Number of batches            ... 5

OPERATOR  0   PASS   0:  MOs    24 ...   36
  Reading integrals       ... ok
  Internal MO  26
  Internal MO  29
  Internal MO  32
  Internal MO  35
OPERATOR  0   PASS   1:  MOs    37 ...   49
  Reading integrals       ... ok
  Internal MO  38
  Internal MO  41
  Internal MO  44
  Internal MO  47
OPERATOR  0   PASS   2:  MOs    50 ...   62
  Reading integrals       ... ok
  Internal MO  50
  Internal MO  53
  Internal MO  56
  Internal MO  59
  Internal MO  62
OPERATOR  0   PASS   3:  MOs    63 ...   75
  Reading integrals       ... ok
  Internal MO  65
  Internal MO  68
  Internal MO  71
  Internal MO  74
OPERATOR  0   PASS   4:  MOs    76 ...   76
  Reading integrals       ... ok
Time spent in pair loops =    96.828 sec
Deleting buffer (Ka|jb)[aa] ...done

-----------------------------------------------
 RI-MP2 CORRELATION ENERGY:     -3.532650534 Eh
-----------------------------------------------


-------
TIMINGS
-------

Total time                :  154.560 sec
Integral trafo            :   56.992 sec ( 36.9%)
I/O of integrals          :    0.980 sec (  0.6%)
K(i,j) Operators          :   67.283 sec ( 43.5%)
T(i,j) pair energies      :   10.122 sec (  6.5%)
V-calculation             :    0.046 sec (  0.0%)
V**(-1/2)                 :    0.609 sec (  0.4%)
Gamma(ia|P)               :    0.000 sec (  0.0%)
Gamma-Trafo               :    0.000 sec (  0.0%)
D(virtual)                :    0.000 sec (  0.0%)
D(internal)               :    0.000 sec (  0.0%)
W(virtual)                :    0.000 sec (  0.0%)
W(internal)               :    0.000 sec (  0.0%)
L(virtual)                :    0.000 sec (  0.0%)
L(internal)               :    0.000 sec (  0.0%)
G(D)                      :    0.000 sec (  0.0%)
G(Z)                      :    0.000 sec (  0.0%)
Z-Vector Solution         :    0.000 sec (  0.0%)
3-Index Derivative        :    0.000 sec (  0.0%)
2-Index Derivative        :    0.000 sec (  0.0%)
Separable Gradient        :    0.000 sec (  0.0%)


---------------------------------------
MP2 TOTAL ENERGY:    -1274.310409149 Eh
---------------------------------------

Maximum memory used throughout the entire MP2-calculation: 302.8 MB

-------------------------   --------------------
FINAL SINGLE POINT ENERGY     -1274.310409149315
-------------------------   --------------------


                            ***************************************
                            *     ORCA property calculations      *
                            ***************************************


  WARNING: The energy has been calculated at the MP2 level but the densities
           used in the property calculations are still SCF densities
           MP2 response densities have not been calculated 
           use %mp2 Density relaxed end
           or  %mp2 Density unrelaxed end

                                    ---------------------
                                    Active property flags
                                    ---------------------
   (+) Dipole Moment


------------------------------------------------------------------------------
                       ORCA ELECTRIC PROPERTIES CALCULATION
------------------------------------------------------------------------------

Dipole Moment Calculation                       ... on
Quadrupole Moment Calculation                   ... off
Polarizability Calculation                      ... off
GBWName                                         ... qm_input.vacu.gbw
Electron density file                           ... qm_input.vacu.scfp
The origin for moment calculation is the CENTER OF MASS  = ( 1.184835, -28.885796 -5.058372)

-------------
DIPOLE MOMENT
-------------
                                X             Y             Z
Electronic contribution:     -9.48207      15.84507       1.90793
Nuclear contribution   :     10.64821     -17.55516      -2.84798
                        -----------------------------------------
Total Dipole Moment    :      1.16613      -1.71009      -0.94005
                        -----------------------------------------
Magnitude (a.u.)       :      2.27331
Magnitude (Debye)      :      5.77830



--------------------
Rotational spectrum 
--------------------
 
Rotational constants in cm-1:     0.009955     0.009251     0.005491 
Rotational constants in MHz :   298.429555   277.348344   164.604150 

 Dipole components along the rotational axes: 
x,y,z [a.u.] :    -1.992974     1.091806    -0.063000 
x,y,z [Debye]:    -5.065736     2.775151    -0.160133 

 

Timings for individual modules:

Sum of individual times         ...     7371.345 sec (= 122.856 min)
GTO integral calculation        ...        1.894 sec (=   0.032 min)   0.0 %
SCF iterations                  ...     7214.439 sec (= 120.241 min)  97.9 %
MP2 module                      ...      155.012 sec (=   2.584 min)   2.1 %
                             ****ORCA TERMINATED NORMALLY****
TOTAL RUN TIME: 0 days 2 hours 2 minutes 52 seconds 240 msec
