
                                        *****************
                                        * O   R   C   A *
                                        *****************

                                            #,                                       
                                            ###                                      
                                            ####                                     
                                            #####                                    
                                            ######                                   
                                           ########,                                 
                                     ,,################,,,,,                         
                               ,,#################################,,                 
                          ,,##########################################,,             
                       ,#########################################, ''#####,          
                    ,#############################################,,   '####,        
                  ,##################################################,,,,####,       
                ,###########''''           ''''###############################       
              ,#####''   ,,,,##########,,,,          '''####'''          '####       
            ,##' ,,,,###########################,,,                        '##       
           ' ,,###''''                  '''############,,,                           
         ,,##''                                '''############,,,,        ,,,,,,###''
      ,#''                                            '''#######################'''  
     '                                                          ''''####''''         
             ,#######,   #######,   ,#######,      ##                                
            ,#'     '#,  ##    ##  ,#'     '#,    #''#        ######   ,####,        
            ##       ##  ##   ,#'  ##            #'  '#       #        #'  '#        
            ##       ##  #######   ##           ,######,      #####,   #    #        
            '#,     ,#'  ##    ##  '#,     ,#' ,#      #,         ##   #,  ,#        
             '#######'   ##     ##  '#######'  #'      '#     #####' # '####'        



                  #######################################################
                  #                        -***-                        #
                  #          Department of theory and spectroscopy      #
                  #    Directorship and core code : Frank Neese         #
                  #        Max Planck Institute fuer Kohlenforschung    #
                  #                Kaiser Wilhelm Platz 1               #
                  #                 D-45470 Muelheim/Ruhr               #
                  #                      Germany                        #
                  #                                                     #
                  #                  All rights reserved                #
                  #                        -***-                        #
                  #######################################################


                         Program Version 5.0.0 -  RELEASE  -
                                (SVN: $Rev: 19529$)
                ($Date: 2021-06-28 11:36:33 +0200 (Mo, 28 Jun 2021) $)


 With contributions from (in alphabetic order):
   Daniel Aravena         : Magnetic Suceptibility
   Michael Atanasov       : Ab Initio Ligand Field Theory (pilot matlab implementation)
   Alexander A. Auer      : GIAO ZORA, VPT2 properties, NMR spectrum
   Ute Becker             : Parallelization
   Giovanni Bistoni       : ED, misc. LED, open-shell LED, HFLD
   Martin Brehm           : Molecular dynamics
   Dmytro Bykov           : SCF Hessian
   Vijay G. Chilkuri      : MRCI spin determinant printing, contributions to CSF-ICE
   Dipayan Datta          : RHF DLPNO-CCSD density
   Achintya Kumar Dutta   : EOM-CC, STEOM-CC
   Dmitry Ganyushin       : Spin-Orbit,Spin-Spin,Magnetic field MRCI
   Miquel Garcia          : C-PCM Hessian, Gaussian charge scheme
   Yang Guo               : DLPNO-NEVPT2, F12-NEVPT2, CIM, IAO-localization
   Andreas Hansen         : Spin unrestricted coupled pair/coupled cluster methods
   Benjamin Helmich-Paris : MC-RPA, TRAH-SCF, COSX integrals
   Lee Huntington         : MR-EOM, pCC
   Robert Izsak           : Overlap fitted RIJCOSX, COSX-SCS-MP3, EOM
   Marcus Kettner         : VPT2
   Christian Kollmar      : KDIIS, OOCD, Brueckner-CCSD(T), CCSD density, CASPT2, CASPT2-K
   Simone Kossmann        : Meta GGA functionals, TD-DFT gradient, OOMP2, MP2 Hessian
   Martin Krupicka        : Initial AUTO-CI
   Lucas Lang             : DCDCAS
   Marvin Lechner         : AUTO-CI (C++ implementation), FIC-MRCC
   Dagmar Lenk            : GEPOL surface, SMD
   Dimitrios Liakos       : Extrapolation schemes; Compound Job, initial MDCI parallelization
   Dimitrios Manganas     : Further ROCIS development; embedding schemes
   Dimitrios Pantazis     : SARC Basis sets
   Anastasios Papadopoulos: AUTO-CI, single reference methods and gradients
   Taras Petrenko         : DFT Hessian,TD-DFT gradient, ASA, ECA, R-Raman, ABS, FL, XAS/XES, NRVS
   Peter Pinski           : DLPNO-MP2, DLPNO-MP2 Gradient
   Christoph Reimann      : Effective Core Potentials
   Marius Retegan         : Local ZFS, SOC
   Christoph Riplinger    : Optimizer, TS searches, QM/MM, DLPNO-CCSD(T), (RO)-DLPNO pert. Triples
   Tobias Risthaus        : Range-separated hybrids, TD-DFT gradient, RPA, STAB
   Michael Roemelt        : Original ROCIS implementation
   Masaaki Saitow         : Open-shell DLPNO-CCSD energy and density
   Barbara Sandhoefer     : DKH picture change effects
   Avijit Sen             : IP-ROCIS
   Kantharuban Sivalingam : CASSCF convergence, NEVPT2, FIC-MRCI
   Bernardo de Souza      : ESD, SOC TD-DFT
   Georgi Stoychev        : AutoAux, RI-MP2 NMR
   Willem Van den Heuvel  : Paramagnetic NMR
   Boris Wezisla          : Elementary symmetry handling
   Frank Wennmohs         : Technical directorship


 We gratefully acknowledge several colleagues who have allowed us to
 interface, adapt or use parts of their codes:
   Stefan Grimme, W. Hujo, H. Kruse, P. Pracht,  : VdW corrections, initial TS optimization,
                  C. Bannwarth, S. Ehlert          DFT functionals, gCP, sTDA/sTD-DF
   Ed Valeev, F. Pavosevic, A. Kumar             : LibInt (2-el integral package), F12 methods
   Garnet Chan, S. Sharma, J. Yang, R. Olivares  : DMRG
   Ulf Ekstrom                                   : XCFun DFT Library
   Mihaly Kallay                                 : mrcc  (arbitrary order and MRCC methods)
   Jiri Pittner, Ondrej Demel                    : Mk-CCSD
   Frank Weinhold                                : gennbo (NPA and NBO analysis)
   Christopher J. Cramer and Donald G. Truhlar   : smd solvation model
   Lars Goerigk                                  : TD-DFT with DH, B97 family of functionals
   V. Asgeirsson, H. Jonsson                     : NEB implementation
   FAccTs GmbH                                   : IRC, NEB, NEB-TS, DLPNO-Multilevel, CI-OPT
                                                   MM, QMMM, 2- and 3-layer-ONIOM, Crystal-QMMM,
                                                   LR-CPCM, SF, NACMEs, symmetry and pop. for TD-DFT,
                                                   nearIR, NL-DFT gradient (VV10), updates on ESD,
                                                   ML-optimized integration grids
   S Lehtola, MJT Oliveira, MAL Marques          : LibXC Library
   Liviu Ungur et al                             : ANISO software


 Your calculation uses the libint2 library for the computation of 2-el integrals
 For citations please refer to: http://libint.valeyev.net

 Your ORCA version has been built with support for libXC version: 5.1.0
 For citations please refer to: https://tddft.org/programs/libxc/

 This ORCA versions uses:
   CBLAS   interface :  Fast vector & matrix operations
   LAPACKE interface :  Fast linear algebra routines
   SCALAPACK package :  Parallel linear algebra routines
   Shared memory     :  Shared parallel matrices
   BLAS/LAPACK       :  OpenBLAS 0.3.15  USE64BITINT DYNAMIC_ARCH NO_AFFINITY SkylakeX SINGLE_THREADED
        Core in use  :  SkylakeX
   Copyright (c) 2011-2014, The OpenBLAS Project


================================================================================

----- Orbital basis set information -----
Your calculation utilizes the basis: cc-pVTZ 
       H, B-Ne : Obtained from the ccRepo (grant-hill.group.shef.ac.uk/ccrepo) Feb. 2017
                 T. H. Dunning, Jr., J. Chem. Phys. 90, 1007 (1989)
            He : Obtained from the ccRepo (grant-hill.group.shef.ac.uk/ccrepo) Feb. 2017
                 D. E. Woon, T. H. Dunning, Jr., J. Chem. Phys. 100, 2975 (1994)
  Li-Be, Na-Mg : Obtained from the ccRepo (grant-hill.group.shef.ac.uk/ccrepo) Feb. 2017
                 B. P. Prascher, D. E. Woon, K. A. Peterson, T. H. Dunning, Jr., A. K. Wilson, Theor. Chem. Acc. 128, 69 (2011)
         Al-Ar : Obtained from the ccRepo (grant-hill.group.shef.ac.uk/ccrepo) Feb. 2017
                 D. E. Woon, T. H. Dunning, Jr., J. Chem. Phys. 98, 1358 (1993)
            Ca : Obtained from the Peterson Research Group Website (tyr0.chem.wsu.edu/~kipeters) Feb. 2017
                 J. Koput, K. A. Peterson, J. Phys. Chem. 106, 9595 (2002)
         Sc-Zn : Obtained from the ccRepo (grant-hill.group.shef.ac.uk/ccrepo) Feb. 2017
                 N. B. Balabanov, K. A. Peterson, J. Chem. Phys. 123, 064107 (2005)
                 N. B. Balabanov, K. A. Peterson, J. Chem. Phys. 125, 074110 (2006)
         Ga-Kr : Obtained from the ccRepo (grant-hill.group.shef.ac.uk/ccrepo) Feb. 2017
                 A. K. Wilson, D. E. Woon, K. A. Peterson, T. H. Dunning, Jr., J. Chem. Phys. 110, 7667 (1999)
             Y : Obtained from the ccRepo (grant-hill.group.shef.ac.uk/ccrepo) Feb. 2017
                 K. A. Peterson, D. Figgen, M. Dolg, H. Stoll, J. Chem. Phys. 126, 124101 (2007)
        Ag, Au : Obtained from the Peterson Research Group Website (tyr0.chem.wsu.edu/~kipeters) Feb. 2017
                 K. A. Peterson, C. Puzzarini, Theor. Chem. Acc. 114, 283 (2005)

----- AuxC basis set information -----
Your calculation utilizes the auxiliary basis: cc-pVTZ/C 
  Obtained from the EMSL Basis Set Exchange (bse.pnl.gov) Feb. 2017
  H-He, B-F, Al-Ar, Ga-Kr : F. Weigend, A. Kohn, C. Hattig, J. Chem. Phys. 116, 3175 (2002)
             Li-Be, Na-Mg : C. Haettig, Phys. Chem. Chem. Phys. 7, 59 (2005)
                       Ne : C. Haettig, Phys. Chem. Chem. Phys. 7, 59 (2005)
                            F. Weigend, A. Kohn, C. Hattig, J. Chem. Phys. 116, 3175 (2002)
                    Sc-Zn : J. G. Hill, J. A. Platts, J. Chem. Phys. 128, 044104 (2008)

================================================================================
                                        WARNINGS
                       Please study these warnings very carefully!
================================================================================


WARNING: No MP2 level density has been requested!
         To caclulate MP2 level properties use
         %mp2 Density relaxed end
         or
         %mp2 Density unrelaxed end

WARNING: Post HF methods need fully converged wavefunctions
  ===> : Setting SCFConvForced true
         You can overwrite this default with %scf ConvForced false 


INFO   : the flag for use of the SHARK integral package has been found!

================================================================================
                                       INPUT FILE
================================================================================
NAME = qm_input.vacu
|  1> ! RI-MP2 cc-pVTZ cc-pVTZ/c TightSCF KeepDens NoKeepInts
|  2> 
|  3> *xyz  0  1
|  4>     C    -9.4279564  -10.3369168    6.7846366
|  5>     C   -10.8834331  -10.4877623    6.3784985
|  6>     O   -11.2981897  -11.8282492    6.0078743
|  7>     C   -11.2046405  -12.9561161    6.8107670
|  8>     O   -10.6191586  -12.8703794    7.8590177
|  9>     C   -11.9278325  -14.1303754    6.2309457
| 10>     C   -12.9378189  -14.0775784    5.2770052
| 11>     C   -13.6545144  -12.8959314    4.6467346
| 12>     N   -13.5587393  -15.2450771    4.8850260
| 13>     C   -13.1454514  -16.5298158    5.2008046
| 14>     S   -14.0113341  -17.8674542    4.5398928
| 15>     N   -12.1786650  -16.6366505    6.1512701
| 16>     C   -11.4555713  -15.4933444    6.8464085
| 17>     C    -9.9491658  -15.7857407    6.8155029
| 18>     C    -9.1541439  -15.5578459    7.9844249
| 19>     C    -7.8808308  -16.0351455    8.0602849
| 20>     C    -7.3261903  -16.7819555    7.0066059
| 21>     C    -8.0364793  -16.9397956    5.7867028
| 22>     O    -7.4237962  -17.3470041    4.6408120
| 23>     C    -9.3276549  -16.4473882    5.7108162
| 24>     H    -9.1688746  -10.5400568    7.8309652
| 25>     H    -9.0778288   -9.2997218    6.7151579
| 26>     H    -8.7652167  -10.8860114    6.1045919
| 27>     H   -11.4430825  -10.1119696    7.2438106
| 28>     H   -11.2052875   -9.8312917    5.5607908
| 29>     H   -13.7164238  -11.9906679    5.2630541
| 30>     H   -14.7064399  -13.1234409    4.4348811
| 31>     H   -13.0507625  -12.6546863    3.7632870
| 32>     H   -14.4230742  -15.1339831    4.3687344
| 33>     H   -11.9316325  -17.5388757    6.5397685
| 34>     H   -11.7688104  -15.5988751    7.8923216
| 35>     H    -9.6709240  -15.1310116    8.8389112
| 36>     H    -7.3675824  -15.8759774    9.0040240
| 37>     H    -6.3094591  -17.1612721    7.0487272
| 38>     H    -6.5159927  -17.6929752    4.6949034
| 39>     H    -9.9222909  -16.6604456    4.8274035
| 40> *
| 41> 
| 42>                          ****END OF INPUT****
================================================================================

                       ****************************
                       * Single Point Calculation *
                       ****************************

---------------------------------
CARTESIAN COORDINATES (ANGSTROEM)
---------------------------------
  C     -9.427956  -10.336917    6.784637
  C    -10.883433  -10.487762    6.378499
  O    -11.298190  -11.828249    6.007874
  C    -11.204641  -12.956116    6.810767
  O    -10.619159  -12.870379    7.859018
  C    -11.927832  -14.130375    6.230946
  C    -12.937819  -14.077578    5.277005
  C    -13.654514  -12.895931    4.646735
  N    -13.558739  -15.245077    4.885026
  C    -13.145451  -16.529816    5.200805
  S    -14.011334  -17.867454    4.539893
  N    -12.178665  -16.636650    6.151270
  C    -11.455571  -15.493344    6.846408
  C     -9.949166  -15.785741    6.815503
  C     -9.154144  -15.557846    7.984425
  C     -7.880831  -16.035145    8.060285
  C     -7.326190  -16.781955    7.006606
  C     -8.036479  -16.939796    5.786703
  O     -7.423796  -17.347004    4.640812
  C     -9.327655  -16.447388    5.710816
  H     -9.168875  -10.540057    7.830965
  H     -9.077829   -9.299722    6.715158
  H     -8.765217  -10.886011    6.104592
  H    -11.443082  -10.111970    7.243811
  H    -11.205288   -9.831292    5.560791
  H    -13.716424  -11.990668    5.263054
  H    -14.706440  -13.123441    4.434881
  H    -13.050762  -12.654686    3.763287
  H    -14.423074  -15.133983    4.368734
  H    -11.931632  -17.538876    6.539769
  H    -11.768810  -15.598875    7.892322
  H     -9.670924  -15.131012    8.838911
  H     -7.367582  -15.875977    9.004024
  H     -6.309459  -17.161272    7.048727
  H     -6.515993  -17.692975    4.694903
  H     -9.922291  -16.660446    4.827403

----------------------------
CARTESIAN COORDINATES (A.U.)
----------------------------
  NO LB      ZA    FRAG     MASS         X           Y           Z
   0 C     6.0000    0    12.011  -17.816256  -19.533942   12.821105
   1 C     6.0000    0    12.011  -20.566708  -19.818999   12.053615
   2 O     8.0000    0    15.999  -21.350484  -22.352152   11.353237
   3 C     6.0000    0    12.011  -21.173702  -24.483511   12.870484
   4 O     8.0000    0    15.999  -20.067302  -24.321492   14.851391
   5 C     6.0000    0    12.011  -22.540337  -26.702540   11.774781
   6 C     6.0000    0    12.011  -24.448934  -26.602768    9.972095
   7 C     6.0000    0    12.011  -25.803293  -24.369779    8.781056
   8 N     7.0000    0    14.007  -25.622304  -28.809021    9.231361
   9 C     6.0000    0    12.011  -24.841303  -31.236825    9.828096
  10 S    16.0000    0    32.060  -26.477584  -33.764595    8.579154
  11 N     7.0000    0    14.007  -23.014342  -31.438713   11.624216
  12 C     6.0000    0    12.011  -21.647892  -29.278178   12.937837
  13 C     6.0000    0    12.011  -18.801199  -29.830727   12.879434
  14 C     6.0000    0    12.011  -17.298825  -29.400068   15.088376
  15 C     6.0000    0    12.011  -14.892612  -30.302034   15.231731
  16 C     6.0000    0    12.011  -13.844493  -31.713300   13.240566
  17 C     6.0000    0    12.011  -15.186745  -32.011574   10.935284
  18 O     8.0000    0    15.999  -14.028942  -32.781087    8.769864
  19 C     6.0000    0    12.011  -17.626713  -31.081059   10.791879
  20 H     1.0000    0     1.008  -17.326662  -19.917821   14.798380
  21 H     1.0000    0     1.008  -17.154610  -17.573927   12.689809
  22 H     1.0000    0     1.008  -16.563859  -20.571580   11.536007
  23 H     1.0000    0     1.008  -21.624292  -19.108853   13.688818
  24 H     1.0000    0     1.008  -21.174925  -18.578449   10.508372
  25 H     1.0000    0     1.008  -25.920285  -22.659078    9.945731
  26 H     1.0000    0     1.008  -27.791144  -24.799709    8.380711
  27 H     1.0000    0     1.008  -24.662367  -23.913891    7.111582
  28 H     1.0000    0     1.008  -27.255660  -28.599083    8.255712
  29 H     1.0000    0     1.008  -22.547518  -33.143672   12.358371
  30 H     1.0000    0     1.008  -22.239829  -29.477602   14.914326
  31 H     1.0000    0     1.008  -18.275398  -28.593468   16.703121
  32 H     1.0000    0     1.008  -13.922713  -30.001249   17.015139
  33 H     1.0000    0     1.008  -11.923150  -32.430104   13.320164
  34 H     1.0000    0     1.008  -12.313442  -33.434878    8.872082
  35 H     1.0000    0     1.008  -18.750412  -31.483679    9.122471

--------------------------------
INTERNAL COORDINATES (ANGSTROEM)
--------------------------------
 C      0   0   0     0.000000000000     0.00000000     0.00000000
 C      1   0   0     1.518589788384     0.00000000     0.00000000
 O      2   1   0     1.451306467959   115.71850488     0.00000000
 C      3   2   1     1.387613737554   125.71237137    57.60386679
 O      4   3   2     1.203731434750   118.60542176   352.43550107
 C      4   3   2     1.496022831522   112.40463271   170.16289643
 C      6   4   3     1.390274263926   125.96622031   339.46248867
 C      7   6   4     1.518941441121   131.07378504   354.74884342
 N      7   6   4     1.379218275282   119.33491376   183.19937441
 C      9   7   6     1.386029054451   125.84830364   349.61620929
 S     10   9   7     1.725060505227   118.80245721   183.33893515
 N     10   9   7     1.359953772391   116.36077187    11.29725763
 C     12  10   9     1.520930876941   126.75226228   356.49220078
 C     13  12  10     1.534831678978   108.31330663   227.83380533
 C     14  13  12     1.431912882626   119.87938603   223.18807785
 C     15  14  13     1.361945629749   120.58245468   167.86651484
 C     16  15  14     1.405557076529   120.88894204   358.81483219
 C     17  16  15     1.420418084255   120.36747011     6.30843173
 O     18  17  16     1.361714018810   122.06974556   162.90939221
 C     18  17  16     1.383964686569   118.29979724   354.17646855
 H      1   2   3     1.096901444009   117.58705251   274.37511375
 H      1   2   3     1.096900220649   112.51448905   160.03368699
 H      1   2   3     1.096899988013   111.31842965    43.79835984
 H      2   1   3     1.096901378748   104.12247723   123.16505556
 H      2   1   3     1.096900080273   114.90726103   235.62956872
 H      8   7   6     1.096897672675   115.81815742   332.02801188
 H      8   7   6     1.096900057254   111.79457140   214.42589645
 H      8   7   6     1.096902555824   104.21621675    89.98185688
 H      9   7   6     1.012903604705   115.86070216   165.68865799
 H     12  10   9     1.012899982414   120.75804303   170.16770833
 H     13  12  10     1.096900029703   103.16258972   115.40457775
 H     15  14  13     1.086000013030   116.14591958   357.00340871
 H     16  15  14     1.086002713178   116.03287061   183.83007538
 H     17  16  15     1.086000745857   121.73161730   179.42764172
 H     19  18  17     0.973000039158   118.64205505    11.30135017
 H     20  18  17     1.086003419291   119.05421098   186.97023115

---------------------------
INTERNAL COORDINATES (A.U.)
---------------------------
 C      0   0   0     0.000000000000     0.00000000     0.00000000
 C      1   0   0     2.869718809816     0.00000000     0.00000000
 O      2   1   0     2.742571760832   115.71850488     0.00000000
 C      3   2   1     2.622209943645   125.71237137    57.60386679
 O      4   3   2     2.274722750469   118.60542176   352.43550107
 C      4   3   2     2.827073441669   112.40463271   170.16289643
 C      6   4   3     2.627237609859   125.96622031   339.46248867
 C      7   6   4     2.870383337182   131.07378504   354.74884342
 N      7   6   4     2.606344819181   119.33491376   183.19937441
 C      9   7   6     2.619215326570   125.84830364   349.61620929
 S     10   9   7     3.259891919322   118.80245721   183.33893515
 N     10   9   7     2.569940184611   116.36077187    11.29725763
 C     12  10   9     2.874142826043   126.75226228   356.49220078
 C     13  12  10     2.900411534935   108.31330663   227.83380533
 C     14  13  12     2.705923195797   119.87938603   223.18807785
 C     15  14  13     2.573704249516   120.58245468   167.86651484
 C     16  15  14     2.656117940235   120.88894204   358.81483219
 C     17  16  15     2.684201174911   120.36747011     6.30843173
 O     18  17  16     2.573266568271   122.06974556   162.90939221
 C     18  17  16     2.615314236633   118.29979724   354.17646855
 H      1   2   3     2.072843325080   117.58705251   274.37511375
 H      1   2   3     2.072841013265   112.51448905   160.03368699
 H      1   2   3     2.072840573646   111.31842965    43.79835984
 H      2   1   3     2.072843201755   104.12247723   123.16505556
 H      2   1   3     2.072840747992   114.90726103   235.62956872
 H      8   7   6     2.072836198292   115.81815742   332.02801188
 H      8   7   6     2.072840704492   111.79457140   214.42589645
 H      8   7   6     2.072845426106   104.21621675    89.98185688
 H      9   7   6     1.914110412954   115.86070216   165.68865799
 H     12  10   9     1.914103567816   120.75804303   170.16770833
 H     13  12  10     2.072840652429   103.16258972   115.40457775
 H     15  14  13     2.052242606061   116.14591958   357.00340871
 H     16  15  14     2.052247708601   116.03287061   183.83007538
 H     17  16  15     2.052243990905   121.73161730   179.42764172
 H     19  18  17     1.838703602303   118.64205505    11.30135017
 H     20  18  17     2.052249042962   119.05421098   186.97023115

---------------------
BASIS SET INFORMATION
---------------------
There are 5 groups of distinct atoms

 Group   1 Type C   : 18s5p2d1f contracted to 4s3p2d1f pattern {8811/311/11/1}
 Group   2 Type O   : 18s5p2d1f contracted to 4s3p2d1f pattern {8811/311/11/1}
 Group   3 Type N   : 18s5p2d1f contracted to 4s3p2d1f pattern {8811/311/11/1}
 Group   4 Type S   : 41s16p2d1f contracted to 5s4p2d1f pattern {13131311/7711/11/1}
 Group   5 Type H   : 5s2p1d contracted to 3s2p1d pattern {311/11/1}

Atom   0C    basis set group =>   1
Atom   1C    basis set group =>   1
Atom   2O    basis set group =>   2
Atom   3C    basis set group =>   1
Atom   4O    basis set group =>   2
Atom   5C    basis set group =>   1
Atom   6C    basis set group =>   1
Atom   7C    basis set group =>   1
Atom   8N    basis set group =>   3
Atom   9C    basis set group =>   1
Atom  10S    basis set group =>   4
Atom  11N    basis set group =>   3
Atom  12C    basis set group =>   1
Atom  13C    basis set group =>   1
Atom  14C    basis set group =>   1
Atom  15C    basis set group =>   1
Atom  16C    basis set group =>   1
Atom  17C    basis set group =>   1
Atom  18O    basis set group =>   2
Atom  19C    basis set group =>   1
Atom  20H    basis set group =>   5
Atom  21H    basis set group =>   5
Atom  22H    basis set group =>   5
Atom  23H    basis set group =>   5
Atom  24H    basis set group =>   5
Atom  25H    basis set group =>   5
Atom  26H    basis set group =>   5
Atom  27H    basis set group =>   5
Atom  28H    basis set group =>   5
Atom  29H    basis set group =>   5
Atom  30H    basis set group =>   5
Atom  31H    basis set group =>   5
Atom  32H    basis set group =>   5
Atom  33H    basis set group =>   5
Atom  34H    basis set group =>   5
Atom  35H    basis set group =>   5
---------------------------------
AUXILIARY/C BASIS SET INFORMATION
---------------------------------
There are 5 groups of distinct atoms

 Group   1 Type C   : 8s6p5d3f1g contracted to 8s6p5d3f1g pattern {11111111/111111/11111/111/1}
 Group   2 Type O   : 8s6p5d3f1g contracted to 8s6p5d3f1g pattern {11111111/111111/11111/111/1}
 Group   3 Type N   : 8s6p5d3f1g contracted to 8s6p5d3f1g pattern {11111111/111111/11111/111/1}
 Group   4 Type S   : 10s8p7d5f2g contracted to 10s8p7d5f2g pattern {1111111111/11111111/1111111/11111/11}
 Group   5 Type H   : 4s3p2d1f contracted to 4s3p2d1f pattern {1111/111/11/1}

Atom   0C    basis set group =>   1
Atom   1C    basis set group =>   1
Atom   2O    basis set group =>   2
Atom   3C    basis set group =>   1
Atom   4O    basis set group =>   2
Atom   5C    basis set group =>   1
Atom   6C    basis set group =>   1
Atom   7C    basis set group =>   1
Atom   8N    basis set group =>   3
Atom   9C    basis set group =>   1
Atom  10S    basis set group =>   4
Atom  11N    basis set group =>   3
Atom  12C    basis set group =>   1
Atom  13C    basis set group =>   1
Atom  14C    basis set group =>   1
Atom  15C    basis set group =>   1
Atom  16C    basis set group =>   1
Atom  17C    basis set group =>   1
Atom  18O    basis set group =>   2
Atom  19C    basis set group =>   1
Atom  20H    basis set group =>   5
Atom  21H    basis set group =>   5
Atom  22H    basis set group =>   5
Atom  23H    basis set group =>   5
Atom  24H    basis set group =>   5
Atom  25H    basis set group =>   5
Atom  26H    basis set group =>   5
Atom  27H    basis set group =>   5
Atom  28H    basis set group =>   5
Atom  29H    basis set group =>   5
Atom  30H    basis set group =>   5
Atom  31H    basis set group =>   5
Atom  32H    basis set group =>   5
Atom  33H    basis set group =>   5
Atom  34H    basis set group =>   5
Atom  35H    basis set group =>   5
------------------------------------------------------------------------------
                           ORCA GTO INTEGRAL CALCULATION
------------------------------------------------------------------------------
------------------------------------------------------------------------------
                   ___                                                        
                  /   \      - P O W E R E D   B Y -                         
                 /     \                                                     
                 |  |  |   _    _      __       _____    __    __             
                 |  |  |  | |  | |    /  \     |  _  \  |  |  /  |          
                  \  \/   | |  | |   /    \    | | | |  |  | /  /          
                 / \  \   | |__| |  /  /\  \   | |_| |  |  |/  /          
                |  |  |   |  __  | /  /__\  \  |    /   |      \           
                |  |  |   | |  | | |   __   |  |    \   |  |\   \          
                \     /   | |  | | |  |  |  |  | |\  \  |  | \   \       
                 \___/    |_|  |_| |__|  |__|  |_| \__\ |__|  \__/        
                                                                              
                      - O R C A' S   B I G   F R I E N D -                    
                                      &                                       
                       - I N T E G R A L  F E E D E R -                       
                                                                              
 v1 FN, 2020, v2 2021                                                         
------------------------------------------------------------------------------


Reading SHARK input file qm_input.vacu.SHARKINP.tmp ... ok
----------------------
SHARK INTEGRAL PACKAGE
----------------------

Number of atoms                             ...     36
Number of basis functions                   ...    828
Number of shells                            ...    298
Maximum angular momentum                    ...      3
Integral batch strategy                     ... SHARK/LIBINT Hybrid
RI-J (if used) integral strategy            ... SPLIT-RIJ (Revised 2003 algorithm where possible)
Printlevel                                  ...      1
Contraction scheme used                     ... SEGMENTED contraction
Coulomb Range Separation                    ... NOT USED
Exchange Range Separation                   ... NOT USED
Finite Nucleus Model                        ... NOT USED
Auxiliary Coulomb fitting basis             ... NOT available
Auxiliary J/K fitting basis                 ... NOT available
Auxiliary Correlation fitting basis         ... AVAILABLE
   # of basis functions in Aux-C            ...   2141
   # of shells in Aux-C                     ...    629
   Maximum angular momentum in Aux-C        ...      4
Auxiliary 'external' fitting basis          ... NOT available
Integral threshold                          ...     2.500000e-11
Primitive cut-off                           ...     2.500000e-12
Primitive pair pre-selection threshold      ...     2.500000e-12

Calculating pre-screening integrals         ... done (  0.7 sec) Dimension = 298
Organizing shell pair data                  ... done (  0.4 sec)
Shell pair information
Total number of shell pairs                 ...     44551
Shell pairs after pre-screening             ...     31521
Total number of primitive shell pairs       ...    234348
Primitive shell pairs kept                  ...     90978
          la=0 lb=0:   6343 shell pairs
          la=1 lb=0:   8806 shell pairs
          la=1 lb=1:   3108 shell pairs
          la=2 lb=0:   5002 shell pairs
          la=2 lb=1:   3429 shell pairs
          la=2 lb=2:    965 shell pairs
          la=3 lb=0:   1815 shell pairs
          la=3 lb=1:   1234 shell pairs
          la=3 lb=2:    685 shell pairs
          la=3 lb=3:    134 shell pairs

Calculating one electron integrals          ... done (  0.4 sec)
Calculating RI/C V-Matrix + Cholesky decomp.... done (  0.4 sec)
Calculating Nuclear repulsion               ... done (  0.0 sec) ENN=   1659.325185765358 Eh

SHARK setup successfully completed in   2.0 seconds

Maximum memory used throughout the entire GTOINT-calculation: 464.8 MB
-------------------------------------------------------------------------------
                                 ORCA SCF
-------------------------------------------------------------------------------

------------
SCF SETTINGS
------------
Hamiltonian:
 Ab initio Hamiltonian  Method          .... Hartree-Fock(GTOs)


General Settings:
 Integral files         IntName         .... qm_input.vacu
 Hartree-Fock type      HFTyp           .... RHF
 Total Charge           Charge          ....    0
 Multiplicity           Mult            ....    1
 Number of Electrons    NEL             ....  154
 Basis Dimension        Dim             ....  828
 Nuclear Repulsion      ENuc            ....   1659.3251857654 Eh

Convergence Acceleration:
 DIIS                   CNVDIIS         .... on
   Start iteration      DIISMaxIt       ....    12
   Startup error        DIISStart       ....  0.200000
   # of expansion vecs  DIISMaxEq       ....     5
   Bias factor          DIISBfac        ....   1.050
   Max. coefficient     DIISMaxC        ....  10.000
 Trust-Rad. Augm. Hess. CNVTRAH         .... auto
   Auto Start mean grad. ratio tolernc. ....  1.125000
   Auto Start start iteration           ....    20
   Auto Start num. interpolation iter.  ....    10
   Max. Number of Micro iterations      ....    16
   Max. Number of Macro iterations      .... Maxiter - #DIIS iter
   Number of Davidson start vectors     ....     2
   Converg. threshold I  (grad. norm)   ....   1.000e-05
   Converg. threshold II (energy diff.) ....   1.000e-08
   Grad. Scal. Fac. for Micro threshold ....   0.100
   Minimum threshold for Micro iter.    ....   0.010
   NR start threshold (gradient norm)   ....   0.001
   Initial trust radius                 ....   0.400
   Minimum AH scaling param. (alpha)    ....   1.000
   Maximum AH scaling param. (alpha)    .... 1000.000
   Orbital update algorithm             .... Taylor
   White noise on init. David. guess    .... on
   Maximum white noise                  ....   0.010
   Quad. conv. algorithm                .... NR
 SOSCF                  CNVSOSCF        .... on
   Start iteration      SOSCFMaxIt      ....   150
   Startup grad/error   SOSCFStart      ....  0.003300
 Level Shifting         CNVShift        .... on
   Level shift para.    LevelShift      ....    0.2500
   Turn off err/grad.   ShiftErr        ....    0.0010
 Zerner damping         CNVZerner       .... off
 Static damping         CNVDamp         .... on
   Fraction old density DampFac         ....    0.7000
   Max. Damping (<1)    DampMax         ....    0.9800
   Min. Damping (>=0)   DampMin         ....    0.0000
   Turn off err/grad.   DampErr         ....    0.1000
 Fernandez-Rico         CNVRico         .... off

SCF Procedure:
 Maximum # iterations   MaxIter         ....   125
 SCF integral mode      SCFMode         .... Direct
   Integral package                     .... SHARK and LIBINT hybrid scheme
 Reset frequency        DirectResetFreq ....    20
 Integral Threshold     Thresh          ....  2.500e-11 Eh
 Primitive CutOff       TCut            ....  2.500e-12 Eh

Convergence Tolerance:
 Convergence Check Mode ConvCheckMode   .... Total+1el-Energy
 Convergence forced     ConvForced      .... 1
 Energy Change          TolE            ....  1.000e-08 Eh
 1-El. energy change                    ....  1.000e-05 Eh
 Orbital Gradient       TolG            ....  1.000e-05
 Orbital Rotation angle TolX            ....  1.000e-05
 DIIS Error             TolErr          ....  5.000e-07


Diagonalization of the overlap matrix:
Smallest eigenvalue                        ... 4.061e-05
Time for diagonalization                   ...    0.159 sec
Threshold for overlap eigenvalues          ... 1.000e-08
Number of eigenvalues below threshold      ... 0
Time for construction of square roots      ...    0.078 sec
Total time needed                          ...    0.239 sec

Time for model grid setup =    1.511 sec

------------------------------
INITIAL GUESS: MODEL POTENTIAL
------------------------------
Loading Hartree-Fock densities                     ... done
Calculating cut-offs                               ... done
Initializing the effective Hamiltonian             ... done
Setting up the integral package (SHARK)            ... done
Starting the Coulomb interaction                   ... done (   4.6 sec)
Reading the grid                                   ... done
Mapping shells                                     ... done
Starting the XC term evaluation                    ... done (   1.5 sec)
Transforming the Hamiltonian                       ... done (   0.1 sec)
Diagonalizing the Hamiltonian                      ... done (   0.2 sec)
Back transforming the eigenvectors                 ... done (   0.0 sec)
Now organizing SCF variables                       ... done
                      ------------------
                      INITIAL GUESS DONE (   7.9 sec)
                      ------------------
--------------
SCF ITERATIONS
--------------
ITER       Energy         Delta-E        Max-DP      RMS-DP      [F,P]     Damp
               ***  Starting incremental Fock matrix formation  ***
  0  -1269.9700753088   0.000000000000 0.04880926  0.00044121  0.3094590 0.7000
  1  -1270.2389609178  -0.268885609000 0.03581848  0.00036033  0.1826277 0.7000
                               ***Turning on DIIS***
  2  -1270.4064132150  -0.167452297210 0.02571204  0.00023854  0.1097675 0.7000
  3  -1272.4961278434  -2.089714628396 0.06302955  0.00049868  0.0828177 0.0000
  4  -1270.7181443130   1.777983530391 0.01017412  0.00010759  0.0068326 0.0000
  5  -1270.7759057873  -0.057761474373 0.00527697  0.00005321  0.0046933 0.0000
                      *** Initiating the SOSCF procedure ***
                           *** Shutting down DIIS ***
                      *** Re-Reading the Fockian *** 
                      *** Removing any level shift *** 
ITER      Energy       Delta-E        Grad      Rot      Max-DP    RMS-DP
  6  -1270.75554413   0.0203616544  0.001604  0.001604  0.001930  0.000028
               *** Restarting incremental Fock matrix formation ***
  7  -1270.77027303  -0.0147288978  0.000816  0.002125  0.001563  0.000017
  8  -1270.77032623  -0.0000532029  0.000370  0.002542  0.001781  0.000018
  9  -1270.77034748  -0.0000212491  0.000135  0.000279  0.000365  0.000005
 10  -1270.77035010  -0.0000026223  0.000047  0.000123  0.000115  0.000002
 11  -1270.77035039  -0.0000002846  0.000027  0.000130  0.000075  0.000001
 12  -1270.77035047  -0.0000000841  0.000011  0.000041  0.000033  0.000000
 13  -1270.77035048  -0.0000000064  0.000004  0.000013  0.000009  0.000000
                  ***Gradient check signals convergence***
              ***Rediagonalizing the Fockian in SOSCF/NRSCF***

               *****************************************************
               *                     SUCCESS                       *
               *           SCF CONVERGED AFTER  14 CYCLES          *
               *****************************************************


----------------
TOTAL SCF ENERGY
----------------

Total Energy       :        -1270.77035048 Eh          -34579.41922 eV

Components:
Nuclear Repulsion  :         1659.32518577 Eh           45152.53382 eV
Electronic Energy  :        -2930.09553624 Eh          -79731.95304 eV
One Electron Energy:        -5040.16445059 Eh         -137149.84726 eV
Two Electron Energy:         2110.06891435 Eh           57417.89423 eV

Virial components:
Potential Energy   :        -2539.27805256 Eh          -69097.26865 eV
Kinetic Energy     :         1268.50770208 Eh           34517.84943 eV
Virial Ratio       :            2.00178371


---------------
SCF CONVERGENCE
---------------

  Last Energy change         ...    4.7048e-09  Tolerance :   1.0000e-08
  Last MAX-Density change    ...    3.6331e-06  Tolerance :   1.0000e-07
  Last RMS-Density change    ...    4.5736e-08  Tolerance :   5.0000e-09
  Last Orbital Gradient      ...    1.8720e-06  Tolerance :   1.0000e-05
  Last Orbital Rotation      ...    8.0645e-06  Tolerance :   1.0000e-05

             **** THE GBW FILE WAS UPDATED (qm_input.vacu.gbw) ****
             **** DENSITY qm_input.vacu.scfp WAS UPDATED ****
             **** ENERGY FILE WAS UPDATED (qm_input.vacu.en.tmp) ****
             **** THE GBW FILE WAS UPDATED (qm_input.vacu.gbw) ****
             **** DENSITY qm_input.vacu.scfp WAS UPDATED ****
----------------
ORBITAL ENERGIES
----------------

  NO   OCC          E(Eh)            E(eV) 
   0   2.0000     -91.891013     -2500.4816 
   1   2.0000     -20.589285      -560.2629 
   2   2.0000     -20.588223      -560.2340 
   3   2.0000     -20.543812      -559.0255 
   4   2.0000     -15.632303      -425.3766 
   5   2.0000     -15.617977      -424.9868 
   6   2.0000     -11.395449      -310.0859 
   7   2.0000     -11.392923      -310.0172 
   8   2.0000     -11.347431      -308.7793 
   9   2.0000     -11.320405      -308.0439 
  10   2.0000     -11.310616      -307.7775 
  11   2.0000     -11.298770      -307.4551 
  12   2.0000     -11.269694      -306.6640 
  13   2.0000     -11.265345      -306.5456 
  14   2.0000     -11.261362      -306.4373 
  15   2.0000     -11.241549      -305.8981 
  16   2.0000     -11.240139      -305.8597 
  17   2.0000     -11.236215      -305.7529 
  18   2.0000     -11.229047      -305.5579 
  19   2.0000     -11.220624      -305.3287 
  20   2.0000      -8.893533      -242.0053 
  21   2.0000      -6.574852      -178.9108 
  22   2.0000      -6.573022      -178.8610 
  23   2.0000      -6.572481      -178.8463 
  24   2.0000      -1.444694       -39.3121 
  25   2.0000      -1.401624       -38.1401 
  26   2.0000      -1.349766       -36.7290 
  27   2.0000      -1.339976       -36.4626 
  28   2.0000      -1.240960       -33.7682 
  29   2.0000      -1.150631       -31.3103 
  30   2.0000      -1.111793       -30.2534 
  31   2.0000      -1.038118       -28.2486 
  32   2.0000      -1.034071       -28.1385 
  33   2.0000      -1.018304       -27.7095 
  34   2.0000      -0.999742       -27.2044 
  35   2.0000      -0.968941       -26.3662 
  36   2.0000      -0.920935       -25.0599 
  37   2.0000      -0.890431       -24.2299 
  38   2.0000      -0.849940       -23.1281 
  39   2.0000      -0.837693       -22.7948 
  40   2.0000      -0.826522       -22.4908 
  41   2.0000      -0.816966       -22.2308 
  42   2.0000      -0.745482       -20.2856 
  43   2.0000      -0.734456       -19.9856 
  44   2.0000      -0.728725       -19.8296 
  45   2.0000      -0.685598       -18.6561 
  46   2.0000      -0.684655       -18.6304 
  47   2.0000      -0.680705       -18.5229 
  48   2.0000      -0.667769       -18.1709 
  49   2.0000      -0.653363       -17.7789 
  50   2.0000      -0.648042       -17.6341 
  51   2.0000      -0.641464       -17.4551 
  52   2.0000      -0.635039       -17.2803 
  53   2.0000      -0.609442       -16.5837 
  54   2.0000      -0.603461       -16.4210 
  55   2.0000      -0.597726       -16.2650 
  56   2.0000      -0.590889       -16.0789 
  57   2.0000      -0.580088       -15.7850 
  58   2.0000      -0.573138       -15.5959 
  59   2.0000      -0.562924       -15.3179 
  60   2.0000      -0.558884       -15.2080 
  61   2.0000      -0.546854       -14.8807 
  62   2.0000      -0.530584       -14.4379 
  63   2.0000      -0.521695       -14.1960 
  64   2.0000      -0.510073       -13.8798 
  65   2.0000      -0.505836       -13.7645 
  66   2.0000      -0.497431       -13.5358 
  67   2.0000      -0.485025       -13.1982 
  68   2.0000      -0.479904       -13.0588 
  69   2.0000      -0.468628       -12.7520 
  70   2.0000      -0.451263       -12.2795 
  71   2.0000      -0.442964       -12.0537 
  72   2.0000      -0.352284        -9.5861 
  73   2.0000      -0.340806        -9.2738 
  74   2.0000      -0.323301        -8.7975 
  75   2.0000      -0.315544        -8.5864 
  76   2.0000      -0.312074        -8.4920 
  77   0.0000       0.072921         1.9843 
  78   0.0000       0.108014         2.9392 
  79   0.0000       0.120965         3.2916 
  80   0.0000       0.132349         3.6014 
  81   0.0000       0.141902         3.8614 
  82   0.0000       0.142929         3.8893 
  83   0.0000       0.148907         4.0520 
  84   0.0000       0.154873         4.2143 
  85   0.0000       0.164036         4.4637 
  86   0.0000       0.169600         4.6150 
  87   0.0000       0.179930         4.8961 
  88   0.0000       0.187711         5.1079 
  89   0.0000       0.193948         5.2776 
  90   0.0000       0.202712         5.5161 
  91   0.0000       0.206160         5.6099 
  92   0.0000       0.209551         5.7022 
  93   0.0000       0.218853         5.9553 
  94   0.0000       0.223998         6.0953 
  95   0.0000       0.232062         6.3147 
  96   0.0000       0.240655         6.5485 
  97   0.0000       0.243872         6.6361 
  98   0.0000       0.251539         6.8447 
  99   0.0000       0.266339         7.2474 
 100   0.0000       0.285098         7.7579 
 101   0.0000       0.300790         8.1849 
 102   0.0000       0.309746         8.4286 
 103   0.0000       0.318813         8.6753 
 104   0.0000       0.330079         8.9819 
 105   0.0000       0.336197         9.1484 
 106   0.0000       0.344292         9.3687 
 107   0.0000       0.351595         9.5674 
 108   0.0000       0.356053         9.6887 
 109   0.0000       0.358697         9.7606 
 110   0.0000       0.377860        10.2821 
 111   0.0000       0.380348        10.3498 
 112   0.0000       0.382675        10.4131 
 113   0.0000       0.393571        10.7096 
 114   0.0000       0.405532        11.0351 
 115   0.0000       0.411492        11.1973 
 116   0.0000       0.418797        11.3960 
 117   0.0000       0.428328        11.6554 
 118   0.0000       0.432367        11.7653 
 119   0.0000       0.437969        11.9177 
 120   0.0000       0.443155        12.0589 
 121   0.0000       0.446166        12.1408 
 122   0.0000       0.450567        12.2605 
 123   0.0000       0.457455        12.4480 
 124   0.0000       0.460690        12.5360 
 125   0.0000       0.467898        12.7321 
 126   0.0000       0.472647        12.8614 
 127   0.0000       0.480767        13.0823 
 128   0.0000       0.482365        13.1258 
 129   0.0000       0.487291        13.2599 
 130   0.0000       0.492313        13.3965 
 131   0.0000       0.497230        13.5303 
 132   0.0000       0.501901        13.6574 
 133   0.0000       0.515211        14.0196 
 134   0.0000       0.520946        14.1756 
 135   0.0000       0.523142        14.2354 
 136   0.0000       0.531479        14.4623 
 137   0.0000       0.536719        14.6049 
 138   0.0000       0.541168        14.7259 
 139   0.0000       0.547015        14.8850 
 140   0.0000       0.554365        15.0850 
 141   0.0000       0.563421        15.3315 
 142   0.0000       0.570233        15.5168 
 143   0.0000       0.573210        15.5978 
 144   0.0000       0.573971        15.6185 
 145   0.0000       0.575648        15.6642 
 146   0.0000       0.581342        15.8191 
 147   0.0000       0.586678        15.9643 
 148   0.0000       0.591746        16.1022 
 149   0.0000       0.597380        16.2555 
 150   0.0000       0.600293        16.3348 
 151   0.0000       0.602246        16.3879 
 152   0.0000       0.610149        16.6030 
 153   0.0000       0.614706        16.7270 
 154   0.0000       0.616367        16.7722 
 155   0.0000       0.620332        16.8801 
 156   0.0000       0.624959        17.0060 
 157   0.0000       0.633681        17.2433 
 158   0.0000       0.634565        17.2674 
 159   0.0000       0.636022        17.3070 
 160   0.0000       0.643852        17.5201 
 161   0.0000       0.647435        17.6176 
 162   0.0000       0.653071        17.7710 
 163   0.0000       0.658323        17.9139 
 164   0.0000       0.659667        17.9504 
 165   0.0000       0.669669        18.2226 
 166   0.0000       0.670420        18.2431 
 167   0.0000       0.677099        18.4248 
 168   0.0000       0.680716        18.5232 
 169   0.0000       0.688000        18.7214 
 170   0.0000       0.689134        18.7523 
 171   0.0000       0.697855        18.9896 
 172   0.0000       0.706320        19.2200 
 173   0.0000       0.713552        19.4167 
 174   0.0000       0.715622        19.4731 
 175   0.0000       0.718942        19.5634 
 176   0.0000       0.728796        19.8316 
 177   0.0000       0.736173        20.0323 
 178   0.0000       0.744592        20.2614 
 179   0.0000       0.753363        20.5000 
 180   0.0000       0.756885        20.5959 
 181   0.0000       0.765822        20.8391 
 182   0.0000       0.768293        20.9063 
 183   0.0000       0.773452        21.0467 
 184   0.0000       0.779976        21.2242 
 185   0.0000       0.789858        21.4931 
 186   0.0000       0.802593        21.8397 
 187   0.0000       0.814351        22.1596 
 188   0.0000       0.819654        22.3039 
 189   0.0000       0.829020        22.5588 
 190   0.0000       0.830849        22.6085 
 191   0.0000       0.836294        22.7567 
 192   0.0000       0.846600        23.0371 
 193   0.0000       0.851804        23.1788 
 194   0.0000       0.862605        23.4727 
 195   0.0000       0.866544        23.5799 
 196   0.0000       0.877622        23.8813 
 197   0.0000       0.884068        24.0567 
 198   0.0000       0.890684        24.2367 
 199   0.0000       0.903708        24.5911 
 200   0.0000       0.915066        24.9002 
 201   0.0000       0.919595        25.0235 
 202   0.0000       0.929076        25.2814 
 203   0.0000       0.933065        25.3900 
 204   0.0000       0.938894        25.5486 
 205   0.0000       0.944597        25.7038 
 206   0.0000       0.955274        25.9943 
 207   0.0000       0.958826        26.0910 
 208   0.0000       0.963018        26.2050 
 209   0.0000       0.965992        26.2860 
 210   0.0000       0.977695        26.6044 
 211   0.0000       0.982692        26.7404 
 212   0.0000       0.985089        26.8056 
 213   0.0000       0.994821        27.0705 
 214   0.0000       1.003324        27.3018 
 215   0.0000       1.013059        27.5667 
 216   0.0000       1.015488        27.6328 
 217   0.0000       1.028425        27.9849 
 218   0.0000       1.032604        28.0986 
 219   0.0000       1.042237        28.3607 
 220   0.0000       1.048399        28.5284 
 221   0.0000       1.052330        28.6354 
 222   0.0000       1.062463        28.9111 
 223   0.0000       1.079379        29.3714 
 224   0.0000       1.083241        29.4765 
 225   0.0000       1.087811        29.6008 
 226   0.0000       1.089453        29.6455 
 227   0.0000       1.099470        29.9181 
 228   0.0000       1.109274        30.1849 
 229   0.0000       1.115311        30.3492 
 230   0.0000       1.121688        30.5227 
 231   0.0000       1.126971        30.6664 
 232   0.0000       1.129352        30.7312 
 233   0.0000       1.133712        30.8499 
 234   0.0000       1.144048        31.1311 
 235   0.0000       1.155587        31.4451 
 236   0.0000       1.169818        31.8324 
 237   0.0000       1.175055        31.9749 
 238   0.0000       1.185135        32.2492 
 239   0.0000       1.188186        32.3322 
 240   0.0000       1.189773        32.3754 
 241   0.0000       1.198121        32.6025 
 242   0.0000       1.200882        32.6777 
 243   0.0000       1.208028        32.8721 
 244   0.0000       1.216829        33.1116 
 245   0.0000       1.225719        33.3535 
 246   0.0000       1.234319        33.5875 
 247   0.0000       1.237459        33.6730 
 248   0.0000       1.249651        34.0047 
 249   0.0000       1.254170        34.1277 
 250   0.0000       1.258857        34.2552 
 251   0.0000       1.261750        34.3340 
 252   0.0000       1.268081        34.5062 
 253   0.0000       1.277864        34.7725 
 254   0.0000       1.280249        34.8374 
 255   0.0000       1.287582        35.0369 
 256   0.0000       1.307658        35.5832 
 257   0.0000       1.315711        35.8023 
 258   0.0000       1.319597        35.9081 
 259   0.0000       1.321088        35.9486 
 260   0.0000       1.337205        36.3872 
 261   0.0000       1.345296        36.6074 
 262   0.0000       1.349990        36.7351 
 263   0.0000       1.353839        36.8398 
 264   0.0000       1.360593        37.0236 
 265   0.0000       1.366903        37.1953 
 266   0.0000       1.372883        37.3580 
 267   0.0000       1.386170        37.7196 
 268   0.0000       1.395459        37.9724 
 269   0.0000       1.405935        38.2574 
 270   0.0000       1.417640        38.5759 
 271   0.0000       1.424472        38.7619 
 272   0.0000       1.427757        38.8512 
 273   0.0000       1.434318        39.0298 
 274   0.0000       1.443437        39.2779 
 275   0.0000       1.451260        39.4908 
 276   0.0000       1.458937        39.6997 
 277   0.0000       1.474651        40.1273 
 278   0.0000       1.479917        40.2706 
 279   0.0000       1.488511        40.5045 
 280   0.0000       1.498402        40.7736 
 281   0.0000       1.502614        40.8882 
 282   0.0000       1.507528        41.0219 
 283   0.0000       1.512033        41.1445 
 284   0.0000       1.513672        41.1891 
 285   0.0000       1.520221        41.3673 
 286   0.0000       1.522917        41.4407 
 287   0.0000       1.532140        41.6917 
 288   0.0000       1.538881        41.8751 
 289   0.0000       1.540594        41.9217 
 290   0.0000       1.541400        41.9436 
 291   0.0000       1.552704        42.2512 
 292   0.0000       1.554653        42.3042 
 293   0.0000       1.569217        42.7006 
 294   0.0000       1.574503        42.8444 
 295   0.0000       1.585830        43.1526 
 296   0.0000       1.588261        43.2188 
 297   0.0000       1.599173        43.5157 
 298   0.0000       1.610088        43.8127 
 299   0.0000       1.618708        44.0473 
 300   0.0000       1.624502        44.2050 
 301   0.0000       1.635965        44.5169 
 302   0.0000       1.642330        44.6901 
 303   0.0000       1.647397        44.8280 
 304   0.0000       1.651927        44.9512 
 305   0.0000       1.656455        45.0744 
 306   0.0000       1.666802        45.3560 
 307   0.0000       1.674220        45.5578 
 308   0.0000       1.686151        45.8825 
 309   0.0000       1.697082        46.1799 
 310   0.0000       1.699446        46.2443 
 311   0.0000       1.703250        46.3478 
 312   0.0000       1.722587        46.8740 
 313   0.0000       1.724079        46.9146 
 314   0.0000       1.731771        47.1239 
 315   0.0000       1.753424        47.7131 
 316   0.0000       1.754447        47.7409 
 317   0.0000       1.778364        48.3917 
 318   0.0000       1.786663        48.6176 
 319   0.0000       1.791882        48.7596 
 320   0.0000       1.812191        49.3122 
 321   0.0000       1.817218        49.4490 
 322   0.0000       1.823503        49.6200 
 323   0.0000       1.838636        50.0318 
 324   0.0000       1.847376        50.2697 
 325   0.0000       1.852789        50.4169 
 326   0.0000       1.868053        50.8323 
 327   0.0000       1.877736        51.0958 
 328   0.0000       1.894030        51.5392 
 329   0.0000       1.900496        51.7151 
 330   0.0000       1.903541        51.7980 
 331   0.0000       1.920698        52.2649 
 332   0.0000       1.928344        52.4729 
 333   0.0000       1.938684        52.7543 
 334   0.0000       1.943926        52.8969 
 335   0.0000       1.951992        53.1164 
 336   0.0000       1.965195        53.4757 
 337   0.0000       1.988329        54.1052 
 338   0.0000       1.993635        54.2496 
 339   0.0000       2.007720        54.6328 
 340   0.0000       2.019201        54.9453 
 341   0.0000       2.019756        54.9604 
 342   0.0000       2.031898        55.2908 
 343   0.0000       2.041940        55.5640 
 344   0.0000       2.064844        56.1873 
 345   0.0000       2.067436        56.2578 
 346   0.0000       2.106406        57.3182 
 347   0.0000       2.115072        57.5540 
 348   0.0000       2.123363        57.7797 
 349   0.0000       2.153868        58.6097 
 350   0.0000       2.161030        58.8046 
 351   0.0000       2.176849        59.2351 
 352   0.0000       2.198264        59.8178 
 353   0.0000       2.206406        60.0394 
 354   0.0000       2.222806        60.4856 
 355   0.0000       2.239969        60.9527 
 356   0.0000       2.271521        61.8112 
 357   0.0000       2.276563        61.9484 
 358   0.0000       2.290654        62.3319 
 359   0.0000       2.292595        62.3847 
 360   0.0000       2.314339        62.9764 
 361   0.0000       2.334316        63.5200 
 362   0.0000       2.339584        63.6633 
 363   0.0000       2.344341        63.7928 
 364   0.0000       2.355554        64.0979 
 365   0.0000       2.359116        64.1948 
 366   0.0000       2.368488        64.4498 
 367   0.0000       2.398511        65.2668 
 368   0.0000       2.403361        65.3988 
 369   0.0000       2.413611        65.6777 
 370   0.0000       2.426705        66.0340 
 371   0.0000       2.440175        66.4005 
 372   0.0000       2.455071        66.8059 
 373   0.0000       2.474880        67.3449 
 374   0.0000       2.491972        67.8100 
 375   0.0000       2.495538        67.9071 
 376   0.0000       2.511802        68.3496 
 377   0.0000       2.517689        68.5098 
 378   0.0000       2.537188        69.0404 
 379   0.0000       2.541305        69.1524 
 380   0.0000       2.552707        69.4627 
 381   0.0000       2.563614        69.7595 
 382   0.0000       2.573159        70.0192 
 383   0.0000       2.589347        70.4597 
 384   0.0000       2.595659        70.6315 
 385   0.0000       2.599601        70.7387 
 386   0.0000       2.621869        71.3447 
 387   0.0000       2.630175        71.5707 
 388   0.0000       2.638284        71.7914 
 389   0.0000       2.648401        72.0667 
 390   0.0000       2.663049        72.4653 
 391   0.0000       2.671119        72.6848 
 392   0.0000       2.683655        73.0260 
 393   0.0000       2.698296        73.4244 
 394   0.0000       2.705514        73.6208 
 395   0.0000       2.718948        73.9863 
 396   0.0000       2.730693        74.3059 
 397   0.0000       2.740568        74.5746 
 398   0.0000       2.747933        74.7751 
 399   0.0000       2.754868        74.9638 
 400   0.0000       2.761810        75.1527 
 401   0.0000       2.782298        75.7102 
 402   0.0000       2.783635        75.7466 
 403   0.0000       2.797065        76.1120 
 404   0.0000       2.807410        76.3935 
 405   0.0000       2.813638        76.5630 
 406   0.0000       2.820900        76.7606 
 407   0.0000       2.828081        76.9560 
 408   0.0000       2.837294        77.2067 
 409   0.0000       2.849516        77.5393 
 410   0.0000       2.854019        77.6618 
 411   0.0000       2.871277        78.1314 
 412   0.0000       2.878504        78.3281 
 413   0.0000       2.884882        78.5016 
 414   0.0000       2.893392        78.7332 
 415   0.0000       2.905221        79.0551 
 416   0.0000       2.917253        79.3825 
 417   0.0000       2.923714        79.5583 
 418   0.0000       2.933876        79.8348 
 419   0.0000       2.938507        79.9608 
 420   0.0000       2.943282        80.0908 
 421   0.0000       2.954623        80.3994 
 422   0.0000       2.965958        80.7078 
 423   0.0000       2.968411        80.7746 
 424   0.0000       2.988876        81.3314 
 425   0.0000       2.991694        81.4081 
 426   0.0000       3.004099        81.7457 
 427   0.0000       3.011631        81.9506 
 428   0.0000       3.021111        82.2086 
 429   0.0000       3.036296        82.6218 
 430   0.0000       3.039051        82.6968 
 431   0.0000       3.048409        82.9514 
 432   0.0000       3.057515        83.1992 
 433   0.0000       3.067287        83.4651 
 434   0.0000       3.072216        83.5992 
 435   0.0000       3.081974        83.8648 
 436   0.0000       3.086496        83.9878 
 437   0.0000       3.087831        84.0241 
 438   0.0000       3.100309        84.3637 
 439   0.0000       3.107075        84.5478 
 440   0.0000       3.112023        84.6825 
 441   0.0000       3.118483        84.8582 
 442   0.0000       3.128993        85.1442 
 443   0.0000       3.131734        85.2188 
 444   0.0000       3.137013        85.3625 
 445   0.0000       3.145757        85.6004 
 446   0.0000       3.160719        86.0075 
 447   0.0000       3.171493        86.3007 
 448   0.0000       3.178698        86.4968 
 449   0.0000       3.183778        86.6350 
 450   0.0000       3.189001        86.7771 
 451   0.0000       3.191914        86.8564 
 452   0.0000       3.204846        87.2083 
 453   0.0000       3.206836        87.2625 
 454   0.0000       3.224450        87.7417 
 455   0.0000       3.229439        87.8775 
 456   0.0000       3.232559        87.9624 
 457   0.0000       3.237971        88.1097 
 458   0.0000       3.244845        88.2967 
 459   0.0000       3.254458        88.5583 
 460   0.0000       3.263364        88.8006 
 461   0.0000       3.266955        88.8984 
 462   0.0000       3.273709        89.0821 
 463   0.0000       3.275468        89.1300 
 464   0.0000       3.284836        89.3849 
 465   0.0000       3.286910        89.4414 
 466   0.0000       3.296048        89.6900 
 467   0.0000       3.304061        89.9081 
 468   0.0000       3.314309        90.1869 
 469   0.0000       3.317303        90.2684 
 470   0.0000       3.325552        90.4929 
 471   0.0000       3.327700        90.5513 
 472   0.0000       3.334759        90.7434 
 473   0.0000       3.338065        90.8334 
 474   0.0000       3.342084        90.9427 
 475   0.0000       3.346602        91.0657 
 476   0.0000       3.352449        91.2248 
 477   0.0000       3.361749        91.4778 
 478   0.0000       3.366932        91.6189 
 479   0.0000       3.375259        91.8455 
 480   0.0000       3.385113        92.1136 
 481   0.0000       3.388906        92.2168 
 482   0.0000       3.394067        92.3573 
 483   0.0000       3.397681        92.4556 
 484   0.0000       3.403997        92.6275 
 485   0.0000       3.409658        92.7815 
 486   0.0000       3.420721        93.0825 
 487   0.0000       3.424996        93.1989 
 488   0.0000       3.426182        93.2311 
 489   0.0000       3.430184        93.3401 
 490   0.0000       3.433155        93.4209 
 491   0.0000       3.442586        93.6775 
 492   0.0000       3.444138        93.7198 
 493   0.0000       3.446338        93.7796 
 494   0.0000       3.455263        94.0225 
 495   0.0000       3.467680        94.3604 
 496   0.0000       3.472768        94.4988 
 497   0.0000       3.479672        94.6867 
 498   0.0000       3.483784        94.7986 
 499   0.0000       3.490818        94.9900 
 500   0.0000       3.499061        95.2143 
 501   0.0000       3.506896        95.4275 
 502   0.0000       3.525396        95.9309 
 503   0.0000       3.530866        96.0798 
 504   0.0000       3.535631        96.2094 
 505   0.0000       3.539755        96.3216 
 506   0.0000       3.549436        96.5851 
 507   0.0000       3.554105        96.7121 
 508   0.0000       3.563604        96.9706 
 509   0.0000       3.567718        97.0825 
 510   0.0000       3.577131        97.3387 
 511   0.0000       3.584571        97.5411 
 512   0.0000       3.587658        97.6251 
 513   0.0000       3.591905        97.7407 
 514   0.0000       3.596948        97.8779 
 515   0.0000       3.602630        98.0325 
 516   0.0000       3.611178        98.2652 
 517   0.0000       3.616121        98.3997 
 518   0.0000       3.625181        98.6462 
 519   0.0000       3.634911        98.9109 
 520   0.0000       3.642493        99.1173 
 521   0.0000       3.648080        99.2693 
 522   0.0000       3.652972        99.4024 
 523   0.0000       3.660052        99.5951 
 524   0.0000       3.673539        99.9621 
 525   0.0000       3.675300       100.0100 
 526   0.0000       3.679836       100.1334 
 527   0.0000       3.685476       100.2869 
 528   0.0000       3.693297       100.4997 
 529   0.0000       3.700515       100.6961 
 530   0.0000       3.705079       100.8203 
 531   0.0000       3.711626       100.9985 
 532   0.0000       3.717051       101.1461 
 533   0.0000       3.728681       101.4626 
 534   0.0000       3.735457       101.6470 
 535   0.0000       3.739982       101.7701 
 536   0.0000       3.742465       101.8377 
 537   0.0000       3.749459       102.0280 
 538   0.0000       3.759993       102.3146 
 539   0.0000       3.766194       102.4833 
 540   0.0000       3.772709       102.6606 
 541   0.0000       3.774550       102.7107 
 542   0.0000       3.778438       102.8165 
 543   0.0000       3.780752       102.8795 
 544   0.0000       3.795670       103.2854 
 545   0.0000       3.802622       103.4746 
 546   0.0000       3.815355       103.8211 
 547   0.0000       3.823115       104.0323 
 548   0.0000       3.830868       104.2432 
 549   0.0000       3.832265       104.2812 
 550   0.0000       3.842159       104.5505 
 551   0.0000       3.851576       104.8067 
 552   0.0000       3.858919       105.0065 
 553   0.0000       3.864544       105.1596 
 554   0.0000       3.872431       105.3742 
 555   0.0000       3.873559       105.4049 
 556   0.0000       3.880042       105.5813 
 557   0.0000       3.894681       105.9797 
 558   0.0000       3.903202       106.2115 
 559   0.0000       3.907136       106.3186 
 560   0.0000       3.924443       106.7895 
 561   0.0000       3.939469       107.1984 
 562   0.0000       3.941794       107.2617 
 563   0.0000       3.951267       107.5194 
 564   0.0000       3.957005       107.6756 
 565   0.0000       3.966146       107.9243 
 566   0.0000       3.972638       108.1010 
 567   0.0000       3.982354       108.3654 
 568   0.0000       3.991066       108.6024 
 569   0.0000       3.995255       108.7164 
 570   0.0000       4.014637       109.2438 
 571   0.0000       4.018918       109.3603 
 572   0.0000       4.030368       109.6719 
 573   0.0000       4.036108       109.8281 
 574   0.0000       4.045336       110.0792 
 575   0.0000       4.051442       110.2453 
 576   0.0000       4.054117       110.3181 
 577   0.0000       4.063560       110.5751 
 578   0.0000       4.069355       110.7328 
 579   0.0000       4.087328       111.2219 
 580   0.0000       4.101946       111.6196 
 581   0.0000       4.105895       111.7271 
 582   0.0000       4.108464       111.7970 
 583   0.0000       4.116449       112.0143 
 584   0.0000       4.124659       112.2377 
 585   0.0000       4.132916       112.4624 
 586   0.0000       4.147607       112.8621 
 587   0.0000       4.154138       113.0399 
 588   0.0000       4.154753       113.0566 
 589   0.0000       4.165039       113.3365 
 590   0.0000       4.167613       113.4065 
 591   0.0000       4.181618       113.7876 
 592   0.0000       4.184374       113.8626 
 593   0.0000       4.186564       113.9222 
 594   0.0000       4.190021       114.0163 
 595   0.0000       4.202130       114.3458 
 596   0.0000       4.202465       114.3549 
 597   0.0000       4.208858       114.5288 
 598   0.0000       4.212377       114.6246 
 599   0.0000       4.221066       114.8611 
 600   0.0000       4.223976       114.9402 
 601   0.0000       4.238413       115.3331 
 602   0.0000       4.243072       115.4599 
 603   0.0000       4.254704       115.7764 
 604   0.0000       4.266275       116.0913 
 605   0.0000       4.271769       116.2407 
 606   0.0000       4.290846       116.7599 
 607   0.0000       4.296237       116.9066 
 608   0.0000       4.306856       117.1955 
 609   0.0000       4.310955       117.3070 
 610   0.0000       4.320659       117.5711 
 611   0.0000       4.329334       117.8072 
 612   0.0000       4.338421       118.0544 
 613   0.0000       4.348547       118.3300 
 614   0.0000       4.351809       118.4188 
 615   0.0000       4.362096       118.6987 
 616   0.0000       4.368984       118.8861 
 617   0.0000       4.376776       119.0981 
 618   0.0000       4.384359       119.3045 
 619   0.0000       4.386882       119.3731 
 620   0.0000       4.400389       119.7407 
 621   0.0000       4.413071       120.0858 
 622   0.0000       4.414750       120.1315 
 623   0.0000       4.423139       120.3597 
 624   0.0000       4.438991       120.7911 
 625   0.0000       4.442904       120.8976 
 626   0.0000       4.456033       121.2548 
 627   0.0000       4.469007       121.6079 
 628   0.0000       4.477161       121.8297 
 629   0.0000       4.479349       121.8893 
 630   0.0000       4.485358       122.0528 
 631   0.0000       4.493093       122.2633 
 632   0.0000       4.499257       122.4310 
 633   0.0000       4.506042       122.6156 
 634   0.0000       4.519740       122.9884 
 635   0.0000       4.525689       123.1503 
 636   0.0000       4.546782       123.7242 
 637   0.0000       4.552490       123.8796 
 638   0.0000       4.562404       124.1493 
 639   0.0000       4.569544       124.3436 
 640   0.0000       4.574001       124.4649 
 641   0.0000       4.585363       124.7741 
 642   0.0000       4.594585       125.0250 
 643   0.0000       4.598718       125.1375 
 644   0.0000       4.601198       125.2050 
 645   0.0000       4.610900       125.4690 
 646   0.0000       4.618673       125.6805 
 647   0.0000       4.620815       125.7388 
 648   0.0000       4.638928       126.2316 
 649   0.0000       4.649643       126.5232 
 650   0.0000       4.655185       126.6740 
 651   0.0000       4.664560       126.9291 
 652   0.0000       4.671238       127.1109 
 653   0.0000       4.684767       127.4790 
 654   0.0000       4.694197       127.7356 
 655   0.0000       4.710947       128.1914 
 656   0.0000       4.722977       128.5187 
 657   0.0000       4.728554       128.6705 
 658   0.0000       4.736803       128.8950 
 659   0.0000       4.743189       129.0687 
 660   0.0000       4.751407       129.2923 
 661   0.0000       4.763944       129.6335 
 662   0.0000       4.772187       129.8578 
 663   0.0000       4.796456       130.5182 
 664   0.0000       4.807792       130.8267 
 665   0.0000       4.816386       131.0605 
 666   0.0000       4.823389       131.2511 
 667   0.0000       4.844683       131.8305 
 668   0.0000       4.855203       132.1168 
 669   0.0000       4.866707       132.4298 
 670   0.0000       4.879155       132.7685 
 671   0.0000       4.890791       133.0852 
 672   0.0000       4.905413       133.4831 
 673   0.0000       4.934648       134.2786 
 674   0.0000       4.938009       134.3701 
 675   0.0000       4.968126       135.1896 
 676   0.0000       4.992495       135.8527 
 677   0.0000       5.002807       136.1333 
 678   0.0000       5.017357       136.5292 
 679   0.0000       5.030957       136.8993 
 680   0.0000       5.042091       137.2023 
 681   0.0000       5.045697       137.3004 
 682   0.0000       5.064760       137.8191 
 683   0.0000       5.075600       138.1141 
 684   0.0000       5.083015       138.3159 
 685   0.0000       5.098917       138.7486 
 686   0.0000       5.101321       138.8140 
 687   0.0000       5.103285       138.8675 
 688   0.0000       5.121898       139.3739 
 689   0.0000       5.130025       139.5951 
 690   0.0000       5.131984       139.6484 
 691   0.0000       5.155682       140.2932 
 692   0.0000       5.168155       140.6326 
 693   0.0000       5.181986       141.0090 
 694   0.0000       5.200584       141.5151 
 695   0.0000       5.214054       141.8816 
 696   0.0000       5.218314       141.9975 
 697   0.0000       5.225692       142.1983 
 698   0.0000       5.236621       142.4957 
 699   0.0000       5.249780       142.8538 
 700   0.0000       5.263900       143.2380 
 701   0.0000       5.269176       143.3816 
 702   0.0000       5.276445       143.5794 
 703   0.0000       5.292200       144.0081 
 704   0.0000       5.303753       144.3225 
 705   0.0000       5.315235       144.6349 
 706   0.0000       5.335608       145.1893 
 707   0.0000       5.338690       145.2731 
 708   0.0000       5.346120       145.4753 
 709   0.0000       5.356768       145.7651 
 710   0.0000       5.375658       146.2791 
 711   0.0000       5.394673       146.7965 
 712   0.0000       5.414118       147.3256 
 713   0.0000       5.439928       148.0280 
 714   0.0000       5.446888       148.2173 
 715   0.0000       5.458899       148.5442 
 716   0.0000       5.469415       148.8304 
 717   0.0000       5.485832       149.2771 
 718   0.0000       5.495018       149.5270 
 719   0.0000       5.514054       150.0450 
 720   0.0000       5.520636       150.2241 
 721   0.0000       5.529413       150.4630 
 722   0.0000       5.548273       150.9762 
 723   0.0000       5.565477       151.4443 
 724   0.0000       5.570625       151.5844 
 725   0.0000       5.583761       151.9419 
 726   0.0000       5.592731       152.1859 
 727   0.0000       5.603926       152.4906 
 728   0.0000       5.620307       152.9363 
 729   0.0000       5.633010       153.2820 
 730   0.0000       5.648673       153.7082 
 731   0.0000       5.652180       153.8036 
 732   0.0000       5.659937       154.0147 
 733   0.0000       5.663867       154.1217 
 734   0.0000       5.684579       154.6853 
 735   0.0000       5.695781       154.9901 
 736   0.0000       5.704081       155.2159 
 737   0.0000       5.719216       155.6278 
 738   0.0000       5.742319       156.2564 
 739   0.0000       5.756013       156.6291 
 740   0.0000       5.782406       157.3473 
 741   0.0000       5.783902       157.3880 
 742   0.0000       5.791678       157.5996 
 743   0.0000       5.821116       158.4006 
 744   0.0000       5.827216       158.5666 
 745   0.0000       5.837881       158.8568 
 746   0.0000       5.852570       159.2565 
 747   0.0000       5.864842       159.5905 
 748   0.0000       5.879572       159.9913 
 749   0.0000       5.894429       160.3956 
 750   0.0000       5.923673       161.1913 
 751   0.0000       5.944308       161.7529 
 752   0.0000       5.961465       162.2197 
 753   0.0000       5.980957       162.7501 
 754   0.0000       5.986526       162.9017 
 755   0.0000       6.012162       163.5992 
 756   0.0000       6.031112       164.1149 
 757   0.0000       6.047934       164.5727 
 758   0.0000       6.058951       164.8724 
 759   0.0000       6.078728       165.4106 
 760   0.0000       6.110959       166.2876 
 761   0.0000       6.141214       167.1109 
 762   0.0000       6.152230       167.4107 
 763   0.0000       6.183027       168.2487 
 764   0.0000       6.214739       169.1117 
 765   0.0000       6.246385       169.9728 
 766   0.0000       6.286263       171.0579 
 767   0.0000       6.302798       171.5079 
 768   0.0000       6.316839       171.8899 
 769   0.0000       6.336563       172.4267 
 770   0.0000       6.362823       173.1412 
 771   0.0000       6.374926       173.4705 
 772   0.0000       6.380762       173.6294 
 773   0.0000       6.407105       174.3462 
 774   0.0000       6.434759       175.0987 
 775   0.0000       6.445646       175.3949 
 776   0.0000       6.496603       176.7816 
 777   0.0000       6.502092       176.9309 
 778   0.0000       6.529862       177.6866 
 779   0.0000       6.554095       178.3460 
 780   0.0000       6.654456       181.0769 
 781   0.0000       6.676676       181.6816 
 782   0.0000       6.710120       182.5916 
 783   0.0000       6.760570       183.9645 
 784   0.0000       6.793781       184.8682 
 785   0.0000       6.873977       187.0504 
 786   0.0000       6.926816       188.4883 
 787   0.0000       6.932065       188.6311 
 788   0.0000       6.944359       188.9656 
 789   0.0000       6.955682       189.2737 
 790   0.0000       7.031986       191.3501 
 791   0.0000       7.043612       191.6664 
 792   0.0000       7.060122       192.1157 
 793   0.0000       7.090401       192.9396 
 794   0.0000       7.199353       195.9043 
 795   0.0000       7.243824       197.1145 
 796   0.0000       7.253211       197.3699 
 797   0.0000       7.286936       198.2876 
 798   0.0000       7.349118       199.9797 
 799   0.0000       7.379326       200.8017 
 800   0.0000       7.426268       202.0790 
 801   0.0000       7.494494       203.9355 
 802   0.0000       7.575230       206.1325 
 803   0.0000       7.606101       206.9725 
 804   0.0000       7.676844       208.8976 
 805   0.0000       7.707155       209.7224 
 806   0.0000       7.834048       213.1753 
 807   0.0000       7.982143       217.2052 
 808   0.0000       8.012603       218.0340 
 809   0.0000       9.229593       251.1500 
 810   0.0000       9.409947       256.0577 
 811   0.0000      10.582200       287.9563 
 812   0.0000      11.155096       303.5456 
 813   0.0000      11.684696       317.9567 
 814   0.0000      12.289189       334.4058 
 815   0.0000      12.719508       346.1154 
 816   0.0000      12.768207       347.4406 
 817   0.0000      12.807156       348.5004 
 818   0.0000      12.940724       352.1350 
 819   0.0000      13.271316       361.1309 
 820   0.0000      13.361724       363.5910 
 821   0.0000      13.395672       364.5148 
 822   0.0000      13.831442       376.3727 
 823   0.0000      13.970730       380.1629 
 824   0.0000      14.102109       383.7379 
 825   0.0000      14.245176       387.6309 
 826   0.0000      14.448379       393.1604 
 827   0.0000      15.828037       430.7028 

                    ********************************
                    * MULLIKEN POPULATION ANALYSIS *
                    ********************************

-----------------------
MULLIKEN ATOMIC CHARGES
-----------------------
   0 C :   -0.297247
   1 C :    0.049166
   2 O :   -0.373081
   3 C :    0.469850
   4 O :   -0.417990
   5 C :   -0.209809
   6 C :    0.158045
   7 C :   -0.276280
   8 N :   -0.125968
   9 C :    0.219246
  10 S :   -0.459475
  11 N :   -0.230243
  12 C :    0.080954
  13 C :   -0.033726
  14 C :   -0.141525
  15 C :   -0.132449
  16 C :   -0.254300
  17 C :    0.286356
  18 O :   -0.361536
  19 C :   -0.236136
  20 H :    0.122992
  21 H :    0.094051
  22 H :    0.097468
  23 H :    0.078768
  24 H :    0.108411
  25 H :    0.124497
  26 H :    0.102581
  27 H :    0.133084
  28 H :    0.200044
  29 H :    0.209540
  30 H :    0.152898
  31 H :    0.155758
  32 H :    0.159142
  33 H :    0.132415
  34 H :    0.243791
  35 H :    0.170709
Sum of atomic charges:    0.0000000

--------------------------------
MULLIKEN REDUCED ORBITAL CHARGES
--------------------------------
  0 C s       :     3.257392  s :     3.257392
      pz      :     1.032527  p :     2.959981
      px      :     0.904297
      py      :     1.023157
      dz2     :     0.019266  d :     0.075275
      dxz     :     0.022266
      dyz     :     0.005508
      dx2y2   :     0.017984
      dxy     :     0.010250
      f0      :     0.000883  f :     0.004599
      f+1     :     0.000681
      f-1     :     0.000508
      f+2     :     0.000636
      f-2     :     0.000211
      f+3     :     0.001108
      f-3     :     0.000572
  1 C s       :     3.155791  s :     3.155791
      pz      :     0.992960  p :     2.633689
      px      :     0.940303
      py      :     0.700426
      dz2     :     0.020296  d :     0.149971
      dxz     :     0.028077
      dyz     :     0.028980
      dx2y2   :     0.033656
      dxy     :     0.038963
      f0      :     0.000945  f :     0.011383
      f+1     :     0.001056
      f-1     :     0.001762
      f+2     :     0.001858
      f-2     :     0.000766
      f+3     :     0.002502
      f-3     :     0.002493
  2 O s       :     3.714510  s :     3.714510
      pz      :     1.652233  p :     4.625447
      px      :     1.780661
      py      :     1.192552
      dz2     :     0.003725  d :     0.030921
      dxz     :     0.002510
      dyz     :     0.013467
      dx2y2   :     0.005206
      dxy     :     0.006014
      f0      :     0.000195  f :     0.002203
      f+1     :     0.000028
      f-1     :     0.000356
      f+2     :     0.000511
      f-2     :     0.000213
      f+3     :     0.000421
      f-3     :     0.000480
  3 C s       :     3.065510  s :     3.065510
      pz      :     0.710497  p :     2.138799
      px      :     0.690325
[...]
 15 C s       :     2.695922  s :     2.695922
      pz      :     0.948685  p :     2.808364
      px      :     0.986979
      py      :     0.872700
      dz2     :     0.091273  d :     0.430941
      dxz     :     0.130868
      dyz     :     0.046640
      dx2y2   :     0.084091
      dxy     :     0.078068
      f0      :     0.008076  f :     0.044122
      f+1     :     0.006721
      f-1     :     0.004893
      f+2     :     0.007146
      f-2     :     0.005382
      f+3     :     0.005739
      f-3     :     0.006165
 16 C s       :     2.706073  s :     2.706073
      pz      :     0.983194  p :     2.855787
      px      :     0.950384
      py      :     0.922209
      dz2     :     0.117139  d :     0.385558
      dxz     :     0.094746
      dyz     :     0.072765
      dx2y2   :     0.051206
      dxy     :     0.049702
      f0      :     0.007854  f :     0.039205
      f+1     :     0.007569
      f-1     :     0.006211
      f+2     :     0.006462
      f-2     :     0.006090
      f+3     :     0.001846
      f-3     :     0.003173
 17 C s       :     2.703909  s :     2.703909
      pz      :     0.892575  p :     2.690071
      px      :     0.982877
      py      :     0.814619
      dz2     :     0.185842  d :     0.700231
      dxz     :     0.196971
      dyz     :     0.130408
      dx2y2   :     0.091957
      dxy     :     0.095052
      f0      :     0.023486  f :     0.097831
      f+1     :     0.017383
      f-1     :     0.013148
      f+2     :     0.017064
      f-2     :     0.014477
      f+3     :     0.006514
      f-3     :     0.005758
 18 O s       :     3.167121  s :     3.167121
      pz      :     1.458079  p :     4.364841
      px      :     1.324815
      py      :     1.581946
      dz2     :     0.023334  d :     0.073875
      dxz     :     0.017802
      dyz     :     0.012368
      dx2y2   :     0.010559
      dxy     :     0.009811
      f0      :     0.000995  f :     0.004225
      f+1     :     0.000933
      f-1     :     0.000557
      f+2     :     0.000468
      f-2     :     0.000379
      f+3     :     0.000410
      f-3     :     0.000483
 19 C s       :     2.700274  s :     2.700274
      pz      :     0.957691  p :     2.844666
      px      :     0.978566
      py      :     0.908408
      dz2     :     0.083181  d :     0.391049
      dxz     :     0.121854
      dyz     :     0.041714
      dx2y2   :     0.070806
      dxy     :     0.073494
      f0      :     0.006756  f :     0.040589
      f+1     :     0.006868
      f-1     :     0.004274
      f+2     :     0.006233
      f-2     :     0.005513
      f+3     :     0.005046
      f-3     :     0.005899
 20 H s       :     0.840261  s :     0.840261
      pz      :     0.070362  p :     0.152273
      px      :     0.036480
      py      :     0.045431
      dz2     :     0.009066  d :     0.027875
      dxz     :     0.008030
      dyz     :     0.008925
      dx2y2   :     0.001304
      dxy     :     0.000550
 21 H s       :     0.839257  s :     0.839257
      pz      :     0.045173  p :     0.157023
      px      :     0.042068
      py      :     0.069783
      dz2     :     0.002499  d :     0.028312
      dxz     :     0.000720
      dyz     :     0.009400
      dx2y2   :     0.007425
      dxy     :     0.008269
 22 H s       :     0.845932  s :     0.845932
      pz      :     0.050903  p :     0.151818
      px      :     0.051417
      py      :     0.049498
      dz2     :     0.006955  d :     0.027785
      dxz     :     0.005417
      dyz     :     0.004408
      dx2y2   :     0.006521
      dxy     :     0.004484
 23 H s       :     0.852200  s :     0.852200
      pz      :     0.066220  p :     0.150582
      px      :     0.052987
      py      :     0.031375
      dz2     :     0.009231  d :     0.027815
      dxz     :     0.006536
      dyz     :     0.005632
      dx2y2   :     0.003627
      dxy     :     0.002790
 24 H s       :     0.852503  s :     0.852503
      pz      :     0.060826  p :     0.143943
      px      :     0.041921
      py      :     0.041196
      dz2     :     0.007558  d :     0.027116
      dxz     :     0.005402
      dyz     :     0.006896
      dx2y2   :     0.003556
      dxy     :     0.003705
 25 H s       :     0.830878  s :     0.830878
      pz      :     0.050300  p :     0.151800
      px      :     0.039170
      py      :     0.062331
      dz2     :     0.005507  d :     0.027756
      dxz     :     0.003209
      dyz     :     0.007145
      dx2y2   :     0.005514
      dxy     :     0.006381
 26 H s       :     0.839390  s :     0.839390
      pz      :     0.042559  p :     0.151214
      px      :     0.069796
      py      :     0.038859
      dz2     :     0.002461  d :     0.027817
      dxz     :     0.008632
      dyz     :     0.001139
      dx2y2   :     0.007570
      dxy     :     0.008016
 27 H s       :     0.823878  s :     0.823878
      pz      :     0.063603  p :     0.154166
      px      :     0.047810
      py      :     0.042753
      dz2     :     0.007978  d :     0.027940
      dxz     :     0.006733
      dyz     :     0.007076
      dx2y2   :     0.003118
      dxy     :     0.003034
 28 H s       :     0.738233  s :     0.738233
      pz      :     0.098987  p :     0.252908
      px      :     0.111958
      py      :     0.041962
      dz2     :     0.014143  d :     0.061081
      dxz     :     0.016887
      dyz     :     0.004395
      dx2y2   :     0.014245
      dxy     :     0.011411
 29 H s       :     0.746173  s :     0.746173
      pz      :     0.072896  p :     0.252011
      px      :     0.069052
      py      :     0.110063
      dz2     :     0.009394  d :     0.061070
      dxz     :     0.003073
      dyz     :     0.017511
      dx2y2   :     0.013882
      dxy     :     0.017210
 30 H s       :     0.832375  s :     0.832375
      pz      :     0.079430  p :     0.152245
      px      :     0.038606
      py      :     0.034209
      dz2     :     0.010128  d :     0.028641
      dxz     :     0.008886
      dyz     :     0.007999
      dx2y2   :     0.001189
      dxy     :     0.000438
 31 H s       :     0.839570  s :     0.839570
      pz      :     0.062773  p :     0.156065
      px      :     0.043237
      py      :     0.050056
      dz2     :     0.008234  d :     0.027765
      dxz     :     0.007018
      dyz     :     0.006023
      dx2y2   :     0.003365
      dxy     :     0.003126
 32 H s       :     0.839029  s :     0.839029
      pz      :     0.068300  p :     0.152191
      px      :     0.044926
      py      :     0.038965
      dz2     :     0.008839  d :     0.026990
      dxz     :     0.007897
      dyz     :     0.005999
      dx2y2   :     0.002250
      dxy     :     0.002006
 33 H s       :     0.850752  s :     0.850752
      pz      :     0.035133  p :     0.159030
      px      :     0.075561
      py      :     0.048335
      dz2     :     0.002696  d :     0.027640
      dxz     :     0.007863
      dyz     :     0.001168
      dx2y2   :     0.008014
      dxy     :     0.007900
 34 H s       :     0.707973  s :     0.707973
      pz      :     0.076462  p :     0.346579
      px      :     0.158840
      py      :     0.111277
      dz2     :     0.008156  d :     0.097165
      dxz     :     0.025696
      dyz     :     0.003875
      dx2y2   :     0.029182
      dxy     :     0.030256
 35 H s       :     0.839133  s :     0.839133
      pz      :     0.066385  p :     0.159496
      px      :     0.049269
      py      :     0.043843
      dz2     :     0.008472  d :     0.028100
      dxz     :     0.007901
      dyz     :     0.005917
      dx2y2   :     0.002921
      dxy     :     0.002889


                      *****************************
                      * MAYER POPULATION ANALYSIS *
                      *****************************

  NA   - Mulliken gross atomic population
  ZA   - Total nuclear charge
  QA   - Mulliken gross atomic charge
  VA   - Mayer's total valence
  BVA  - Mayer's bonded valence
  FA   - Mayer's free valence

  ATOM       NA         ZA         QA         VA         BVA        FA
  0 C      6.2972     6.0000    -0.2972     3.8767     3.8767    -0.0000
  1 C      5.9508     6.0000     0.0492     3.8810     3.8810     0.0000
  2 O      8.3731     8.0000    -0.3731     2.0346     2.0346    -0.0000
  3 C      5.5301     6.0000     0.4699     4.2134     4.2134    -0.0000
  4 O      8.4180     8.0000    -0.4180     2.0973     2.0973    -0.0000
  5 C      6.2098     6.0000    -0.2098     3.6018     3.6018     0.0000
  6 C      5.8420     6.0000     0.1580     3.8371     3.8371     0.0000
  7 C      6.2763     6.0000    -0.2763     3.8897     3.8897    -0.0000
  8 N      7.1260     7.0000    -0.1260     3.2954     3.2954     0.0000
  9 C      5.7808     6.0000     0.2192     4.1010     4.1010     0.0000
 10 S     16.4595    16.0000    -0.4595     1.6593     1.6593     0.0000
 11 N      7.2302     7.0000    -0.2302     3.2943     3.2943     0.0000
 12 C      5.9190     6.0000     0.0810     3.9111     3.9111     0.0000
 13 C      6.0337     6.0000    -0.0337     3.7653     3.7653     0.0000
 14 C      6.1415     6.0000    -0.1415     3.8549     3.8549     0.0000
 15 C      6.1324     6.0000    -0.1324     3.8040     3.8040     0.0000
 16 C      6.2543     6.0000    -0.2543     3.8015     3.8015    -0.0000
 17 C      5.7136     6.0000     0.2864     3.9035     3.9035    -0.0000
 18 O      8.3615     8.0000    -0.3615     2.1065     2.1065    -0.0000
 19 C      6.2361     6.0000    -0.2361     3.8176     3.8176     0.0000
 20 H      0.8770     1.0000     0.1230     0.9801     0.9801    -0.0000
 21 H      0.9059     1.0000     0.0941     0.9759     0.9759    -0.0000
 22 H      0.9025     1.0000     0.0975     0.9849     0.9849    -0.0000
 23 H      0.9212     1.0000     0.0788     0.9741     0.9741     0.0000
 24 H      0.8916     1.0000     0.1084     0.9741     0.9741     0.0000
 25 H      0.8755     1.0000     0.1245     0.9849     0.9849     0.0000
 26 H      0.8974     1.0000     0.1026     0.9856     0.9856    -0.0000
 27 H      0.8669     1.0000     0.1331     0.9794     0.9794     0.0000
 28 H      0.8000     1.0000     0.2000     1.0221     1.0221     0.0000
 29 H      0.7905     1.0000     0.2095     1.0043     1.0043     0.0000
 30 H      0.8471     1.0000     0.1529     0.9815     0.9815     0.0000
 31 H      0.8442     1.0000     0.1558     0.9922     0.9922     0.0000
 32 H      0.8409     1.0000     0.1591     0.9736     0.9736    -0.0000
 33 H      0.8676     1.0000     0.1324     0.9909     0.9909     0.0000
 34 H      0.7562     1.0000     0.2438     1.0104     1.0104    -0.0000
 35 H      0.8293     1.0000     0.1707     0.9888     0.9888     0.0000

  Mayer bond orders larger than 0.100000
B(  0-C ,  1-C ) :   0.9751 B(  0-C , 20-H ) :   0.9733 B(  0-C , 21-H ) :   0.9740 
B(  0-C , 22-H ) :   0.9756 B(  1-C ,  2-O ) :   0.9075 B(  1-C , 23-H ) :   0.9767 
B(  1-C , 24-H ) :   0.9827 B(  2-O ,  3-C ) :   1.1333 B(  3-C ,  4-O ) :   2.0009 
B(  3-C ,  5-C ) :   1.0483 B(  5-C ,  6-C ) :   1.6189 B(  5-C , 12-C ) :   0.9585 
B(  6-C ,  7-C ) :   0.9562 B(  6-C ,  8-N ) :   1.1626 B(  7-C , 25-H ) :   0.9682 
B(  7-C , 26-H ) :   0.9863 B(  7-C , 27-H ) :   0.9613 B(  8-N ,  9-C ) :   1.1678 
B(  8-N , 28-H ) :   0.9469 B(  9-C , 10-S ) :   1.5131 B(  9-C , 11-N ) :   1.3610 
B( 11-N , 12-C ) :   0.9425 B( 11-N , 29-H ) :   0.9437 B( 12-C , 13-C ) :   0.9757 
B( 12-C , 30-H ) :   0.9896 B( 13-C , 14-C ) :   1.3583 B( 13-C , 19-C ) :   1.3673 
B( 14-C , 15-C ) :   1.4169 B( 14-C , 31-H ) :   0.9676 B( 15-C , 16-C ) :   1.3445 
B( 15-C , 32-H ) :   0.9708 B( 16-C , 17-C ) :   1.3524 B( 16-C , 33-H ) :   0.9806 
B( 17-C , 18-O ) :   1.1103 B( 17-C , 19-C ) :   1.3611 B( 18-O , 34-H ) :   0.9737 
B( 19-C , 35-H ) :   0.9534 

-------
TIMINGS
-------

Total SCF time: 0 days 1 hours 57 min 32 sec 

Total time                  ....    7052.709 sec
Sum of individual times     ....    7049.110 sec  ( 99.9%)

Fock matrix formation       ....    7035.578 sec  ( 99.8%)
Diagonalization             ....       1.562 sec  (  0.0%)
Density matrix formation    ....       0.209 sec  (  0.0%)
Population analysis         ....       0.280 sec  (  0.0%)
Initial guess               ....       6.418 sec  (  0.1%)
Orbital Transformation      ....       0.000 sec  (  0.0%)
Orbital Orthonormalization  ....       0.000 sec  (  0.0%)
DIIS solution               ....       1.592 sec  (  0.0%)
SOSCF solution              ....       1.960 sec  (  0.0%)

Maximum memory used throughout the entire SCF-calculation: 707.2 MB

------------------------------------------------------------------------------
                                ORCA  MP2 
------------------------------------------------------------------------------

Freezing NCore=48 chemical core electrons

-------------
RI-MP2 ENERGY
-------------
Dimension of the basis                    ...  828
Memory devoted to MP2                     ...  256 MB   
Data format for buffers                   ... DOUBLE
Compression type for matrix containers    ... UNCOMPRESSED
Overall scaling of the MP2 energy         ...   1.000e+00
Calculating two index integrals           ... done (    0.091 sec)
Cholesky decomposition of V**-1           ... done (    0.652 sec)

-----------------
RI-TRANSFORMATION (AUX index driven)
-----------------

Dimension of the orbital-basis         ... 828
Dimension of the aux-basis             ... 2141
Transformation of internal/external MOs...   24-  76 to   77- 827
Number Format for Storage              ... Double (8 Byte)
Integral mode                          ... Direct

First Phase: integral generation and transformation of MO indices
  Aux angular momentum 0               ... done (    5.781 sec)
  Aux angular momentum 1               ... done (    9.986 sec)
  Aux angular momentum 2               ... done (   13.197 sec)
  Aux angular momentum 3               ... done (   10.329 sec)
  Aux angular momentum 4               ... done (    3.593 sec)
Closing buffer VIA ( 0.63 GB; CompressionRatio= 1.00)
  Phase 1 completed in    43.104 sec
Second Phase: sorting and transformation of aux index

IA-Transformation
Memory available                       ... 158 MB 
Max. # MO pairs treated in a batch     ... 11    
# of internal orbitals                 ... 53
# batches for internal orbitals        ... 5
Closing buffer IAV ( 0.63 GB; CompressionRatio= 1.00)
(ia|v) transformation done in    20.554 sec

  Phase 2 completed in    20.563 sec
RI-Integral transformation completed in    63.672 sec
Opening buffers                              ... done

Starting loop over batches of integrals:

Operator 0  - window                       ... ( 24- 76)x( 77-827)
Operator 0  - Memory available             ...   256 MB
Operator 0  - Memory needed per MO         ...  12.3 MB
Operator 0  - Number of orbitals per batch ... 13
Operator 0  - Number of batches            ... 5

OPERATOR  0   PASS   0:  MOs    24 ...   36
  Reading integrals       ... ok
  Internal MO  26
  Internal MO  29
  Internal MO  32
  Internal MO  35
OPERATOR  0   PASS   1:  MOs    37 ...   49
  Reading integrals       ... ok
  Internal MO  38
  Internal MO  41
  Internal MO  44
  Internal MO  47
OPERATOR  0   PASS   2:  MOs    50 ...   62
  Reading integrals       ... ok
  Internal MO  50
  Internal MO  53
  Internal MO  56
  Internal MO  59
  Internal MO  62
OPERATOR  0   PASS   3:  MOs    63 ...   75
  Reading integrals       ... ok
  Internal MO  65
  Internal MO  68
  Internal MO  71
  Internal MO  74
OPERATOR  0   PASS   4:  MOs    76 ...   76
  Reading integrals       ... ok
Time spent in pair loops =   131.281 sec
Deleting buffer (Ka|jb)[aa] ...done

-----------------------------------------------
 RI-MP2 CORRELATION ENERGY:     -3.531930868 Eh
-----------------------------------------------


-------
TIMINGS
-------

Total time                :  195.801 sec
Integral trafo            :   63.697 sec ( 32.5%)
I/O of integrals          :    0.947 sec (  0.5%)
K(i,j) Operators          :   72.185 sec ( 36.9%)
T(i,j) pair energies      :   11.606 sec (  5.9%)
V-calculation             :    0.091 sec (  0.0%)
V**(-1/2)                 :    0.652 sec (  0.3%)
Gamma(ia|P)               :    0.000 sec (  0.0%)
Gamma-Trafo               :    0.000 sec (  0.0%)
D(virtual)                :    0.000 sec (  0.0%)
D(internal)               :    0.000 sec (  0.0%)
W(virtual)                :    0.000 sec (  0.0%)
W(internal)               :    0.000 sec (  0.0%)
L(virtual)                :    0.000 sec (  0.0%)
L(internal)               :    0.000 sec (  0.0%)
G(D)                      :    0.000 sec (  0.0%)
G(Z)                      :    0.000 sec (  0.0%)
Z-Vector Solution         :    0.000 sec (  0.0%)
3-Index Derivative        :    0.000 sec (  0.0%)
2-Index Derivative        :    0.000 sec (  0.0%)
Separable Gradient        :    0.000 sec (  0.0%)


---------------------------------------
MP2 TOTAL ENERGY:    -1274.302281344 Eh
---------------------------------------

Maximum memory used throughout the entire MP2-calculation: 302.0 MB

-------------------------   --------------------
FINAL SINGLE POINT ENERGY     -1274.302281343769
-------------------------   --------------------


                            ***************************************
                            *     ORCA property calculations      *
                            ***************************************


  WARNING: The energy has been calculated at the MP2 level but the densities
           used in the property calculations are still SCF densities
           MP2 response densities have not been calculated 
           use %mp2 Density relaxed end
           or  %mp2 Density unrelaxed end

                                    ---------------------
                                    Active property flags
                                    ---------------------
   (+) Dipole Moment


------------------------------------------------------------------------------
                       ORCA ELECTRIC PROPERTIES CALCULATION
------------------------------------------------------------------------------

Dipole Moment Calculation                       ... on
Quadrupole Moment Calculation                   ... off
Polarizability Calculation                      ... off
GBWName                                         ... qm_input.vacu.gbw
Electron density file                           ... qm_input.vacu.scfp
The origin for moment calculation is the CENTER OF MASS  = (-20.728805, -28.239198 11.458068)

-------------
DIPOLE MOMENT
-------------
                                X             Y             Z
Electronic contribution:     -5.44931     -16.97686      -2.60531
Nuclear contribution   :      6.18398      18.75208       2.96780
                        -----------------------------------------
Total Dipole Moment    :      0.73467       1.77521       0.36249
                        -----------------------------------------
Magnitude (a.u.)       :      1.95513
Magnitude (Debye)      :      4.96954



--------------------
Rotational spectrum 
--------------------
 
Rotational constants in cm-1:     0.009611     0.009112     0.005307 
Rotational constants in MHz :   288.141819   273.168767   159.109576 

 Dipole components along the rotational axes: 
x,y,z [a.u.] :    -1.941919    -0.079963    -0.212324 
x,y,z [Debye]:    -4.935967    -0.203249    -0.539684 

 

Timings for individual modules:

Sum of individual times         ...     7251.626 sec (= 120.860 min)
GTO integral calculation        ...        2.087 sec (=   0.035 min)   0.0 %
SCF iterations                  ...     7052.946 sec (= 117.549 min)  97.3 %
MP2 module                      ...      196.593 sec (=   3.277 min)   2.7 %
                             ****ORCA TERMINATED NORMALLY****
TOTAL RUN TIME: 0 days 2 hours 0 minutes 52 seconds 843 msec
