
                                        *****************
                                        * O   R   C   A *
                                        *****************

                                            #,                                       
                                            ###                                      
                                            ####                                     
                                            #####                                    
                                            ######                                   
                                           ########,                                 
                                     ,,################,,,,,                         
                               ,,#################################,,                 
                          ,,##########################################,,             
                       ,#########################################, ''#####,          
                    ,#############################################,,   '####,        
                  ,##################################################,,,,####,       
                ,###########''''           ''''###############################       
              ,#####''   ,,,,##########,,,,          '''####'''          '####       
            ,##' ,,,,###########################,,,                        '##       
           ' ,,###''''                  '''############,,,                           
         ,,##''                                '''############,,,,        ,,,,,,###''
      ,#''                                            '''#######################'''  
     '                                                          ''''####''''         
             ,#######,   #######,   ,#######,      ##                                
            ,#'     '#,  ##    ##  ,#'     '#,    #''#        ######   ,####,        
            ##       ##  ##   ,#'  ##            #'  '#       #        #'  '#        
            ##       ##  #######   ##           ,######,      #####,   #    #        
            '#,     ,#'  ##    ##  '#,     ,#' ,#      #,         ##   #,  ,#        
             '#######'   ##     ##  '#######'  #'      '#     #####' # '####'        



                  #######################################################
                  #                        -***-                        #
                  #          Department of theory and spectroscopy      #
                  #    Directorship and core code : Frank Neese         #
                  #        Max Planck Institute fuer Kohlenforschung    #
                  #                Kaiser Wilhelm Platz 1               #
                  #                 D-45470 Muelheim/Ruhr               #
                  #                      Germany                        #
                  #                                                     #
                  #                  All rights reserved                #
                  #                        -***-                        #
                  #######################################################


                         Program Version 5.0.0 -  RELEASE  -
                                (SVN: $Rev: 19529$)
                ($Date: 2021-06-28 11:36:33 +0200 (Mo, 28 Jun 2021) $)


 With contributions from (in alphabetic order):
   Daniel Aravena         : Magnetic Suceptibility
   Michael Atanasov       : Ab Initio Ligand Field Theory (pilot matlab implementation)
   Alexander A. Auer      : GIAO ZORA, VPT2 properties, NMR spectrum
   Ute Becker             : Parallelization
   Giovanni Bistoni       : ED, misc. LED, open-shell LED, HFLD
   Martin Brehm           : Molecular dynamics
   Dmytro Bykov           : SCF Hessian
   Vijay G. Chilkuri      : MRCI spin determinant printing, contributions to CSF-ICE
   Dipayan Datta          : RHF DLPNO-CCSD density
   Achintya Kumar Dutta   : EOM-CC, STEOM-CC
   Dmitry Ganyushin       : Spin-Orbit,Spin-Spin,Magnetic field MRCI
   Miquel Garcia          : C-PCM Hessian, Gaussian charge scheme
   Yang Guo               : DLPNO-NEVPT2, F12-NEVPT2, CIM, IAO-localization
   Andreas Hansen         : Spin unrestricted coupled pair/coupled cluster methods
   Benjamin Helmich-Paris : MC-RPA, TRAH-SCF, COSX integrals
   Lee Huntington         : MR-EOM, pCC
   Robert Izsak           : Overlap fitted RIJCOSX, COSX-SCS-MP3, EOM
   Marcus Kettner         : VPT2
   Christian Kollmar      : KDIIS, OOCD, Brueckner-CCSD(T), CCSD density, CASPT2, CASPT2-K
   Simone Kossmann        : Meta GGA functionals, TD-DFT gradient, OOMP2, MP2 Hessian
   Martin Krupicka        : Initial AUTO-CI
   Lucas Lang             : DCDCAS
   Marvin Lechner         : AUTO-CI (C++ implementation), FIC-MRCC
   Dagmar Lenk            : GEPOL surface, SMD
   Dimitrios Liakos       : Extrapolation schemes; Compound Job, initial MDCI parallelization
   Dimitrios Manganas     : Further ROCIS development; embedding schemes
   Dimitrios Pantazis     : SARC Basis sets
   Anastasios Papadopoulos: AUTO-CI, single reference methods and gradients
   Taras Petrenko         : DFT Hessian,TD-DFT gradient, ASA, ECA, R-Raman, ABS, FL, XAS/XES, NRVS
   Peter Pinski           : DLPNO-MP2, DLPNO-MP2 Gradient
   Christoph Reimann      : Effective Core Potentials
   Marius Retegan         : Local ZFS, SOC
   Christoph Riplinger    : Optimizer, TS searches, QM/MM, DLPNO-CCSD(T), (RO)-DLPNO pert. Triples
   Tobias Risthaus        : Range-separated hybrids, TD-DFT gradient, RPA, STAB
   Michael Roemelt        : Original ROCIS implementation
   Masaaki Saitow         : Open-shell DLPNO-CCSD energy and density
   Barbara Sandhoefer     : DKH picture change effects
   Avijit Sen             : IP-ROCIS
   Kantharuban Sivalingam : CASSCF convergence, NEVPT2, FIC-MRCI
   Bernardo de Souza      : ESD, SOC TD-DFT
   Georgi Stoychev        : AutoAux, RI-MP2 NMR
   Willem Van den Heuvel  : Paramagnetic NMR
   Boris Wezisla          : Elementary symmetry handling
   Frank Wennmohs         : Technical directorship


 We gratefully acknowledge several colleagues who have allowed us to
 interface, adapt or use parts of their codes:
   Stefan Grimme, W. Hujo, H. Kruse, P. Pracht,  : VdW corrections, initial TS optimization,
                  C. Bannwarth, S. Ehlert          DFT functionals, gCP, sTDA/sTD-DF
   Ed Valeev, F. Pavosevic, A. Kumar             : LibInt (2-el integral package), F12 methods
   Garnet Chan, S. Sharma, J. Yang, R. Olivares  : DMRG
   Ulf Ekstrom                                   : XCFun DFT Library
   Mihaly Kallay                                 : mrcc  (arbitrary order and MRCC methods)
   Jiri Pittner, Ondrej Demel                    : Mk-CCSD
   Frank Weinhold                                : gennbo (NPA and NBO analysis)
   Christopher J. Cramer and Donald G. Truhlar   : smd solvation model
   Lars Goerigk                                  : TD-DFT with DH, B97 family of functionals
   V. Asgeirsson, H. Jonsson                     : NEB implementation
   FAccTs GmbH                                   : IRC, NEB, NEB-TS, DLPNO-Multilevel, CI-OPT
                                                   MM, QMMM, 2- and 3-layer-ONIOM, Crystal-QMMM,
                                                   LR-CPCM, SF, NACMEs, symmetry and pop. for TD-DFT,
                                                   nearIR, NL-DFT gradient (VV10), updates on ESD,
                                                   ML-optimized integration grids
   S Lehtola, MJT Oliveira, MAL Marques          : LibXC Library
   Liviu Ungur et al                             : ANISO software


 Your calculation uses the libint2 library for the computation of 2-el integrals
 For citations please refer to: http://libint.valeyev.net

 Your ORCA version has been built with support for libXC version: 5.1.0
 For citations please refer to: https://tddft.org/programs/libxc/

 This ORCA versions uses:
   CBLAS   interface :  Fast vector & matrix operations
   LAPACKE interface :  Fast linear algebra routines
   SCALAPACK package :  Parallel linear algebra routines
   Shared memory     :  Shared parallel matrices
   BLAS/LAPACK       :  OpenBLAS 0.3.15  USE64BITINT DYNAMIC_ARCH NO_AFFINITY SkylakeX SINGLE_THREADED
        Core in use  :  SkylakeX
   Copyright (c) 2011-2014, The OpenBLAS Project


================================================================================

----- Orbital basis set information -----
Your calculation utilizes the basis: cc-pVTZ 
       H, B-Ne : Obtained from the ccRepo (grant-hill.group.shef.ac.uk/ccrepo) Feb. 2017
                 T. H. Dunning, Jr., J. Chem. Phys. 90, 1007 (1989)
            He : Obtained from the ccRepo (grant-hill.group.shef.ac.uk/ccrepo) Feb. 2017
                 D. E. Woon, T. H. Dunning, Jr., J. Chem. Phys. 100, 2975 (1994)
  Li-Be, Na-Mg : Obtained from the ccRepo (grant-hill.group.shef.ac.uk/ccrepo) Feb. 2017
                 B. P. Prascher, D. E. Woon, K. A. Peterson, T. H. Dunning, Jr., A. K. Wilson, Theor. Chem. Acc. 128, 69 (2011)
         Al-Ar : Obtained from the ccRepo (grant-hill.group.shef.ac.uk/ccrepo) Feb. 2017
                 D. E. Woon, T. H. Dunning, Jr., J. Chem. Phys. 98, 1358 (1993)
            Ca : Obtained from the Peterson Research Group Website (tyr0.chem.wsu.edu/~kipeters) Feb. 2017
                 J. Koput, K. A. Peterson, J. Phys. Chem. 106, 9595 (2002)
         Sc-Zn : Obtained from the ccRepo (grant-hill.group.shef.ac.uk/ccrepo) Feb. 2017
                 N. B. Balabanov, K. A. Peterson, J. Chem. Phys. 123, 064107 (2005)
                 N. B. Balabanov, K. A. Peterson, J. Chem. Phys. 125, 074110 (2006)
         Ga-Kr : Obtained from the ccRepo (grant-hill.group.shef.ac.uk/ccrepo) Feb. 2017
                 A. K. Wilson, D. E. Woon, K. A. Peterson, T. H. Dunning, Jr., J. Chem. Phys. 110, 7667 (1999)
             Y : Obtained from the ccRepo (grant-hill.group.shef.ac.uk/ccrepo) Feb. 2017
                 K. A. Peterson, D. Figgen, M. Dolg, H. Stoll, J. Chem. Phys. 126, 124101 (2007)
        Ag, Au : Obtained from the Peterson Research Group Website (tyr0.chem.wsu.edu/~kipeters) Feb. 2017
                 K. A. Peterson, C. Puzzarini, Theor. Chem. Acc. 114, 283 (2005)

----- AuxC basis set information -----
Your calculation utilizes the auxiliary basis: cc-pVTZ/C 
  Obtained from the EMSL Basis Set Exchange (bse.pnl.gov) Feb. 2017
  H-He, B-F, Al-Ar, Ga-Kr : F. Weigend, A. Kohn, C. Hattig, J. Chem. Phys. 116, 3175 (2002)
             Li-Be, Na-Mg : C. Haettig, Phys. Chem. Chem. Phys. 7, 59 (2005)
                       Ne : C. Haettig, Phys. Chem. Chem. Phys. 7, 59 (2005)
                            F. Weigend, A. Kohn, C. Hattig, J. Chem. Phys. 116, 3175 (2002)
                    Sc-Zn : J. G. Hill, J. A. Platts, J. Chem. Phys. 128, 044104 (2008)

================================================================================
                                        WARNINGS
                       Please study these warnings very carefully!
================================================================================


WARNING: No MP2 level density has been requested!
         To caclulate MP2 level properties use
         %mp2 Density relaxed end
         or
         %mp2 Density unrelaxed end

WARNING: Post HF methods need fully converged wavefunctions
  ===> : Setting SCFConvForced true
         You can overwrite this default with %scf ConvForced false 


INFO   : the flag for use of the SHARK integral package has been found!

================================================================================
                                       INPUT FILE
================================================================================
NAME = qm_input.solv
|  1> ! RI-MP2 cc-pVTZ cc-pVTZ/c TightSCF KeepDens NoKeepInts
|  2> 
|  3> %pointcharges "srfp_output"
|  4> 
|  5> *xyz  0  1
|  6>     C    -9.4279564  -10.3369168    6.7846366
|  7>     C   -10.8834331  -10.4877623    6.3784985
|  8>     O   -11.2981897  -11.8282492    6.0078743
|  9>     C   -11.2046405  -12.9561161    6.8107670
| 10>     O   -10.6191586  -12.8703794    7.8590177
| 11>     C   -11.9278325  -14.1303754    6.2309457
| 12>     C   -12.9378189  -14.0775784    5.2770052
| 13>     C   -13.6545144  -12.8959314    4.6467346
| 14>     N   -13.5587393  -15.2450771    4.8850260
| 15>     C   -13.1454514  -16.5298158    5.2008046
| 16>     S   -14.0113341  -17.8674542    4.5398928
| 17>     N   -12.1786650  -16.6366505    6.1512701
| 18>     C   -11.4555713  -15.4933444    6.8464085
| 19>     C    -9.9491658  -15.7857407    6.8155029
| 20>     C    -9.1541439  -15.5578459    7.9844249
| 21>     C    -7.8808308  -16.0351455    8.0602849
| 22>     C    -7.3261903  -16.7819555    7.0066059
| 23>     C    -8.0364793  -16.9397956    5.7867028
| 24>     O    -7.4237962  -17.3470041    4.6408120
| 25>     C    -9.3276549  -16.4473882    5.7108162
| 26>     H    -9.1688746  -10.5400568    7.8309652
| 27>     H    -9.0778288   -9.2997218    6.7151579
| 28>     H    -8.7652167  -10.8860114    6.1045919
| 29>     H   -11.4430825  -10.1119696    7.2438106
| 30>     H   -11.2052875   -9.8312917    5.5607908
| 31>     H   -13.7164238  -11.9906679    5.2630541
| 32>     H   -14.7064399  -13.1234409    4.4348811
| 33>     H   -13.0507625  -12.6546863    3.7632870
| 34>     H   -14.4230742  -15.1339831    4.3687344
| 35>     H   -11.9316325  -17.5388757    6.5397685
| 36>     H   -11.7688104  -15.5988751    7.8923216
| 37>     H    -9.6709240  -15.1310116    8.8389112
| 38>     H    -7.3675824  -15.8759774    9.0040240
| 39>     H    -6.3094591  -17.1612721    7.0487272
| 40>     H    -6.5159927  -17.6929752    4.6949034
| 41>     H    -9.9222909  -16.6604456    4.8274035
| 42> *
| 43> 
| 44>                          ****END OF INPUT****
================================================================================

                       ****************************
                       * Single Point Calculation *
                       ****************************

---------------------------------
CARTESIAN COORDINATES (ANGSTROEM)
---------------------------------
  C     -9.427956  -10.336917    6.784637
  C    -10.883433  -10.487762    6.378499
  O    -11.298190  -11.828249    6.007874
  C    -11.204641  -12.956116    6.810767
  O    -10.619159  -12.870379    7.859018
  C    -11.927832  -14.130375    6.230946
  C    -12.937819  -14.077578    5.277005
  C    -13.654514  -12.895931    4.646735
  N    -13.558739  -15.245077    4.885026
  C    -13.145451  -16.529816    5.200805
  S    -14.011334  -17.867454    4.539893
  N    -12.178665  -16.636650    6.151270
  C    -11.455571  -15.493344    6.846408
  C     -9.949166  -15.785741    6.815503
  C     -9.154144  -15.557846    7.984425
  C     -7.880831  -16.035145    8.060285
  C     -7.326190  -16.781955    7.006606
  C     -8.036479  -16.939796    5.786703
  O     -7.423796  -17.347004    4.640812
  C     -9.327655  -16.447388    5.710816
  H     -9.168875  -10.540057    7.830965
  H     -9.077829   -9.299722    6.715158
  H     -8.765217  -10.886011    6.104592
  H    -11.443082  -10.111970    7.243811
  H    -11.205288   -9.831292    5.560791
  H    -13.716424  -11.990668    5.263054
  H    -14.706440  -13.123441    4.434881
  H    -13.050762  -12.654686    3.763287
  H    -14.423074  -15.133983    4.368734
  H    -11.931632  -17.538876    6.539769
  H    -11.768810  -15.598875    7.892322
  H     -9.670924  -15.131012    8.838911
  H     -7.367582  -15.875977    9.004024
  H     -6.309459  -17.161272    7.048727
  H     -6.515993  -17.692975    4.694903
  H     -9.922291  -16.660446    4.827403

----------------------------
CARTESIAN COORDINATES (A.U.)
----------------------------
  NO LB      ZA    FRAG     MASS         X           Y           Z
   0 C     6.0000    0    12.011  -17.816256  -19.533942   12.821105
   1 C     6.0000    0    12.011  -20.566708  -19.818999   12.053615
   2 O     8.0000    0    15.999  -21.350484  -22.352152   11.353237
   3 C     6.0000    0    12.011  -21.173702  -24.483511   12.870484
   4 O     8.0000    0    15.999  -20.067302  -24.321492   14.851391
   5 C     6.0000    0    12.011  -22.540337  -26.702540   11.774781
   6 C     6.0000    0    12.011  -24.448934  -26.602768    9.972095
   7 C     6.0000    0    12.011  -25.803293  -24.369779    8.781056
   8 N     7.0000    0    14.007  -25.622304  -28.809021    9.231361
   9 C     6.0000    0    12.011  -24.841303  -31.236825    9.828096
  10 S    16.0000    0    32.060  -26.477584  -33.764595    8.579154
  11 N     7.0000    0    14.007  -23.014342  -31.438713   11.624216
  12 C     6.0000    0    12.011  -21.647892  -29.278178   12.937837
  13 C     6.0000    0    12.011  -18.801199  -29.830727   12.879434
  14 C     6.0000    0    12.011  -17.298825  -29.400068   15.088376
  15 C     6.0000    0    12.011  -14.892612  -30.302034   15.231731
  16 C     6.0000    0    12.011  -13.844493  -31.713300   13.240566
  17 C     6.0000    0    12.011  -15.186745  -32.011574   10.935284
  18 O     8.0000    0    15.999  -14.028942  -32.781087    8.769864
  19 C     6.0000    0    12.011  -17.626713  -31.081059   10.791879
  20 H     1.0000    0     1.008  -17.326662  -19.917821   14.798380
  21 H     1.0000    0     1.008  -17.154610  -17.573927   12.689809
  22 H     1.0000    0     1.008  -16.563859  -20.571580   11.536007
  23 H     1.0000    0     1.008  -21.624292  -19.108853   13.688818
  24 H     1.0000    0     1.008  -21.174925  -18.578449   10.508372
  25 H     1.0000    0     1.008  -25.920285  -22.659078    9.945731
  26 H     1.0000    0     1.008  -27.791144  -24.799709    8.380711
  27 H     1.0000    0     1.008  -24.662367  -23.913891    7.111582
  28 H     1.0000    0     1.008  -27.255660  -28.599083    8.255712
  29 H     1.0000    0     1.008  -22.547518  -33.143672   12.358371
  30 H     1.0000    0     1.008  -22.239829  -29.477602   14.914326
  31 H     1.0000    0     1.008  -18.275398  -28.593468   16.703121
  32 H     1.0000    0     1.008  -13.922713  -30.001249   17.015139
  33 H     1.0000    0     1.008  -11.923150  -32.430104   13.320164
  34 H     1.0000    0     1.008  -12.313442  -33.434878    8.872082
  35 H     1.0000    0     1.008  -18.750412  -31.483679    9.122471

--------------------------------
INTERNAL COORDINATES (ANGSTROEM)
--------------------------------
 C      0   0   0     0.000000000000     0.00000000     0.00000000
 C      1   0   0     1.518589788384     0.00000000     0.00000000
 O      2   1   0     1.451306467959   115.71850488     0.00000000
 C      3   2   1     1.387613737554   125.71237137    57.60386679
 O      4   3   2     1.203731434750   118.60542176   352.43550107
 C      4   3   2     1.496022831522   112.40463271   170.16289643
 C      6   4   3     1.390274263926   125.96622031   339.46248867
 C      7   6   4     1.518941441121   131.07378504   354.74884342
 N      7   6   4     1.379218275282   119.33491376   183.19937441
 C      9   7   6     1.386029054451   125.84830364   349.61620929
 S     10   9   7     1.725060505227   118.80245721   183.33893515
 N     10   9   7     1.359953772391   116.36077187    11.29725763
 C     12  10   9     1.520930876941   126.75226228   356.49220078
 C     13  12  10     1.534831678978   108.31330663   227.83380533
 C     14  13  12     1.431912882626   119.87938603   223.18807785
 C     15  14  13     1.361945629749   120.58245468   167.86651484
 C     16  15  14     1.405557076529   120.88894204   358.81483219
 C     17  16  15     1.420418084255   120.36747011     6.30843173
 O     18  17  16     1.361714018810   122.06974556   162.90939221
 C     18  17  16     1.383964686569   118.29979724   354.17646855
 H      1   2   3     1.096901444009   117.58705251   274.37511375
 H      1   2   3     1.096900220649   112.51448905   160.03368699
 H      1   2   3     1.096899988013   111.31842965    43.79835984
 H      2   1   3     1.096901378748   104.12247723   123.16505556
 H      2   1   3     1.096900080273   114.90726103   235.62956872
 H      8   7   6     1.096897672675   115.81815742   332.02801188
 H      8   7   6     1.096900057254   111.79457140   214.42589645
 H      8   7   6     1.096902555824   104.21621675    89.98185688
 H      9   7   6     1.012903604705   115.86070216   165.68865799
 H     12  10   9     1.012899982414   120.75804303   170.16770833
 H     13  12  10     1.096900029703   103.16258972   115.40457775
 H     15  14  13     1.086000013030   116.14591958   357.00340871
 H     16  15  14     1.086002713178   116.03287061   183.83007538
 H     17  16  15     1.086000745857   121.73161730   179.42764172
 H     19  18  17     0.973000039158   118.64205505    11.30135017
 H     20  18  17     1.086003419291   119.05421098   186.97023115

---------------------------
INTERNAL COORDINATES (A.U.)
---------------------------
 C      0   0   0     0.000000000000     0.00000000     0.00000000
 C      1   0   0     2.869718809816     0.00000000     0.00000000
 O      2   1   0     2.742571760832   115.71850488     0.00000000
 C      3   2   1     2.622209943645   125.71237137    57.60386679
 O      4   3   2     2.274722750469   118.60542176   352.43550107
 C      4   3   2     2.827073441669   112.40463271   170.16289643
 C      6   4   3     2.627237609859   125.96622031   339.46248867
 C      7   6   4     2.870383337182   131.07378504   354.74884342
 N      7   6   4     2.606344819181   119.33491376   183.19937441
 C      9   7   6     2.619215326570   125.84830364   349.61620929
 S     10   9   7     3.259891919322   118.80245721   183.33893515
 N     10   9   7     2.569940184611   116.36077187    11.29725763
 C     12  10   9     2.874142826043   126.75226228   356.49220078
 C     13  12  10     2.900411534935   108.31330663   227.83380533
 C     14  13  12     2.705923195797   119.87938603   223.18807785
 C     15  14  13     2.573704249516   120.58245468   167.86651484
 C     16  15  14     2.656117940235   120.88894204   358.81483219
 C     17  16  15     2.684201174911   120.36747011     6.30843173
 O     18  17  16     2.573266568271   122.06974556   162.90939221
 C     18  17  16     2.615314236633   118.29979724   354.17646855
 H      1   2   3     2.072843325080   117.58705251   274.37511375
 H      1   2   3     2.072841013265   112.51448905   160.03368699
 H      1   2   3     2.072840573646   111.31842965    43.79835984
 H      2   1   3     2.072843201755   104.12247723   123.16505556
 H      2   1   3     2.072840747992   114.90726103   235.62956872
 H      8   7   6     2.072836198292   115.81815742   332.02801188
 H      8   7   6     2.072840704492   111.79457140   214.42589645
 H      8   7   6     2.072845426106   104.21621675    89.98185688
 H      9   7   6     1.914110412954   115.86070216   165.68865799
 H     12  10   9     1.914103567816   120.75804303   170.16770833
 H     13  12  10     2.072840652429   103.16258972   115.40457775
 H     15  14  13     2.052242606061   116.14591958   357.00340871
 H     16  15  14     2.052247708601   116.03287061   183.83007538
 H     17  16  15     2.052243990905   121.73161730   179.42764172
 H     19  18  17     1.838703602303   118.64205505    11.30135017
 H     20  18  17     2.052249042962   119.05421098   186.97023115

---------------------
BASIS SET INFORMATION
---------------------
There are 5 groups of distinct atoms

 Group   1 Type C   : 18s5p2d1f contracted to 4s3p2d1f pattern {8811/311/11/1}
 Group   2 Type O   : 18s5p2d1f contracted to 4s3p2d1f pattern {8811/311/11/1}
 Group   3 Type N   : 18s5p2d1f contracted to 4s3p2d1f pattern {8811/311/11/1}
 Group   4 Type S   : 41s16p2d1f contracted to 5s4p2d1f pattern {13131311/7711/11/1}
 Group   5 Type H   : 5s2p1d contracted to 3s2p1d pattern {311/11/1}

Atom   0C    basis set group =>   1
Atom   1C    basis set group =>   1
Atom   2O    basis set group =>   2
Atom   3C    basis set group =>   1
Atom   4O    basis set group =>   2
Atom   5C    basis set group =>   1
Atom   6C    basis set group =>   1
Atom   7C    basis set group =>   1
Atom   8N    basis set group =>   3
Atom   9C    basis set group =>   1
Atom  10S    basis set group =>   4
Atom  11N    basis set group =>   3
Atom  12C    basis set group =>   1
Atom  13C    basis set group =>   1
Atom  14C    basis set group =>   1
Atom  15C    basis set group =>   1
Atom  16C    basis set group =>   1
Atom  17C    basis set group =>   1
Atom  18O    basis set group =>   2
Atom  19C    basis set group =>   1
Atom  20H    basis set group =>   5
Atom  21H    basis set group =>   5
Atom  22H    basis set group =>   5
Atom  23H    basis set group =>   5
Atom  24H    basis set group =>   5
Atom  25H    basis set group =>   5
Atom  26H    basis set group =>   5
Atom  27H    basis set group =>   5
Atom  28H    basis set group =>   5
Atom  29H    basis set group =>   5
Atom  30H    basis set group =>   5
Atom  31H    basis set group =>   5
Atom  32H    basis set group =>   5
Atom  33H    basis set group =>   5
Atom  34H    basis set group =>   5
Atom  35H    basis set group =>   5
---------------------------------
AUXILIARY/C BASIS SET INFORMATION
---------------------------------
There are 5 groups of distinct atoms

 Group   1 Type C   : 8s6p5d3f1g contracted to 8s6p5d3f1g pattern {11111111/111111/11111/111/1}
 Group   2 Type O   : 8s6p5d3f1g contracted to 8s6p5d3f1g pattern {11111111/111111/11111/111/1}
 Group   3 Type N   : 8s6p5d3f1g contracted to 8s6p5d3f1g pattern {11111111/111111/11111/111/1}
 Group   4 Type S   : 10s8p7d5f2g contracted to 10s8p7d5f2g pattern {1111111111/11111111/1111111/11111/11}
 Group   5 Type H   : 4s3p2d1f contracted to 4s3p2d1f pattern {1111/111/11/1}

Atom   0C    basis set group =>   1
Atom   1C    basis set group =>   1
Atom   2O    basis set group =>   2
Atom   3C    basis set group =>   1
Atom   4O    basis set group =>   2
Atom   5C    basis set group =>   1
Atom   6C    basis set group =>   1
Atom   7C    basis set group =>   1
Atom   8N    basis set group =>   3
Atom   9C    basis set group =>   1
Atom  10S    basis set group =>   4
Atom  11N    basis set group =>   3
Atom  12C    basis set group =>   1
Atom  13C    basis set group =>   1
Atom  14C    basis set group =>   1
Atom  15C    basis set group =>   1
Atom  16C    basis set group =>   1
Atom  17C    basis set group =>   1
Atom  18O    basis set group =>   2
Atom  19C    basis set group =>   1
Atom  20H    basis set group =>   5
Atom  21H    basis set group =>   5
Atom  22H    basis set group =>   5
Atom  23H    basis set group =>   5
Atom  24H    basis set group =>   5
Atom  25H    basis set group =>   5
Atom  26H    basis set group =>   5
Atom  27H    basis set group =>   5
Atom  28H    basis set group =>   5
Atom  29H    basis set group =>   5
Atom  30H    basis set group =>   5
Atom  31H    basis set group =>   5
Atom  32H    basis set group =>   5
Atom  33H    basis set group =>   5
Atom  34H    basis set group =>   5
Atom  35H    basis set group =>   5
------------------------------------------------------------------------------
                           ORCA GTO INTEGRAL CALCULATION
------------------------------------------------------------------------------
------------------------------------------------------------------------------
                   ___                                                        
                  /   \      - P O W E R E D   B Y -                         
                 /     \                                                     
                 |  |  |   _    _      __       _____    __    __             
                 |  |  |  | |  | |    /  \     |  _  \  |  |  /  |          
                  \  \/   | |  | |   /    \    | | | |  |  | /  /          
                 / \  \   | |__| |  /  /\  \   | |_| |  |  |/  /          
                |  |  |   |  __  | /  /__\  \  |    /   |      \           
                |  |  |   | |  | | |   __   |  |    \   |  |\   \          
                \     /   | |  | | |  |  |  |  | |\  \  |  | \   \       
                 \___/    |_|  |_| |__|  |__|  |_| \__\ |__|  \__/        
                                                                              
                      - O R C A' S   B I G   F R I E N D -                    
                                      &                                       
                       - I N T E G R A L  F E E D E R -                       
                                                                              
 v1 FN, 2020, v2 2021                                                         
------------------------------------------------------------------------------


Reading SHARK input file qm_input.solv.SHARKINP.tmp ... ok
----------------------
SHARK INTEGRAL PACKAGE
----------------------

Number of atoms                             ...     36
Number of basis functions                   ...    828
Number of shells                            ...    298
Maximum angular momentum                    ...      3
Integral batch strategy                     ... SHARK/LIBINT Hybrid
RI-J (if used) integral strategy            ... SPLIT-RIJ (Revised 2003 algorithm where possible)
Printlevel                                  ...      1
Contraction scheme used                     ... SEGMENTED contraction
Coulomb Range Separation                    ... NOT USED
Exchange Range Separation                   ... NOT USED
Finite Nucleus Model                        ... NOT USED
Auxiliary Coulomb fitting basis             ... NOT available
Auxiliary J/K fitting basis                 ... NOT available
Auxiliary Correlation fitting basis         ... AVAILABLE
   # of basis functions in Aux-C            ...   2141
   # of shells in Aux-C                     ...    629
   Maximum angular momentum in Aux-C        ...      4
Auxiliary 'external' fitting basis          ... NOT available
Integral threshold                          ...     2.500000e-11
Primitive cut-off                           ...     2.500000e-12
Primitive pair pre-selection threshold      ...     2.500000e-12

Calculating pre-screening integrals         ... done (  0.6 sec) Dimension = 298
Organizing shell pair data                  ... done (  0.4 sec)
Shell pair information
Total number of shell pairs                 ...     44551
Shell pairs after pre-screening             ...     31521
Total number of primitive shell pairs       ...    234348
Primitive shell pairs kept                  ...     90978
          la=0 lb=0:   6343 shell pairs
          la=1 lb=0:   8806 shell pairs
          la=1 lb=1:   3108 shell pairs
          la=2 lb=0:   5002 shell pairs
          la=2 lb=1:   3429 shell pairs
          la=2 lb=2:    965 shell pairs
          la=3 lb=0:   1815 shell pairs
          la=3 lb=1:   1234 shell pairs
          la=3 lb=2:    685 shell pairs
          la=3 lb=3:    134 shell pairs

Reading point charge file                   ... ok (45444 point charges)
Calculating one electron integrals          ... done (223.5 sec)
Calculating RI/C V-Matrix + Cholesky decomp.... done (  0.3 sec)
Calculating Nuclear repulsion               ... (+Point charges) done (  0.0 sec) ENN=   1539.121089059845 Eh

SHARK setup successfully completed in 225.1 seconds

Maximum memory used throughout the entire GTOINT-calculation: 464.8 MB
ENUC WAS=  0.000000000
ENUC IS =  0.000000000
-------------------------------------------------------------------------------
                                 ORCA SCF
-------------------------------------------------------------------------------

------------
SCF SETTINGS
------------
Hamiltonian:
 Ab initio Hamiltonian  Method          .... Hartree-Fock(GTOs)


General Settings:
 Integral files         IntName         .... qm_input.solv
 Hartree-Fock type      HFTyp           .... RHF
 Total Charge           Charge          ....    0
 Multiplicity           Mult            ....    1
 Number of Electrons    NEL             ....  154
 Basis Dimension        Dim             ....  828
 Nuclear Repulsion      ENuc            ....   1539.1210890598 Eh

Convergence Acceleration:
 DIIS                   CNVDIIS         .... on
   Start iteration      DIISMaxIt       ....    12
   Startup error        DIISStart       ....  0.200000
   # of expansion vecs  DIISMaxEq       ....     5
   Bias factor          DIISBfac        ....   1.050
   Max. coefficient     DIISMaxC        ....  10.000
 Trust-Rad. Augm. Hess. CNVTRAH         .... auto
   Auto Start mean grad. ratio tolernc. ....  1.125000
   Auto Start start iteration           ....    20
   Auto Start num. interpolation iter.  ....    10
   Max. Number of Micro iterations      ....    16
   Max. Number of Macro iterations      .... Maxiter - #DIIS iter
   Number of Davidson start vectors     ....     2
   Converg. threshold I  (grad. norm)   ....   1.000e-05
   Converg. threshold II (energy diff.) ....   1.000e-08
   Grad. Scal. Fac. for Micro threshold ....   0.100
   Minimum threshold for Micro iter.    ....   0.010
   NR start threshold (gradient norm)   ....   0.001
   Initial trust radius                 ....   0.400
   Minimum AH scaling param. (alpha)    ....   1.000
   Maximum AH scaling param. (alpha)    .... 1000.000
   Orbital update algorithm             .... Taylor
   White noise on init. David. guess    .... on
   Maximum white noise                  ....   0.010
   Quad. conv. algorithm                .... NR
 SOSCF                  CNVSOSCF        .... on
   Start iteration      SOSCFMaxIt      ....   150
   Startup grad/error   SOSCFStart      ....  0.003300
 Level Shifting         CNVShift        .... on
   Level shift para.    LevelShift      ....    0.2500
   Turn off err/grad.   ShiftErr        ....    0.0010
 Zerner damping         CNVZerner       .... off
 Static damping         CNVDamp         .... on
   Fraction old density DampFac         ....    0.7000
   Max. Damping (<1)    DampMax         ....    0.9800
   Min. Damping (>=0)   DampMin         ....    0.0000
   Turn off err/grad.   DampErr         ....    0.1000
 Fernandez-Rico         CNVRico         .... off

SCF Procedure:
 Maximum # iterations   MaxIter         ....   125
 SCF integral mode      SCFMode         .... Direct
   Integral package                     .... SHARK and LIBINT hybrid scheme
 Reset frequency        DirectResetFreq ....    20
 Integral Threshold     Thresh          ....  2.500e-11 Eh
 Primitive CutOff       TCut            ....  2.500e-12 Eh

Convergence Tolerance:
 Convergence Check Mode ConvCheckMode   .... Total+1el-Energy
 Convergence forced     ConvForced      .... 1
 Energy Change          TolE            ....  1.000e-08 Eh
 1-El. energy change                    ....  1.000e-05 Eh
 Orbital Gradient       TolG            ....  1.000e-05
 Orbital Rotation angle TolX            ....  1.000e-05
 DIIS Error             TolErr          ....  5.000e-07


Diagonalization of the overlap matrix:
Smallest eigenvalue                        ... 4.061e-05
Time for diagonalization                   ...    0.118 sec
Threshold for overlap eigenvalues          ... 1.000e-08
Number of eigenvalues below threshold      ... 0
Time for construction of square roots      ...    0.062 sec
Total time needed                          ...    0.182 sec

Time for model grid setup =    1.326 sec

------------------------------
INITIAL GUESS: MODEL POTENTIAL
------------------------------
Loading Hartree-Fock densities                     ... done
Calculating cut-offs                               ... done
Initializing the effective Hamiltonian             ... done
Setting up the integral package (SHARK)            ... done
Starting the Coulomb interaction                   ... done (   3.6 sec)
Reading the grid                                   ... done
Mapping shells                                     ... done
Starting the XC term evaluation                    ... done (   1.2 sec)
Transforming the Hamiltonian                       ... done (   0.0 sec)
Diagonalizing the Hamiltonian                      ... done (   0.1 sec)
Back transforming the eigenvectors                 ... done (   0.0 sec)
Now organizing SCF variables                       ... done
                      ------------------
                      INITIAL GUESS DONE (   6.4 sec)
                      ------------------
--------------
SCF ITERATIONS
--------------
ITER       Energy         Delta-E        Max-DP      RMS-DP      [F,P]     Damp
               ***  Starting incremental Fock matrix formation  ***
  0  -1270.0207847081   0.000000000000 0.04773715  0.00047419  0.3485626 0.7000
  1  -1270.3113854525  -0.290600744462 0.03545540  0.00038466  0.2019486 0.7000
                               ***Turning on DIIS***
  2  -1270.4910058623  -0.179620409724 0.02572361  0.00025005  0.1101118 0.7000
  3  -1272.5745274730  -2.083521610768 0.06405631  0.00051200  0.0839441 0.0000
  4  -1270.8259862121   1.748541260945 0.00961418  0.00011112  0.0070967 0.0000
  5  -1270.8834707245  -0.057484512442 0.00580588  0.00005643  0.0047617 0.0000
                      *** Initiating the SOSCF procedure ***
                           *** Shutting down DIIS ***
                      *** Re-Reading the Fockian *** 
                      *** Removing any level shift *** 
ITER      Energy       Delta-E        Grad      Rot      Max-DP    RMS-DP
  6  -1270.86306822   0.0204025052  0.001691  0.001691  0.002635  0.000029
               *** Restarting incremental Fock matrix formation ***
  7  -1270.87917042  -0.0161022051  0.000776  0.001910  0.001659  0.000018
  8  -1270.87922803  -0.0000576021  0.000398  0.002393  0.001839  0.000019
  9  -1270.87925049  -0.0000224668  0.000132  0.000317  0.000502  0.000005
 10  -1270.87925312  -0.0000026271  0.000054  0.000152  0.000163  0.000001
 11  -1270.87925340  -0.0000002783  0.000030  0.000185  0.000076  0.000001
 12  -1270.87925349  -0.0000000905  0.000011  0.000034  0.000034  0.000000
 13  -1270.87925350  -0.0000000061  0.000004  0.000010  0.000010  0.000000
                  ***Gradient check signals convergence***
              ***Rediagonalizing the Fockian in SOSCF/NRSCF***

               *****************************************************
               *                     SUCCESS                       *
               *           SCF CONVERGED AFTER  14 CYCLES          *
               *****************************************************


----------------
TOTAL SCF ENERGY
----------------

Total Energy       :        -1270.87925349 Eh          -34582.38262 eV

Components:
Nuclear Repulsion  :         1539.12108906 Eh           41881.61405 eV
Electronic Energy  :        -2810.00034255 Eh          -76463.99668 eV
One Electron Energy:        -4920.51261800 Eh         -133893.95537 eV
Two Electron Energy:         2110.51227545 Eh           57429.95870 eV

Virial components:
Potential Energy   :        -2539.40327856 Eh          -69100.67622 eV
Kinetic Energy     :         1268.52402507 Eh           34518.29360 eV
Virial Ratio       :            2.00185667


---------------
SCF CONVERGENCE
---------------

  Last Energy change         ...    4.3351e-09  Tolerance :   1.0000e-08
  Last MAX-Density change    ...    2.7616e-06  Tolerance :   1.0000e-07
  Last RMS-Density change    ...    4.0377e-08  Tolerance :   5.0000e-09
  Last Orbital Gradient      ...    1.2763e-06  Tolerance :   1.0000e-05
  Last Orbital Rotation      ...    5.3281e-06  Tolerance :   1.0000e-05

             **** THE GBW FILE WAS UPDATED (qm_input.solv.gbw) ****
             **** DENSITY qm_input.solv.scfp WAS UPDATED ****
             **** ENERGY FILE WAS UPDATED (qm_input.solv.en.tmp) ****
             **** THE GBW FILE WAS UPDATED (qm_input.solv.gbw) ****
             **** DENSITY qm_input.solv.scfp WAS UPDATED ****
----------------
ORBITAL ENERGIES
----------------

  NO   OCC          E(Eh)            E(eV) 
   0   2.0000     -91.120835     -2479.5240 
   1   2.0000     -19.809329      -539.0392 
   2   2.0000     -19.800958      -538.8115 
   3   2.0000     -19.776233      -538.1387 
   4   2.0000     -14.841525      -403.8584 
   5   2.0000     -14.833027      -403.6272 
   6   2.0000     -10.623096      -289.0691 
   7   2.0000     -10.619626      -288.9747 
   8   2.0000     -10.559763      -287.3458 
   9   2.0000     -10.532951      -286.6162 
  10   2.0000     -10.529324      -286.5175 
  11   2.0000     -10.504872      -285.8521 
  12   2.0000     -10.481053      -285.2040 
  13   2.0000     -10.480751      -285.1957 
  14   2.0000     -10.460148      -284.6351 
  15   2.0000     -10.458510      -284.5905 
  16   2.0000     -10.456146      -284.5262 
  17   2.0000     -10.455350      -284.5045 
  18   2.0000     -10.447412      -284.2885 
  19   2.0000     -10.428666      -283.7784 
  20   2.0000      -8.124567      -221.0807 
  21   2.0000      -5.806211      -157.9950 
  22   2.0000      -5.804389      -157.9454 
  23   2.0000      -5.803962      -157.9338 
  24   2.0000      -0.672934       -18.3115 
  25   2.0000      -0.615463       -16.7476 
  26   2.0000      -0.576959       -15.6999 
  27   2.0000      -0.551982       -15.0202 
  28   2.0000      -0.452277       -12.3071 
  29   2.0000      -0.369921       -10.0661 
  30   2.0000      -0.325872        -8.8674 
  31   2.0000      -0.251793        -6.8516 
  32   2.0000      -0.243444        -6.6245 
  33   2.0000      -0.236788        -6.4433 
  34   2.0000      -0.209058        -5.6888 
  35   2.0000      -0.189031        -5.1438 
  36   2.0000      -0.135635        -3.6908 
  37   2.0000      -0.103578        -2.8185 
  38   2.0000      -0.065092        -1.7712 
  39   2.0000      -0.052203        -1.4205 
  40   2.0000      -0.042620        -1.1597 
  41   2.0000      -0.031026        -0.8443 
  42   2.0000       0.035626         0.9694 
  43   2.0000       0.050142         1.3644 
  44   2.0000       0.056816         1.5460 
  45   2.0000       0.092938         2.5290 
  46   2.0000       0.098940         2.6923 
  47   2.0000       0.104486         2.8432 
  48   2.0000       0.113311         3.0834 
  49   2.0000       0.131479         3.5777 
  50   2.0000       0.139699         3.8014 
  51   2.0000       0.143525         3.9055 
  52   2.0000       0.153964         4.1896 
  53   2.0000       0.177320         4.8251 
  54   2.0000       0.184780         5.0281 
  55   2.0000       0.188070         5.1177 
  56   2.0000       0.193451         5.2641 
  57   2.0000       0.201609         5.4861 
  58   2.0000       0.220258         5.9935 
  59   2.0000       0.223876         6.0920 
  60   2.0000       0.232938         6.3386 
  61   2.0000       0.243106         6.6153 
  62   2.0000       0.252553         6.8723 
  63   2.0000       0.261832         7.1248 
  64   2.0000       0.270672         7.3654 
  65   2.0000       0.275913         7.5080 
  66   2.0000       0.283595         7.7170 
  67   2.0000       0.296049         8.0559 
  68   2.0000       0.302050         8.2192 
  69   2.0000       0.317885         8.6501 
  70   2.0000       0.326622         8.8878 
  71   2.0000       0.335474         9.1287 
  72   2.0000       0.430092        11.7034 
  73   2.0000       0.438215        11.9244 
  74   2.0000       0.442491        12.0408 
  75   2.0000       0.455134        12.3848 
  76   2.0000       0.465464        12.6659 
  77   0.0000       0.854326        23.2474 
  78   0.0000       0.889494        24.2044 
  79   0.0000       0.921165        25.0662 
  80   0.0000       0.931203        25.3393 
  81   0.0000       0.939091        25.5540 
  82   0.0000       0.950419        25.8622 
  83   0.0000       0.953111        25.9355 
  84   0.0000       0.967350        26.3229 
  85   0.0000       0.974257        26.5109 
  86   0.0000       0.977617        26.6023 
  87   0.0000       0.981703        26.7135 
  88   0.0000       0.989744        26.9323 
  89   0.0000       0.994778        27.0693 
  90   0.0000       0.999107        27.1871 
  91   0.0000       1.008978        27.4557 
  92   0.0000       1.013880        27.5891 
  93   0.0000       1.023236        27.8437 
  94   0.0000       1.026575        27.9345 
  95   0.0000       1.030295        28.0357 
  96   0.0000       1.036589        28.2070 
  97   0.0000       1.044952        28.4346 
  98   0.0000       1.052716        28.6459 
  99   0.0000       1.058861        28.8131 
 100   0.0000       1.079394        29.3718 
 101   0.0000       1.094278        29.7768 
 102   0.0000       1.105771        30.0896 
 103   0.0000       1.108117        30.1534 
 104   0.0000       1.116160        30.3723 
 105   0.0000       1.129184        30.7267 
 106   0.0000       1.135280        30.8926 
 107   0.0000       1.140495        31.0344 
 108   0.0000       1.147062        31.2131 
 109   0.0000       1.152629        31.3646 
 110   0.0000       1.163329        31.6558 
 111   0.0000       1.176616        32.0174 
 112   0.0000       1.177385        32.0383 
 113   0.0000       1.178997        32.0822 
 114   0.0000       1.192390        32.4466 
 115   0.0000       1.201380        32.6912 
 116   0.0000       1.205968        32.8161 
 117   0.0000       1.212143        32.9841 
 118   0.0000       1.216571        33.1046 
 119   0.0000       1.223037        33.2805 
 120   0.0000       1.228346        33.4250 
 121   0.0000       1.231937        33.5227 
 122   0.0000       1.237259        33.6675 
 123   0.0000       1.240721        33.7617 
 124   0.0000       1.247128        33.9361 
 125   0.0000       1.250481        34.0273 
 126   0.0000       1.254079        34.1252 
 127   0.0000       1.262876        34.3646 
 128   0.0000       1.266997        34.4767 
 129   0.0000       1.269655        34.5491 
 130   0.0000       1.277515        34.7630 
 131   0.0000       1.280899        34.8550 
 132   0.0000       1.284612        34.9561 
 133   0.0000       1.298920        35.3454 
 134   0.0000       1.300961        35.4010 
 135   0.0000       1.306469        35.5508 
 136   0.0000       1.317693        35.8563 
 137   0.0000       1.323373        36.0108 
 138   0.0000       1.329235        36.1703 
 139   0.0000       1.336514        36.3684 
 140   0.0000       1.340159        36.4676 
 141   0.0000       1.342553        36.5327 
 142   0.0000       1.353176        36.8218 
 143   0.0000       1.358157        36.9573 
 144   0.0000       1.360800        37.0293 
 145   0.0000       1.365796        37.1652 
 146   0.0000       1.372954        37.3600 
 147   0.0000       1.379624        37.5415 
 148   0.0000       1.384132        37.6642 
 149   0.0000       1.385835        37.7105 
 150   0.0000       1.389819        37.8189 
 151   0.0000       1.396840        38.0100 
 152   0.0000       1.402378        38.1607 
 153   0.0000       1.404814        38.2269 
 154   0.0000       1.408907        38.3383 
 155   0.0000       1.413012        38.4500 
 156   0.0000       1.417267        38.5658 
 157   0.0000       1.420323        38.6490 
 158   0.0000       1.424301        38.7572 
 159   0.0000       1.430960        38.9384 
 160   0.0000       1.436881        39.0995 
 161   0.0000       1.442343        39.2481 
 162   0.0000       1.443629        39.2831 
 163   0.0000       1.448788        39.4235 
 164   0.0000       1.457451        39.6593 
 165   0.0000       1.460046        39.7299 
 166   0.0000       1.461946        39.7816 
 167   0.0000       1.464040        39.8386 
 168   0.0000       1.473945        40.1081 
 169   0.0000       1.479882        40.2696 
 170   0.0000       1.486526        40.4504 
 171   0.0000       1.493535        40.6412 
 172   0.0000       1.496533        40.7227 
 173   0.0000       1.505897        40.9775 
 174   0.0000       1.507774        41.0286 
 175   0.0000       1.511365        41.1263 
 176   0.0000       1.522842        41.4386 
 177   0.0000       1.523871        41.4666 
 178   0.0000       1.526518        41.5387 
 179   0.0000       1.535162        41.7739 
 180   0.0000       1.541605        41.9492 
 181   0.0000       1.550683        42.1962 
 182   0.0000       1.555244        42.3203 
 183   0.0000       1.561216        42.4829 
 184   0.0000       1.566048        42.6143 
 185   0.0000       1.578440        42.9515 
 186   0.0000       1.584860        43.1262 
 187   0.0000       1.596879        43.4533 
 188   0.0000       1.603188        43.6250 
 189   0.0000       1.610473        43.8232 
 190   0.0000       1.617467        44.0135 
 191   0.0000       1.626344        44.2551 
 192   0.0000       1.634157        44.4677 
 193   0.0000       1.638679        44.5907 
 194   0.0000       1.647427        44.8288 
 195   0.0000       1.649199        44.8770 
 196   0.0000       1.665691        45.3257 
 197   0.0000       1.673136        45.5284 
 198   0.0000       1.675810        45.6011 
 199   0.0000       1.691484        46.0276 
 200   0.0000       1.700134        46.2630 
 201   0.0000       1.704532        46.3827 
 202   0.0000       1.715672        46.6858 
 203   0.0000       1.717865        46.7455 
 204   0.0000       1.722469        46.8708 
 205   0.0000       1.730338        47.0849 
 206   0.0000       1.739118        47.3238 
 207   0.0000       1.748776        47.5866 
 208   0.0000       1.750046        47.6212 
 209   0.0000       1.752757        47.6950 
 210   0.0000       1.760073        47.8940 
 211   0.0000       1.770252        48.1710 
 212   0.0000       1.776037        48.3284 
 213   0.0000       1.781996        48.4906 
 214   0.0000       1.790613        48.7251 
 215   0.0000       1.800323        48.9893 
 216   0.0000       1.805491        49.1299 
 217   0.0000       1.813960        49.3604 
 218   0.0000       1.820068        49.5266 
 219   0.0000       1.830728        49.8166 
 220   0.0000       1.832422        49.8627 
 221   0.0000       1.840788        50.0904 
 222   0.0000       1.850514        50.3550 
 223   0.0000       1.866144        50.7803 
 224   0.0000       1.872301        50.9479 
 225   0.0000       1.873040        50.9680 
 226   0.0000       1.877771        51.0967 
 227   0.0000       1.889404        51.4133 
 228   0.0000       1.891103        51.4595 
 229   0.0000       1.895855        51.5888 
 230   0.0000       1.904174        51.8152 
 231   0.0000       1.911690        52.0197 
 232   0.0000       1.918319        52.2001 
 233   0.0000       1.922353        52.3099 
 234   0.0000       1.930535        52.5325 
 235   0.0000       1.940644        52.8076 
 236   0.0000       1.958043        53.2811 
 237   0.0000       1.964018        53.4437 
 238   0.0000       1.976766        53.7905 
 239   0.0000       1.978606        53.8406 
 240   0.0000       1.980757        53.8991 
 241   0.0000       1.988919        54.1212 
 242   0.0000       1.993251        54.2391 
 243   0.0000       2.001880        54.4739 
 244   0.0000       2.004109        54.5346 
 245   0.0000       2.014163        54.8082 
 246   0.0000       2.022678        55.0399 
 247   0.0000       2.029268        55.2192 
 248   0.0000       2.038401        55.4677 
 249   0.0000       2.040865        55.5348 
 250   0.0000       2.051573        55.8261 
 251   0.0000       2.052121        55.8411 
 252   0.0000       2.057192        55.9790 
 253   0.0000       2.065655        56.2093 
 254   0.0000       2.069473        56.3132 
 255   0.0000       2.078417        56.5566 
 256   0.0000       2.098762        57.1102 
 257   0.0000       2.104144        57.2567 
 258   0.0000       2.109961        57.4150 
 259   0.0000       2.115433        57.5639 
 260   0.0000       2.124794        57.8186 
 261   0.0000       2.134124        58.0725 
 262   0.0000       2.140213        58.2382 
 263   0.0000       2.145396        58.3792 
 264   0.0000       2.150848        58.5275 
 265   0.0000       2.156821        58.6901 
 266   0.0000       2.162950        58.8569 
 267   0.0000       2.178747        59.2867 
 268   0.0000       2.185681        59.4754 
 269   0.0000       2.195169        59.7336 
 270   0.0000       2.211297        60.1725 
 271   0.0000       2.214116        60.2492 
 272   0.0000       2.220007        60.4095 
 273   0.0000       2.225559        60.5605 
 274   0.0000       2.231468        60.7213 
 275   0.0000       2.244701        61.0814 
 276   0.0000       2.251698        61.2718 
 277   0.0000       2.264541        61.6213 
 278   0.0000       2.268625        61.7324 
 279   0.0000       2.283318        62.1322 
 280   0.0000       2.292823        62.3909 
 281   0.0000       2.295916        62.4751 
 282   0.0000       2.296773        62.4984 
 283   0.0000       2.301924        62.6385 
 284   0.0000       2.307560        62.7919 
 285   0.0000       2.313012        62.9402 
 286   0.0000       2.316386        63.0321 
 287   0.0000       2.327993        63.3479 
 288   0.0000       2.330541        63.4172 
 289   0.0000       2.332908        63.4817 
 290   0.0000       2.336340        63.5750 
 291   0.0000       2.341571        63.7174 
 292   0.0000       2.349017        63.9200 
 293   0.0000       2.359269        64.1990 
 294   0.0000       2.363948        64.3263 
 295   0.0000       2.377363        64.6913 
 296   0.0000       2.378508        64.7225 
 297   0.0000       2.392102        65.0924 
 298   0.0000       2.401047        65.3358 
 299   0.0000       2.411949        65.6325 
 300   0.0000       2.415746        65.7358 
 301   0.0000       2.424370        65.9705 
 302   0.0000       2.432585        66.1940 
 303   0.0000       2.436534        66.3015 
 304   0.0000       2.439652        66.3863 
 305   0.0000       2.444469        66.5174 
 306   0.0000       2.462040        66.9955 
 307   0.0000       2.464644        67.0664 
 308   0.0000       2.472504        67.2802 
 309   0.0000       2.484414        67.6044 
 310   0.0000       2.487914        67.6996 
 311   0.0000       2.491275        67.7910 
 312   0.0000       2.509897        68.2978 
 313   0.0000       2.514102        68.4122 
 314   0.0000       2.521831        68.6225 
 315   0.0000       2.540294        69.1249 
 316   0.0000       2.552139        69.4472 
 317   0.0000       2.567836        69.8744 
 318   0.0000       2.576458        70.1090 
 319   0.0000       2.578946        70.1767 
 320   0.0000       2.600785        70.7710 
 321   0.0000       2.604321        70.8672 
 322   0.0000       2.609029        70.9953 
 323   0.0000       2.624196        71.4080 
 324   0.0000       2.634233        71.6811 
 325   0.0000       2.641024        71.8659 
 326   0.0000       2.652211        72.1703 
 327   0.0000       2.659386        72.3656 
 328   0.0000       2.676804        72.8395 
 329   0.0000       2.680617        72.9433 
 330   0.0000       2.684512        73.0493 
 331   0.0000       2.694122        73.3108 
 332   0.0000       2.702991        73.5521 
 333   0.0000       2.717551        73.9483 
 334   0.0000       2.720399        74.0258 
 335   0.0000       2.731048        74.3156 
 336   0.0000       2.741494        74.5999 
 337   0.0000       2.768362        75.3309 
 338   0.0000       2.771507        75.4165 
 339   0.0000       2.782349        75.7116 
 340   0.0000       2.790376        75.9300 
 341   0.0000       2.802706        76.2655 
 342   0.0000       2.806610        76.3717 
 343   0.0000       2.820347        76.7455 
 344   0.0000       2.844282        77.3969 
 345   0.0000       2.845673        77.4347 
 346   0.0000       2.884311        78.4861 
 347   0.0000       2.895219        78.7829 
 348   0.0000       2.909309        79.1663 
 349   0.0000       2.938256        79.9540 
 350   0.0000       2.943025        80.0838 
 351   0.0000       2.958431        80.5030 
 352   0.0000       2.977916        81.0332 
 353   0.0000       2.990037        81.3631 
 354   0.0000       3.006016        81.7979 
 355   0.0000       3.023744        82.2802 
 356   0.0000       3.050122        82.9980 
 357   0.0000       3.053582        83.0922 
 358   0.0000       3.060611        83.2834 
 359   0.0000       3.074158        83.6521 
 360   0.0000       3.090880        84.1071 
 361   0.0000       3.110796        84.6491 
 362   0.0000       3.118516        84.8591 
 363   0.0000       3.125584        85.0515 
 364   0.0000       3.133202        85.2588 
 365   0.0000       3.137477        85.3751 
 366   0.0000       3.149270        85.6960 
 367   0.0000       3.178229        86.4840 
 368   0.0000       3.186088        86.6979 
 369   0.0000       3.190805        86.8262 
 370   0.0000       3.211382        87.3861 
 371   0.0000       3.224067        87.7313 
 372   0.0000       3.240720        88.1845 
 373   0.0000       3.252384        88.5019 
 374   0.0000       3.273662        89.0809 
 375   0.0000       3.282151        89.3119 
 376   0.0000       3.296225        89.6948 
 377   0.0000       3.301190        89.8300 
 378   0.0000       3.318369        90.2974 
 379   0.0000       3.325248        90.4846 
 380   0.0000       3.336002        90.7772 
 381   0.0000       3.351788        91.2068 
 382   0.0000       3.360455        91.4426 
 383   0.0000       3.372592        91.7729 
 384   0.0000       3.376139        91.8694 
 385   0.0000       3.382654        92.0467 
 386   0.0000       3.403965        92.6266 
 387   0.0000       3.414559        92.9149 
 388   0.0000       3.425914        93.2239 
 389   0.0000       3.433058        93.4183 
 390   0.0000       3.445519        93.7573 
 391   0.0000       3.461222        94.1847 
 392   0.0000       3.469065        94.3980 
 393   0.0000       3.481125        94.7262 
 394   0.0000       3.492760        95.0428 
 395   0.0000       3.506026        95.4038 
 396   0.0000       3.519850        95.7800 
 397   0.0000       3.525347        95.9296 
 398   0.0000       3.532747        96.1309 
 399   0.0000       3.537795        96.2683 
 400   0.0000       3.547573        96.5344 
 401   0.0000       3.568536        97.1048 
 402   0.0000       3.572084        97.2013 
 403   0.0000       3.585280        97.5604 
 404   0.0000       3.588084        97.6367 
 405   0.0000       3.597952        97.9052 
 406   0.0000       3.603135        98.0463 
 407   0.0000       3.609599        98.2222 
 408   0.0000       3.620688        98.5239 
 409   0.0000       3.635051        98.9148 
 410   0.0000       3.644857        99.1816 
 411   0.0000       3.656326        99.4937 
 412   0.0000       3.665999        99.7569 
 413   0.0000       3.671550        99.9080 
 414   0.0000       3.684072       100.2487 
 415   0.0000       3.692842       100.4873 
 416   0.0000       3.702746       100.7568 
 417   0.0000       3.710450       100.9665 
 418   0.0000       3.723792       101.3295 
 419   0.0000       3.727075       101.4189 
 420   0.0000       3.729287       101.4791 
 421   0.0000       3.740821       101.7929 
 422   0.0000       3.750692       102.0615 
 423   0.0000       3.753373       102.1345 
 424   0.0000       3.774155       102.7000 
 425   0.0000       3.778620       102.8215 
 426   0.0000       3.786888       103.0465 
 427   0.0000       3.795273       103.2746 
 428   0.0000       3.805704       103.5585 
 429   0.0000       3.820780       103.9687 
 430   0.0000       3.824454       104.0687 
 431   0.0000       3.837336       104.4192 
 432   0.0000       3.849174       104.7414 
 433   0.0000       3.857563       104.9696 
 434   0.0000       3.857729       104.9741 
 435   0.0000       3.869699       105.2999 
 436   0.0000       3.873637       105.4070 
 437   0.0000       3.875666       105.4622 
 438   0.0000       3.887031       105.7715 
 439   0.0000       3.896334       106.0246 
 440   0.0000       3.901335       106.1607 
 441   0.0000       3.908275       106.3496 
 442   0.0000       3.918186       106.6192 
 443   0.0000       3.919150       106.6455 
 444   0.0000       3.924796       106.7991 
 445   0.0000       3.934053       107.0510 
 446   0.0000       3.949233       107.4641 
 447   0.0000       3.957528       107.6898 
 448   0.0000       3.966821       107.9427 
 449   0.0000       3.969988       108.0289 
 450   0.0000       3.977799       108.2414 
 451   0.0000       3.979861       108.2975 
 452   0.0000       3.994332       108.6913 
 453   0.0000       3.999147       108.8223 
 454   0.0000       4.010217       109.1235 
 455   0.0000       4.017372       109.3182 
 456   0.0000       4.020571       109.4053 
 457   0.0000       4.024341       109.5079 
 458   0.0000       4.033760       109.7642 
 459   0.0000       4.040684       109.9526 
 460   0.0000       4.050589       110.2221 
 461   0.0000       4.057072       110.3985 
 462   0.0000       4.063034       110.5608 
 463   0.0000       4.065316       110.6229 
 464   0.0000       4.071985       110.8043 
 465   0.0000       4.074684       110.8778 
 466   0.0000       4.081619       111.0665 
 467   0.0000       4.089680       111.2858 
 468   0.0000       4.100360       111.5765 
 469   0.0000       4.104459       111.6880 
 470   0.0000       4.111606       111.8825 
 471   0.0000       4.113020       111.9210 
 472   0.0000       4.123051       112.1939 
 473   0.0000       4.125946       112.2727 
 474   0.0000       4.131482       112.4233 
 475   0.0000       4.133267       112.4719 
 476   0.0000       4.137005       112.5736 
 477   0.0000       4.146134       112.8220 
 478   0.0000       4.156057       113.0920 
 479   0.0000       4.163355       113.2907 
 480   0.0000       4.173409       113.5642 
 481   0.0000       4.175969       113.6339 
 482   0.0000       4.179247       113.7231 
 483   0.0000       4.184402       113.8634 
 484   0.0000       4.194190       114.1297 
 485   0.0000       4.197465       114.2188 
 486   0.0000       4.205892       114.4481 
 487   0.0000       4.211092       114.5896 
 488   0.0000       4.213510       114.6554 
 489   0.0000       4.216138       114.7270 
 490   0.0000       4.223456       114.9261 
 491   0.0000       4.229261       115.0841 
 492   0.0000       4.232383       115.1690 
 493   0.0000       4.236496       115.2809 
 494   0.0000       4.243303       115.4661 
 495   0.0000       4.255818       115.8067 
 496   0.0000       4.260587       115.9365 
 497   0.0000       4.267314       116.1195 
 498   0.0000       4.271986       116.2467 
 499   0.0000       4.279009       116.4378 
 500   0.0000       4.285964       116.6270 
 501   0.0000       4.293576       116.8341 
 502   0.0000       4.312200       117.3409 
 503   0.0000       4.316335       117.4535 
 504   0.0000       4.322517       117.6217 
 505   0.0000       4.326943       117.7421 
 506   0.0000       4.337467       118.0285 
 507   0.0000       4.339749       118.0906 
 508   0.0000       4.349479       118.3553 
 509   0.0000       4.355492       118.5190 
 510   0.0000       4.363501       118.7369 
 511   0.0000       4.372979       118.9948 
 512   0.0000       4.374276       119.0301 
 513   0.0000       4.377397       119.1150 
 514   0.0000       4.382286       119.2481 
 515   0.0000       4.389676       119.4492 
 516   0.0000       4.397579       119.6642 
 517   0.0000       4.405116       119.8693 
 518   0.0000       4.411931       120.0548 
 519   0.0000       4.422518       120.3428 
 520   0.0000       4.429435       120.5311 
 521   0.0000       4.436024       120.7104 
 522   0.0000       4.444205       120.9330 
 523   0.0000       4.448036       121.0372 
 524   0.0000       4.460934       121.3882 
 525   0.0000       4.463532       121.4589 
 526   0.0000       4.466866       121.5496 
 527   0.0000       4.474114       121.7468 
 528   0.0000       4.481381       121.9446 
 529   0.0000       4.488484       122.1379 
 530   0.0000       4.494175       122.2927 
 531   0.0000       4.500568       122.4667 
 532   0.0000       4.504665       122.5782 
 533   0.0000       4.516156       122.8909 
 534   0.0000       4.524400       123.1152 
 535   0.0000       4.528105       123.2160 
 536   0.0000       4.533901       123.3737 
 537   0.0000       4.539751       123.5329 
 538   0.0000       4.550413       123.8230 
 539   0.0000       4.556726       123.9948 
 540   0.0000       4.561462       124.1237 
 541   0.0000       4.563663       124.1836 
 542   0.0000       4.569097       124.3314 
 543   0.0000       4.572102       124.4132 
 544   0.0000       4.582069       124.6844 
 545   0.0000       4.592207       124.9603 
 546   0.0000       4.604940       125.3068 
 547   0.0000       4.612800       125.5207 
 548   0.0000       4.619081       125.6916 
 549   0.0000       4.624402       125.8364 
 550   0.0000       4.631885       126.0400 
 551   0.0000       4.640804       126.2827 
 552   0.0000       4.651377       126.5704 
 553   0.0000       4.656217       126.7021 
 554   0.0000       4.661875       126.8561 
 555   0.0000       4.662922       126.8846 
 556   0.0000       4.667971       127.0220 
 557   0.0000       4.685089       127.4878 
 558   0.0000       4.694583       127.7461 
 559   0.0000       4.696195       127.7900 
 560   0.0000       4.713761       128.2679 
 561   0.0000       4.730173       128.7145 
 562   0.0000       4.734056       128.8202 
 563   0.0000       4.742888       129.0605 
 564   0.0000       4.747786       129.1938 
 565   0.0000       4.754601       129.3793 
 566   0.0000       4.763631       129.6250 
 567   0.0000       4.772393       129.8634 
 568   0.0000       4.780957       130.0965 
 569   0.0000       4.785334       130.2156 
 570   0.0000       4.804120       130.7268 
 571   0.0000       4.811912       130.9388 
 572   0.0000       4.819303       131.1399 
 573   0.0000       4.824980       131.2944 
 574   0.0000       4.834953       131.5658 
 575   0.0000       4.840455       131.7155 
 576   0.0000       4.845079       131.8413 
 577   0.0000       4.856522       132.1527 
 578   0.0000       4.860801       132.2691 
 579   0.0000       4.883408       132.8843 
 580   0.0000       4.890929       133.0890 
 581   0.0000       4.897694       133.2730 
 582   0.0000       4.898645       133.2989 
 583   0.0000       4.908037       133.5545 
 584   0.0000       4.911886       133.6592 
 585   0.0000       4.925836       134.0388 
 586   0.0000       4.941204       134.4570 
 587   0.0000       4.943570       134.5214 
 588   0.0000       4.945515       134.5743 
 589   0.0000       4.958674       134.9324 
 590   0.0000       4.960544       134.9833 
 591   0.0000       4.974058       135.3510 
 592   0.0000       4.975436       135.3885 
 593   0.0000       4.978290       135.4662 
 594   0.0000       4.984539       135.6362 
 595   0.0000       4.992858       135.8626 
 596   0.0000       4.993927       135.8917 
 597   0.0000       5.000860       136.0803 
 598   0.0000       5.002691       136.1301 
 599   0.0000       5.014634       136.4551 
 600   0.0000       5.015713       136.4845 
 601   0.0000       5.026936       136.7899 
 602   0.0000       5.036234       137.0429 
 603   0.0000       5.046721       137.3283 
 604   0.0000       5.058147       137.6392 
 605   0.0000       5.068164       137.9118 
 606   0.0000       5.084977       138.3693 
 607   0.0000       5.087122       138.4276 
 608   0.0000       5.101012       138.8056 
 609   0.0000       5.109369       139.0330 
 610   0.0000       5.113203       139.1373 
 611   0.0000       5.125129       139.4618 
 612   0.0000       5.129102       139.5700 
 613   0.0000       5.140920       139.8915 
 614   0.0000       5.142289       139.9288 
 615   0.0000       5.150902       140.1632 
 616   0.0000       5.157987       140.3560 
 617   0.0000       5.168216       140.6343 
 618   0.0000       5.177491       140.8867 
 619   0.0000       5.183386       141.0471 
 620   0.0000       5.190302       141.2353 
 621   0.0000       5.203279       141.5884 
 622   0.0000       5.206225       141.6686 
 623   0.0000       5.215740       141.9275 
 624   0.0000       5.232708       142.3892 
 625   0.0000       5.233692       142.4160 
 626   0.0000       5.246723       142.7706 
 627   0.0000       5.261070       143.1610 
 628   0.0000       5.267092       143.3249 
 629   0.0000       5.269273       143.3842 
 630   0.0000       5.273894       143.5099 
 631   0.0000       5.285760       143.8328 
 632   0.0000       5.291065       143.9772 
 633   0.0000       5.294338       144.0662 
 634   0.0000       5.311493       144.5331 
 635   0.0000       5.317476       144.6959 
 636   0.0000       5.338286       145.2621 
 637   0.0000       5.344191       145.4228 
 638   0.0000       5.351338       145.6173 
 639   0.0000       5.360449       145.8652 
 640   0.0000       5.364412       145.9731 
 641   0.0000       5.371521       146.1665 
 642   0.0000       5.384509       146.5199 
 643   0.0000       5.388400       146.6258 
 644   0.0000       5.391419       146.7080 
 645   0.0000       5.399772       146.9353 
 646   0.0000       5.407890       147.1562 
 647   0.0000       5.409945       147.2121 
 648   0.0000       5.426801       147.6708 
 649   0.0000       5.436324       147.9299 
 650   0.0000       5.444354       148.1484 
 651   0.0000       5.456099       148.4680 
 652   0.0000       5.457799       148.5143 
 653   0.0000       5.466128       148.7409 
 654   0.0000       5.480374       149.1286 
 655   0.0000       5.496660       149.5717 
 656   0.0000       5.509375       149.9177 
 657   0.0000       5.516158       150.1023 
 658   0.0000       5.522556       150.2764 
 659   0.0000       5.530908       150.5037 
 660   0.0000       5.538821       150.7190 
 661   0.0000       5.550416       151.0345 
 662   0.0000       5.561920       151.3475 
 663   0.0000       5.587939       152.0555 
 664   0.0000       5.597785       152.3235 
 665   0.0000       5.605998       152.5470 
 666   0.0000       5.613679       152.7560 
 667   0.0000       5.634727       153.3287 
 668   0.0000       5.646161       153.6398 
 669   0.0000       5.654068       153.8550 
 670   0.0000       5.666271       154.1871 
 671   0.0000       5.681391       154.5985 
 672   0.0000       5.696467       155.0088 
 673   0.0000       5.720985       155.6759 
 674   0.0000       5.725526       155.7995 
 675   0.0000       5.760739       156.7577 
 676   0.0000       5.779038       157.2556 
 677   0.0000       5.789534       157.5412 
 678   0.0000       5.801359       157.8630 
 679   0.0000       5.821402       158.4084 
 680   0.0000       5.831202       158.6751 
 681   0.0000       5.833462       158.7366 
 682   0.0000       5.857656       159.3949 
 683   0.0000       5.863347       159.5498 
 684   0.0000       5.872611       159.8019 
 685   0.0000       5.887540       160.2081 
 686   0.0000       5.893481       160.3698 
 687   0.0000       5.894964       160.4101 
 688   0.0000       5.911549       160.8614 
 689   0.0000       5.923011       161.1733 
 690   0.0000       5.925350       161.2370 
 691   0.0000       5.949596       161.8967 
 692   0.0000       5.958815       162.1476 
 693   0.0000       5.969733       162.4447 
 694   0.0000       5.991093       163.0259 
 695   0.0000       6.003901       163.3745 
 696   0.0000       6.010482       163.5535 
 697   0.0000       6.016323       163.7125 
 698   0.0000       6.026051       163.9772 
 699   0.0000       6.042867       164.4348 
 700   0.0000       6.050448       164.6411 
 701   0.0000       6.054405       164.7487 
 702   0.0000       6.065429       165.0487 
 703   0.0000       6.079433       165.4298 
 704   0.0000       6.095196       165.8587 
 705   0.0000       6.107785       166.2013 
 706   0.0000       6.122565       166.6035 
 707   0.0000       6.129821       166.8009 
 708   0.0000       6.134889       166.9388 
 709   0.0000       6.148839       167.3184 
 710   0.0000       6.165928       167.7834 
 711   0.0000       6.188557       168.3992 
 712   0.0000       6.210248       168.9894 
 713   0.0000       6.230167       169.5315 
 714   0.0000       6.237102       169.7202 
 715   0.0000       6.251031       170.0992 
 716   0.0000       6.256063       170.2361 
 717   0.0000       6.277332       170.8149 
 718   0.0000       6.287597       171.0942 
 719   0.0000       6.301905       171.4835 
 720   0.0000       6.306648       171.6126 
 721   0.0000       6.320074       171.9780 
 722   0.0000       6.338744       172.4860 
 723   0.0000       6.357469       172.9955 
 724   0.0000       6.363754       173.1665 
 725   0.0000       6.375693       173.4914 
 726   0.0000       6.386083       173.7742 
 727   0.0000       6.397366       174.0812 
 728   0.0000       6.400636       174.1702 
 729   0.0000       6.412204       174.4850 
 730   0.0000       6.429183       174.9470 
 731   0.0000       6.441935       175.2940 
 732   0.0000       6.447745       175.4521 
 733   0.0000       6.449289       175.4941 
 734   0.0000       6.471084       176.0871 
 735   0.0000       6.482456       176.3966 
 736   0.0000       6.491177       176.6339 
 737   0.0000       6.507911       177.0892 
 738   0.0000       6.536674       177.8720 
 739   0.0000       6.546978       178.1523 
 740   0.0000       6.568317       178.7330 
 741   0.0000       6.569697       178.7706 
 742   0.0000       6.580932       179.0763 
 743   0.0000       6.609814       179.8622 
 744   0.0000       6.613993       179.9759 
 745   0.0000       6.628077       180.3591 
 746   0.0000       6.640100       180.6863 
 747   0.0000       6.653003       181.0374 
 748   0.0000       6.665688       181.3826 
 749   0.0000       6.680896       181.7964 
 750   0.0000       6.710889       182.6126 
 751   0.0000       6.733281       183.2219 
 752   0.0000       6.757113       183.8704 
 753   0.0000       6.764844       184.0808 
 754   0.0000       6.773697       184.3217 
 755   0.0000       6.786378       184.6667 
 756   0.0000       6.815533       185.4601 
 757   0.0000       6.837002       186.0443 
 758   0.0000       6.843472       186.2203 
 759   0.0000       6.867815       186.8827 
 760   0.0000       6.890593       187.5026 
 761   0.0000       6.925365       188.4488 
 762   0.0000       6.938653       188.8103 
 763   0.0000       6.970968       189.6897 
 764   0.0000       7.011189       190.7841 
 765   0.0000       7.035247       191.4388 
 766   0.0000       7.074648       192.5110 
 767   0.0000       7.096587       193.1079 
 768   0.0000       7.114506       193.5956 
 769   0.0000       7.127189       193.9407 
 770   0.0000       7.146171       194.4572 
 771   0.0000       7.164336       194.9515 
 772   0.0000       7.170009       195.1059 
 773   0.0000       7.196844       195.8361 
 774   0.0000       7.218571       196.4273 
 775   0.0000       7.228247       196.6906 
 776   0.0000       7.285392       198.2456 
 777   0.0000       7.287976       198.3159 
 778   0.0000       7.312269       198.9770 
 779   0.0000       7.340788       199.7530 
 780   0.0000       7.436171       202.3485 
 781   0.0000       7.468779       203.2358 
 782   0.0000       7.490797       203.8350 
 783   0.0000       7.530438       204.9136 
 784   0.0000       7.569115       205.9661 
 785   0.0000       7.661448       208.4786 
 786   0.0000       7.699124       209.5038 
 787   0.0000       7.707860       209.7415 
 788   0.0000       7.720188       210.0770 
 789   0.0000       7.746771       210.8003 
 790   0.0000       7.811689       212.5669 
 791   0.0000       7.823861       212.8981 
 792   0.0000       7.847412       213.5389 
 793   0.0000       7.883007       214.5075 
 794   0.0000       7.975528       217.0252 
 795   0.0000       8.020807       218.2572 
 796   0.0000       8.037790       218.7194 
 797   0.0000       8.071117       219.6263 
 798   0.0000       8.137673       221.4373 
 799   0.0000       8.140845       221.5236 
 800   0.0000       8.199537       223.1208 
 801   0.0000       8.270680       225.0566 
 802   0.0000       8.361203       227.5199 
 803   0.0000       8.366439       227.6624 
 804   0.0000       8.439225       229.6430 
 805   0.0000       8.496158       231.1922 
 806   0.0000       8.612024       234.3451 
 807   0.0000       8.760926       238.3969 
 808   0.0000       8.803077       239.5439 
 809   0.0000      10.012782       272.4616 
 810   0.0000      10.195245       277.4267 
 811   0.0000      11.367222       309.3178 
 812   0.0000      11.932700       324.7053 
 813   0.0000      12.462376       339.1185 
 814   0.0000      13.070718       355.6723 
 815   0.0000      13.509980       367.6252 
 816   0.0000      13.558081       368.9341 
 817   0.0000      13.595668       369.9569 
 818   0.0000      13.728143       373.5618 
 819   0.0000      14.055554       382.4711 
 820   0.0000      14.150111       385.0441 
 821   0.0000      14.187120       386.0511 
 822   0.0000      14.620624       397.8474 
 823   0.0000      14.752999       401.4495 
 824   0.0000      14.876733       404.8165 
 825   0.0000      15.036696       409.1693 
 826   0.0000      15.248018       414.9197 
 827   0.0000      16.609918       451.9789 

                    ********************************
                    * MULLIKEN POPULATION ANALYSIS *
                    ********************************

-----------------------
MULLIKEN ATOMIC CHARGES
-----------------------
   0 C :   -0.291595
   1 C :    0.028432
   2 O :   -0.380157
   3 C :    0.504697
   4 O :   -0.521616
   5 C :   -0.237708
   6 C :    0.180961
   7 C :   -0.271195
   8 N :   -0.140512
   9 C :    0.309208
  10 S :   -0.632666
  11 N :   -0.240778
  12 C :    0.096279
  13 C :   -0.045904
  14 C :   -0.180900
  15 C :   -0.138014
  16 C :   -0.294663
  17 C :    0.254894
  18 O :   -0.422140
  19 C :   -0.250501
  20 H :    0.096953
  21 H :    0.118876
  22 H :    0.095853
  23 H :    0.097564
  24 H :    0.136191
  25 H :    0.134306
  26 H :    0.126386
  27 H :    0.131975
  28 H :    0.256680
  29 H :    0.257993
  30 H :    0.178548
  31 H :    0.173531
  32 H :    0.193267
  33 H :    0.176039
  34 H :    0.320881
  35 H :    0.178835
Sum of atomic charges:    0.0000000

--------------------------------
MULLIKEN REDUCED ORBITAL CHARGES
--------------------------------
  0 C s       :     3.257951  s :     3.257951
      pz      :     1.001455  p :     2.954397
      px      :     0.900796
      py      :     1.052147
      dz2     :     0.018988  d :     0.074646
      dxz     :     0.022169
      dyz     :     0.005312
      dx2y2   :     0.017674
      dxy     :     0.010504
      f0      :     0.000887  f :     0.004600
      f+1     :     0.000702
      f-1     :     0.000505
      f+2     :     0.000638
      f-2     :     0.000201
      f+3     :     0.001095
      f-3     :     0.000573
  1 C s       :     3.168453  s :     3.168453
      pz      :     1.031340  p :     2.646934
      px      :     0.936508
      py      :     0.679087
      dz2     :     0.019513  d :     0.144890
      dxz     :     0.027937
      dyz     :     0.026698
      dx2y2   :     0.033728
      dxy     :     0.037013
      f0      :     0.000924  f :     0.011291
      f+1     :     0.001053
      f-1     :     0.001738
      f+2     :     0.001860
      f-2     :     0.000768
      f+3     :     0.002440
      f-3     :     0.002507
  2 O s       :     3.709601  s :     3.709601
      pz      :     1.658387  p :     4.637092
      px      :     1.778704
      py      :     1.200000
      dz2     :     0.003713  d :     0.031267
      dxz     :     0.002500
      dyz     :     0.013604
      dx2y2   :     0.005224
      dxy     :     0.006226
      f0      :     0.000188  f :     0.002198
      f+1     :     0.000027
      f-1     :     0.000360
      f+2     :     0.000518
      f-2     :     0.000211
[...]
 15 C s       :     2.697313  s :     2.697313
      pz      :     0.952244  p :     2.807443
      px      :     0.986489
      py      :     0.868709
      dz2     :     0.091276  d :     0.431394
      dxz     :     0.130028
      dyz     :     0.047317
      dx2y2   :     0.084440
      dxy     :     0.078333
      f0      :     0.008113  f :     0.044041
      f+1     :     0.006681
      f-1     :     0.004851
      f+2     :     0.007116
      f-2     :     0.005395
      f+3     :     0.005766
      f-3     :     0.006118
 16 C s       :     2.707606  s :     2.707606
      pz      :     0.980636  p :     2.857252
      px      :     0.956715
      py      :     0.919901
      dz2     :     0.116489  d :     0.384613
      dxz     :     0.095523
      dyz     :     0.072308
      dx2y2   :     0.050573
      dxy     :     0.049719
      f0      :     0.007839  f :     0.038992
      f+1     :     0.007536
      f-1     :     0.006180
      f+2     :     0.006417
      f-2     :     0.006072
      f+3     :     0.001832
      f-3     :     0.003116
 17 C s       :     2.705327  s :     2.705327
      pz      :     0.899257  p :     2.703426
      px      :     0.984748
      py      :     0.819420
      dz2     :     0.188152  d :     0.706152
      dxz     :     0.197331
      dyz     :     0.131775
      dx2y2   :     0.093238
      dxy     :     0.095654
      f0      :     0.023885  f :     0.097898
      f+1     :     0.017289
      f-1     :     0.013140
      f+2     :     0.017069
      f-2     :     0.014423
      f+3     :     0.006485
      f-3     :     0.005606
 18 O s       :     3.163549  s :     3.163549
      pz      :     1.459879  p :     4.393798
      px      :     1.347274
      py      :     1.586644
      dz2     :     0.022315  d :     0.071991
      dxz     :     0.018534
      dyz     :     0.012440
      dx2y2   :     0.009555
      dxy     :     0.009146
      f0      :     0.000994  f :     0.004138
      f+1     :     0.000905
      f-1     :     0.000550
      f+2     :     0.000469
      f-2     :     0.000374
      f+3     :     0.000423
      f-3     :     0.000424
 19 C s       :     2.701058  s :     2.701058
      pz      :     0.960962  p :     2.857077
      px      :     0.981376
      py      :     0.914739
      dz2     :     0.084097  d :     0.392976
      dxz     :     0.121988
      dyz     :     0.041436
      dx2y2   :     0.071241
      dxy     :     0.074214
      f0      :     0.006824  f :     0.040515
      f+1     :     0.006855
      f-1     :     0.004275
      f+2     :     0.006238
      f-2     :     0.005527
      f+3     :     0.004903
      f-3     :     0.005894
 20 H s       :     0.847298  s :     0.847298
      pz      :     0.069694  p :     0.153033
      px      :     0.036889
      py      :     0.046450
      dz2     :     0.008960  d :     0.027858
      dxz     :     0.008012
      dyz     :     0.009047
      dx2y2   :     0.001293
      dxy     :     0.000545
 21 H s       :     0.830401  s :     0.830401
      pz      :     0.043844  p :     0.155691
      px      :     0.041551
      py      :     0.070296
      dz2     :     0.002528  d :     0.028291
      dxz     :     0.000712
      dyz     :     0.009305
      dx2y2   :     0.007446
      dxy     :     0.008299
 22 H s       :     0.846983  s :     0.846983
      pz      :     0.050768  p :     0.152488
      px      :     0.051903
      py      :     0.049817
      dz2     :     0.006924  d :     0.027805
      dxz     :     0.005410
      dyz     :     0.004434
      dx2y2   :     0.006573
      dxy     :     0.004464
 23 H s       :     0.845447  s :     0.845447
      pz      :     0.066276  p :     0.150588
      px      :     0.052823
      py      :     0.031490
      dz2     :     0.009316  d :     0.027809
      dxz     :     0.006526
      dyz     :     0.005552
      dx2y2   :     0.003587
      dxy     :     0.002828
 24 H s       :     0.843170  s :     0.843170
      pz      :     0.060767  p :     0.144359
      px      :     0.041716
      py      :     0.041877
      dz2     :     0.007554  d :     0.027150
      dxz     :     0.005364
      dyz     :     0.006940
      dx2y2   :     0.003527
      dxy     :     0.003766
 25 H s       :     0.826528  s :     0.826528
      pz      :     0.050001  p :     0.151883
      px      :     0.039341
      py      :     0.062541
      dz2     :     0.005424  d :     0.027750
      dxz     :     0.003230
      dyz     :     0.007166
      dx2y2   :     0.005489
      dxy     :     0.006441
 26 H s       :     0.827920  s :     0.827920
      pz      :     0.041635  p :     0.150713
      px      :     0.071227
      py      :     0.037851
      dz2     :     0.002505  d :     0.027805
      dxz     :     0.008603
      dyz     :     0.001127
      dx2y2   :     0.007638
      dxy     :     0.007932
 27 H s       :     0.822204  s :     0.822204
      pz      :     0.063985  p :     0.154098
      px      :     0.047561
      py      :     0.042552
      dz2     :     0.008059  d :     0.027966
      dxz     :     0.006739
      dyz     :     0.007058
      dx2y2   :     0.003092
      dxy     :     0.003019
 28 H s       :     0.713176  s :     0.713176
      pz      :     0.096587  p :     0.251509
      px      :     0.114073
      py      :     0.040849
      dz2     :     0.013992  d :     0.060909
      dxz     :     0.017021
      dyz     :     0.004354
      dx2y2   :     0.014254
      dxy     :     0.011289
 29 H s       :     0.722778  s :     0.722778
      pz      :     0.071430  p :     0.251588
      px      :     0.067011
      py      :     0.113146
      dz2     :     0.009397  d :     0.060792
      dxz     :     0.003094
      dyz     :     0.017356
      dx2y2   :     0.013954
      dxy     :     0.016991
 30 H s       :     0.824134  s :     0.824134
      pz      :     0.080276  p :     0.152167
      px      :     0.038118
      py      :     0.033772
      dz2     :     0.010185  d :     0.028597
      dxz     :     0.008825
      dyz     :     0.007957
      dx2y2   :     0.001193
      dxy     :     0.000436
 31 H s       :     0.837178  s :     0.837178
      pz      :     0.063304  p :     0.156135
      px      :     0.043164
      py      :     0.049667
      dz2     :     0.008194  d :     0.027776
      dxz     :     0.007053
      dyz     :     0.006069
      dx2y2   :     0.003320
      dxy     :     0.003140
 32 H s       :     0.829704  s :     0.829704
      pz      :     0.069383  p :     0.151644
      px      :     0.044675
      py      :     0.037587
      dz2     :     0.008854  d :     0.026947
      dxz     :     0.007956
      dyz     :     0.005919
      dx2y2   :     0.002240
      dxy     :     0.001978
 33 H s       :     0.838421  s :     0.838421
      pz      :     0.034124  p :     0.158395
      px      :     0.077176
      py      :     0.047095
      dz2     :     0.002758  d :     0.027593
      dxz     :     0.007787
      dyz     :     0.001151
      dx2y2   :     0.008029
      dxy     :     0.007868
 34 H s       :     0.672518  s :     0.672518
      pz      :     0.072394  p :     0.342870
      px      :     0.163149
      py      :     0.107327
      dz2     :     0.008298  d :     0.097569
      dxz     :     0.025561
      dyz     :     0.003864
      dx2y2   :     0.029391
      dxy     :     0.030456
 35 H s       :     0.837514  s :     0.837514
      pz      :     0.066506  p :     0.159964
      px      :     0.049739
      py      :     0.043719
      dz2     :     0.008479  d :     0.028117
      dxz     :     0.007868
      dyz     :     0.005918
      dx2y2   :     0.002929
      dxy     :     0.002923


                      *****************************
                      * MAYER POPULATION ANALYSIS *
                      *****************************

  NA   - Mulliken gross atomic population
  ZA   - Total nuclear charge
  QA   - Mulliken gross atomic charge
  VA   - Mayer's total valence
  BVA  - Mayer's bonded valence
  FA   - Mayer's free valence

  ATOM       NA         ZA         QA         VA         BVA        FA
  0 C      6.2916     6.0000    -0.2916     3.8640     3.8640    -0.0000
  1 C      5.9716     6.0000     0.0284     3.8364     3.8364     0.0000
  2 O      8.3802     8.0000    -0.3802     2.0304     2.0304    -0.0000
  3 C      5.4953     6.0000     0.5047     4.2405     4.2405    -0.0000
  4 O      8.5216     8.0000    -0.5216     2.0181     2.0181     0.0000
  5 C      6.2377     6.0000    -0.2377     3.6133     3.6133     0.0000
  6 C      5.8190     6.0000     0.1810     3.8318     3.8318     0.0000
  7 C      6.2712     6.0000    -0.2712     3.8755     3.8755    -0.0000
  8 N      7.1405     7.0000    -0.1405     3.3637     3.3637     0.0000
  9 C      5.6908     6.0000     0.3092     4.0450     4.0450     0.0000
 10 S     16.6327    16.0000    -0.6327     1.4721     1.4721    -0.0000
 11 N      7.2408     7.0000    -0.2408     3.3581     3.3581    -0.0000
 12 C      5.9037     6.0000     0.0963     3.8724     3.8724     0.0000
 13 C      6.0459     6.0000    -0.0459     3.7415     3.7415     0.0000
 14 C      6.1809     6.0000    -0.1809     3.8132     3.8132     0.0000
 15 C      6.1380     6.0000    -0.1380     3.7531     3.7531    -0.0000
 16 C      6.2947     6.0000    -0.2947     3.7626     3.7626     0.0000
 17 C      5.7451     6.0000     0.2549     3.9202     3.9202     0.0000
 18 O      8.4221     8.0000    -0.4221     2.0533     2.0533    -0.0000
 19 C      6.2505     6.0000    -0.2505     3.7901     3.7901     0.0000
 20 H      0.9030     1.0000     0.0970     0.9895     0.9895    -0.0000
 21 H      0.8811     1.0000     0.1189     0.9757     0.9757    -0.0000
 22 H      0.9041     1.0000     0.0959     0.9847     0.9847    -0.0000
 23 H      0.9024     1.0000     0.0976     0.9738     0.9738    -0.0000
 24 H      0.8638     1.0000     0.1362     0.9723     0.9723     0.0000
 25 H      0.8657     1.0000     0.1343     0.9795     0.9795     0.0000
 26 H      0.8736     1.0000     0.1264     0.9851     0.9851    -0.0000
 27 H      0.8680     1.0000     0.1320     0.9821     0.9821     0.0000
 28 H      0.7433     1.0000     0.2567     0.9693     0.9693     0.0000
 29 H      0.7420     1.0000     0.2580     0.9654     0.9654    -0.0000
 30 H      0.8215     1.0000     0.1785     0.9781     0.9781     0.0000
 31 H      0.8265     1.0000     0.1735     0.9895     0.9895     0.0000
 32 H      0.8067     1.0000     0.1933     0.9620     0.9620    -0.0000
 33 H      0.8240     1.0000     0.1760     0.9771     0.9771     0.0000
 34 H      0.6791     1.0000     0.3209     0.9411     0.9411    -0.0000
 35 H      0.8212     1.0000     0.1788     0.9897     0.9897     0.0000

  Mayer bond orders larger than 0.100000
B(  0-C ,  1-C ) :   0.9679 B(  0-C , 20-H ) :   0.9786 B(  0-C , 21-H ) :   0.9723 
B(  0-C , 22-H ) :   0.9722 B(  1-C ,  2-O ) :   0.8826 B(  1-C , 23-H ) :   0.9738 
B(  1-C , 24-H ) :   0.9788 B(  2-O ,  3-C ) :   1.1631 B(  3-C ,  4-O ) :   1.9429 
B(  3-C ,  5-C ) :   1.0893 B(  5-C ,  6-C ) :   1.5842 B(  5-C , 12-C ) :   0.9582 
B(  6-C ,  7-C ) :   0.9577 B(  6-C ,  8-N ) :   1.1757 B(  7-C , 25-H ) :   0.9656 
B(  7-C , 26-H ) :   0.9801 B(  7-C , 27-H ) :   0.9582 B(  8-N ,  9-C ) :   1.2165 
B(  8-N , 28-H ) :   0.9226 B(  9-C , 10-S ) :   1.3331 B(  9-C , 11-N ) :   1.4253 
B( 11-N , 12-C ) :   0.9409 B( 11-N , 29-H ) :   0.9187 B( 12-C , 13-C ) :   0.9592 
B( 12-C , 30-H ) :   0.9862 B( 13-C , 14-C ) :   1.3472 B( 13-C , 19-C ) :   1.3690 
B( 14-C , 15-C ) :   1.4053 B( 14-C , 31-H ) :   0.9629 B( 15-C , 16-C ) :   1.3306 
B( 15-C , 32-H ) :   0.9591 B( 16-C , 17-C ) :   1.3470 B( 16-C , 33-H ) :   0.9695 
B( 17-C , 18-O ) :   1.1361 B( 17-C , 19-C ) :   1.3605 B( 18-O , 34-H ) :   0.9090 
B( 19-C , 35-H ) :   0.9465 

-------
TIMINGS
-------

Total SCF time: 0 days 1 hours 29 min 1 sec 

Total time                  ....    5341.589 sec
Sum of individual times     ....    5337.882 sec  ( 99.9%)

Fock matrix formation       ....    5327.175 sec  ( 99.7%)
Diagonalization             ....       1.180 sec  (  0.0%)
Density matrix formation    ....       0.176 sec  (  0.0%)
Population analysis         ....       0.193 sec  (  0.0%)
Initial guess               ....       5.028 sec  (  0.1%)
Orbital Transformation      ....       0.000 sec  (  0.0%)
Orbital Orthonormalization  ....       0.000 sec  (  0.0%)
DIIS solution               ....       1.306 sec  (  0.0%)
SOSCF solution              ....       1.498 sec  (  0.0%)

Maximum memory used throughout the entire SCF-calculation: 707.2 MB

------------------------------------------------------------------------------
                                ORCA  MP2 
------------------------------------------------------------------------------

Freezing NCore=48 chemical core electrons

-------------
RI-MP2 ENERGY
-------------
Dimension of the basis                    ...  828
Memory devoted to MP2                     ...  256 MB   
Data format for buffers                   ... DOUBLE
Compression type for matrix containers    ... UNCOMPRESSED
Overall scaling of the MP2 energy         ...   1.000e+00
Calculating two index integrals           ... done (    0.042 sec)
Cholesky decomposition of V**-1           ... done (    0.557 sec)

-----------------
RI-TRANSFORMATION (AUX index driven)
-----------------

Dimension of the orbital-basis         ... 828
Dimension of the aux-basis             ... 2141
Transformation of internal/external MOs...   24-  76 to   77- 827
Number Format for Storage              ... Double (8 Byte)
Integral mode                          ... Direct

First Phase: integral generation and transformation of MO indices
  Aux angular momentum 0               ... done (    4.285 sec)
  Aux angular momentum 1               ... done (    7.614 sec)
  Aux angular momentum 2               ... done (    9.910 sec)
  Aux angular momentum 3               ... done (    8.141 sec)
  Aux angular momentum 4               ... done (    2.887 sec)
Closing buffer VIA ( 0.63 GB; CompressionRatio= 1.00)
  Phase 1 completed in    32.995 sec
Second Phase: sorting and transformation of aux index

IA-Transformation
Memory available                       ... 158 MB 
Max. # MO pairs treated in a batch     ... 11    
# of internal orbitals                 ... 53
# batches for internal orbitals        ... 5
Closing buffer IAV ( 0.63 GB; CompressionRatio= 1.00)
(ia|v) transformation done in    17.849 sec

  Phase 2 completed in    17.857 sec
RI-Integral transformation completed in    50.857 sec
Opening buffers                              ... done

Starting loop over batches of integrals:

Operator 0  - window                       ... ( 24- 76)x( 77-827)
Operator 0  - Memory available             ...   256 MB
Operator 0  - Memory needed per MO         ...  12.3 MB
Operator 0  - Number of orbitals per batch ... 13
Operator 0  - Number of batches            ... 5

OPERATOR  0   PASS   0:  MOs    24 ...   36
  Reading integrals       ... ok
  Internal MO  26
  Internal MO  29
  Internal MO  32
  Internal MO  35
OPERATOR  0   PASS   1:  MOs    37 ...   49
  Reading integrals       ... ok
  Internal MO  38
  Internal MO  41
  Internal MO  44
  Internal MO  47
OPERATOR  0   PASS   2:  MOs    50 ...   62
  Reading integrals       ... ok
  Internal MO  50
  Internal MO  53
  Internal MO  56
  Internal MO  59
  Internal MO  62
OPERATOR  0   PASS   3:  MOs    63 ...   75
  Reading integrals       ... ok
  Internal MO  65
  Internal MO  68
  Internal MO  71
  Internal MO  74
OPERATOR  0   PASS   4:  MOs    76 ...   76
  Reading integrals       ... ok
Time spent in pair loops =    81.638 sec
Deleting buffer (Ka|jb)[aa] ...done

-----------------------------------------------
 RI-MP2 CORRELATION ENERGY:     -3.523029783 Eh
-----------------------------------------------


-------
TIMINGS
-------

Total time                :  133.188 sec
Integral trafo            :   50.879 sec ( 38.2%)
I/O of integrals          :    0.986 sec (  0.7%)
K(i,j) Operators          :   55.352 sec ( 41.6%)
T(i,j) pair energies      :    8.071 sec (  6.1%)
V-calculation             :    0.042 sec (  0.0%)
V**(-1/2)                 :    0.557 sec (  0.4%)
Gamma(ia|P)               :    0.000 sec (  0.0%)
Gamma-Trafo               :    0.000 sec (  0.0%)
D(virtual)                :    0.000 sec (  0.0%)
D(internal)               :    0.000 sec (  0.0%)
W(virtual)                :    0.000 sec (  0.0%)
W(internal)               :    0.000 sec (  0.0%)
L(virtual)                :    0.000 sec (  0.0%)
L(internal)               :    0.000 sec (  0.0%)
G(D)                      :    0.000 sec (  0.0%)
G(Z)                      :    0.000 sec (  0.0%)
Z-Vector Solution         :    0.000 sec (  0.0%)
3-Index Derivative        :    0.000 sec (  0.0%)
2-Index Derivative        :    0.000 sec (  0.0%)
Separable Gradient        :    0.000 sec (  0.0%)


---------------------------------------
MP2 TOTAL ENERGY:    -1274.402283274 Eh
---------------------------------------

Maximum memory used throughout the entire MP2-calculation: 302.0 MB

-------------------------   --------------------
FINAL SINGLE POINT ENERGY     -1274.402283274043
-------------------------   --------------------


                            ***************************************
                            *     ORCA property calculations      *
                            ***************************************


  WARNING: The energy has been calculated at the MP2 level but the densities
           used in the property calculations are still SCF densities
           MP2 response densities have not been calculated 
           use %mp2 Density relaxed end
           or  %mp2 Density unrelaxed end

                                    ---------------------
                                    Active property flags
                                    ---------------------
   (+) Dipole Moment


------------------------------------------------------------------------------
                       ORCA ELECTRIC PROPERTIES CALCULATION
------------------------------------------------------------------------------

Dipole Moment Calculation                       ... on
Quadrupole Moment Calculation                   ... off
Polarizability Calculation                      ... off
GBWName                                         ... qm_input.solv.gbw
Electron density file                           ... qm_input.solv.scfp
The origin for moment calculation is the CENTER OF MASS  = (-20.728805, -28.239198 11.458068)

-------------
DIPOLE MOMENT
-------------
                                X             Y             Z
Electronic contribution:     -5.46714     -16.49285      -2.54954
Nuclear contribution   :      6.18398      18.75208       2.96780
                        -----------------------------------------
Total Dipole Moment    :      0.71685       2.25923       0.41826
                        -----------------------------------------
Magnitude (a.u.)       :      2.40685
Magnitude (Debye)      :      6.11772



--------------------
Rotational spectrum 
--------------------
 
Rotational constants in cm-1:     0.009611     0.009112     0.005307 
Rotational constants in MHz :   288.141819   273.168767   159.109576 

 Dipole components along the rotational axes: 
x,y,z [a.u.] :    -2.392345     0.104192    -0.242389 
x,y,z [Debye]:    -6.080857     0.264835    -0.616105 

 

Timings for individual modules:

Sum of individual times         ...     5700.659 sec (=  95.011 min)
GTO integral calculation        ...      225.154 sec (=   3.753 min)   3.9 %
SCF iterations                  ...     5341.727 sec (=  89.029 min)  93.7 %
MP2 module                      ...      133.779 sec (=   2.230 min)   2.3 %
                             ****ORCA TERMINATED NORMALLY****
TOTAL RUN TIME: 0 days 1 hours 35 minutes 1 seconds 612 msec
