
                                        *****************
                                        * O   R   C   A *
                                        *****************

                                            #,                                       
                                            ###                                      
                                            ####                                     
                                            #####                                    
                                            ######                                   
                                           ########,                                 
                                     ,,################,,,,,                         
                               ,,#################################,,                 
                          ,,##########################################,,             
                       ,#########################################, ''#####,          
                    ,#############################################,,   '####,        
                  ,##################################################,,,,####,       
                ,###########''''           ''''###############################       
              ,#####''   ,,,,##########,,,,          '''####'''          '####       
            ,##' ,,,,###########################,,,                        '##       
           ' ,,###''''                  '''############,,,                           
         ,,##''                                '''############,,,,        ,,,,,,###''
      ,#''                                            '''#######################'''  
     '                                                          ''''####''''         
             ,#######,   #######,   ,#######,      ##                                
            ,#'     '#,  ##    ##  ,#'     '#,    #''#        ######   ,####,        
            ##       ##  ##   ,#'  ##            #'  '#       #        #'  '#        
            ##       ##  #######   ##           ,######,      #####,   #    #        
            '#,     ,#'  ##    ##  '#,     ,#' ,#      #,         ##   #,  ,#        
             '#######'   ##     ##  '#######'  #'      '#     #####' # '####'        



                  #######################################################
                  #                        -***-                        #
                  #          Department of theory and spectroscopy      #
                  #    Directorship and core code : Frank Neese         #
                  #        Max Planck Institute fuer Kohlenforschung    #
                  #                Kaiser Wilhelm Platz 1               #
                  #                 D-45470 Muelheim/Ruhr               #
                  #                      Germany                        #
                  #                                                     #
                  #                  All rights reserved                #
                  #                        -***-                        #
                  #######################################################


                         Program Version 5.0.0 -  RELEASE  -
                                (SVN: $Rev: 19529$)
                ($Date: 2021-06-28 11:36:33 +0200 (Mo, 28 Jun 2021) $)


 With contributions from (in alphabetic order):
   Daniel Aravena         : Magnetic Suceptibility
   Michael Atanasov       : Ab Initio Ligand Field Theory (pilot matlab implementation)
   Alexander A. Auer      : GIAO ZORA, VPT2 properties, NMR spectrum
   Ute Becker             : Parallelization
   Giovanni Bistoni       : ED, misc. LED, open-shell LED, HFLD
   Martin Brehm           : Molecular dynamics
   Dmytro Bykov           : SCF Hessian
   Vijay G. Chilkuri      : MRCI spin determinant printing, contributions to CSF-ICE
   Dipayan Datta          : RHF DLPNO-CCSD density
   Achintya Kumar Dutta   : EOM-CC, STEOM-CC
   Dmitry Ganyushin       : Spin-Orbit,Spin-Spin,Magnetic field MRCI
   Miquel Garcia          : C-PCM Hessian, Gaussian charge scheme
   Yang Guo               : DLPNO-NEVPT2, F12-NEVPT2, CIM, IAO-localization
   Andreas Hansen         : Spin unrestricted coupled pair/coupled cluster methods
   Benjamin Helmich-Paris : MC-RPA, TRAH-SCF, COSX integrals
   Lee Huntington         : MR-EOM, pCC
   Robert Izsak           : Overlap fitted RIJCOSX, COSX-SCS-MP3, EOM
   Marcus Kettner         : VPT2
   Christian Kollmar      : KDIIS, OOCD, Brueckner-CCSD(T), CCSD density, CASPT2, CASPT2-K
   Simone Kossmann        : Meta GGA functionals, TD-DFT gradient, OOMP2, MP2 Hessian
   Martin Krupicka        : Initial AUTO-CI
   Lucas Lang             : DCDCAS
   Marvin Lechner         : AUTO-CI (C++ implementation), FIC-MRCC
   Dagmar Lenk            : GEPOL surface, SMD
   Dimitrios Liakos       : Extrapolation schemes; Compound Job, initial MDCI parallelization
   Dimitrios Manganas     : Further ROCIS development; embedding schemes
   Dimitrios Pantazis     : SARC Basis sets
   Anastasios Papadopoulos: AUTO-CI, single reference methods and gradients
   Taras Petrenko         : DFT Hessian,TD-DFT gradient, ASA, ECA, R-Raman, ABS, FL, XAS/XES, NRVS
   Peter Pinski           : DLPNO-MP2, DLPNO-MP2 Gradient
   Christoph Reimann      : Effective Core Potentials
   Marius Retegan         : Local ZFS, SOC
   Christoph Riplinger    : Optimizer, TS searches, QM/MM, DLPNO-CCSD(T), (RO)-DLPNO pert. Triples
   Tobias Risthaus        : Range-separated hybrids, TD-DFT gradient, RPA, STAB
   Michael Roemelt        : Original ROCIS implementation
   Masaaki Saitow         : Open-shell DLPNO-CCSD energy and density
   Barbara Sandhoefer     : DKH picture change effects
   Avijit Sen             : IP-ROCIS
   Kantharuban Sivalingam : CASSCF convergence, NEVPT2, FIC-MRCI
   Bernardo de Souza      : ESD, SOC TD-DFT
   Georgi Stoychev        : AutoAux, RI-MP2 NMR
   Willem Van den Heuvel  : Paramagnetic NMR
   Boris Wezisla          : Elementary symmetry handling
   Frank Wennmohs         : Technical directorship


 We gratefully acknowledge several colleagues who have allowed us to
 interface, adapt or use parts of their codes:
   Stefan Grimme, W. Hujo, H. Kruse, P. Pracht,  : VdW corrections, initial TS optimization,
                  C. Bannwarth, S. Ehlert          DFT functionals, gCP, sTDA/sTD-DF
   Ed Valeev, F. Pavosevic, A. Kumar             : LibInt (2-el integral package), F12 methods
   Garnet Chan, S. Sharma, J. Yang, R. Olivares  : DMRG
   Ulf Ekstrom                                   : XCFun DFT Library
   Mihaly Kallay                                 : mrcc  (arbitrary order and MRCC methods)
   Jiri Pittner, Ondrej Demel                    : Mk-CCSD
   Frank Weinhold                                : gennbo (NPA and NBO analysis)
   Christopher J. Cramer and Donald G. Truhlar   : smd solvation model
   Lars Goerigk                                  : TD-DFT with DH, B97 family of functionals
   V. Asgeirsson, H. Jonsson                     : NEB implementation
   FAccTs GmbH                                   : IRC, NEB, NEB-TS, DLPNO-Multilevel, CI-OPT
                                                   MM, QMMM, 2- and 3-layer-ONIOM, Crystal-QMMM,
                                                   LR-CPCM, SF, NACMEs, symmetry and pop. for TD-DFT,
                                                   nearIR, NL-DFT gradient (VV10), updates on ESD,
                                                   ML-optimized integration grids
   S Lehtola, MJT Oliveira, MAL Marques          : LibXC Library
   Liviu Ungur et al                             : ANISO software


 Your calculation uses the libint2 library for the computation of 2-el integrals
 For citations please refer to: http://libint.valeyev.net

 Your ORCA version has been built with support for libXC version: 5.1.0
 For citations please refer to: https://tddft.org/programs/libxc/

 This ORCA versions uses:
   CBLAS   interface :  Fast vector & matrix operations
   LAPACKE interface :  Fast linear algebra routines
   SCALAPACK package :  Parallel linear algebra routines
   Shared memory     :  Shared parallel matrices
   BLAS/LAPACK       :  OpenBLAS 0.3.15  USE64BITINT DYNAMIC_ARCH NO_AFFINITY SkylakeX SINGLE_THREADED
        Core in use  :  SkylakeX
   Copyright (c) 2011-2014, The OpenBLAS Project


================================================================================

----- Orbital basis set information -----
Your calculation utilizes the basis: cc-pVTZ 
       H, B-Ne : Obtained from the ccRepo (grant-hill.group.shef.ac.uk/ccrepo) Feb. 2017
                 T. H. Dunning, Jr., J. Chem. Phys. 90, 1007 (1989)
            He : Obtained from the ccRepo (grant-hill.group.shef.ac.uk/ccrepo) Feb. 2017
                 D. E. Woon, T. H. Dunning, Jr., J. Chem. Phys. 100, 2975 (1994)
  Li-Be, Na-Mg : Obtained from the ccRepo (grant-hill.group.shef.ac.uk/ccrepo) Feb. 2017
                 B. P. Prascher, D. E. Woon, K. A. Peterson, T. H. Dunning, Jr., A. K. Wilson, Theor. Chem. Acc. 128, 69 (2011)
         Al-Ar : Obtained from the ccRepo (grant-hill.group.shef.ac.uk/ccrepo) Feb. 2017
                 D. E. Woon, T. H. Dunning, Jr., J. Chem. Phys. 98, 1358 (1993)
            Ca : Obtained from the Peterson Research Group Website (tyr0.chem.wsu.edu/~kipeters) Feb. 2017
                 J. Koput, K. A. Peterson, J. Phys. Chem. 106, 9595 (2002)
         Sc-Zn : Obtained from the ccRepo (grant-hill.group.shef.ac.uk/ccrepo) Feb. 2017
                 N. B. Balabanov, K. A. Peterson, J. Chem. Phys. 123, 064107 (2005)
                 N. B. Balabanov, K. A. Peterson, J. Chem. Phys. 125, 074110 (2006)
         Ga-Kr : Obtained from the ccRepo (grant-hill.group.shef.ac.uk/ccrepo) Feb. 2017
                 A. K. Wilson, D. E. Woon, K. A. Peterson, T. H. Dunning, Jr., J. Chem. Phys. 110, 7667 (1999)
             Y : Obtained from the ccRepo (grant-hill.group.shef.ac.uk/ccrepo) Feb. 2017
                 K. A. Peterson, D. Figgen, M. Dolg, H. Stoll, J. Chem. Phys. 126, 124101 (2007)
        Ag, Au : Obtained from the Peterson Research Group Website (tyr0.chem.wsu.edu/~kipeters) Feb. 2017
                 K. A. Peterson, C. Puzzarini, Theor. Chem. Acc. 114, 283 (2005)

----- AuxC basis set information -----
Your calculation utilizes the auxiliary basis: cc-pVTZ/C 
  Obtained from the EMSL Basis Set Exchange (bse.pnl.gov) Feb. 2017
  H-He, B-F, Al-Ar, Ga-Kr : F. Weigend, A. Kohn, C. Hattig, J. Chem. Phys. 116, 3175 (2002)
             Li-Be, Na-Mg : C. Haettig, Phys. Chem. Chem. Phys. 7, 59 (2005)
                       Ne : C. Haettig, Phys. Chem. Chem. Phys. 7, 59 (2005)
                            F. Weigend, A. Kohn, C. Hattig, J. Chem. Phys. 116, 3175 (2002)
                    Sc-Zn : J. G. Hill, J. A. Platts, J. Chem. Phys. 128, 044104 (2008)

================================================================================
                                        WARNINGS
                       Please study these warnings very carefully!
================================================================================


WARNING: No MP2 level density has been requested!
         To caclulate MP2 level properties use
         %mp2 Density relaxed end
         or
         %mp2 Density unrelaxed end

WARNING: Post HF methods need fully converged wavefunctions
  ===> : Setting SCFConvForced true
         You can overwrite this default with %scf ConvForced false 


INFO   : the flag for use of the SHARK integral package has been found!

================================================================================
                                       INPUT FILE
================================================================================
NAME = CONFS/Conf403.orca
|  1> ! ri-mp2 cc-pvtz cc-pvtz/c TightSCF NoKeepInts
|  2> 
|  3> %scf
|  4>   MaxCore 4096
|  5> end
|  6> *xyz  0  1
|  7>     C       14.9068120   14.0729626   16.1674499
|  8>     C       16.4392688   13.9699226   15.9956426
|  9>     O       17.1490963   15.0457542   16.6508638
| 10>     C       16.7740057   16.3628244   16.5923543
| 11>     O       15.9854182   16.7910482   15.7678225
| 12>     C       17.5964884   17.2276631   17.5082261
| 13>     C       17.5316178   18.5835369   17.4878505
| 14>     C       16.6745134   19.4485330   16.5884475
| 15>     N       18.3357075   19.3375085   18.3478985
| 16>     C       19.2805306   18.8213199   19.1936983
| 17>     S       20.2443633   19.7908071   20.1248883
| 18>     N       19.3877414   17.4547319   19.2309757
| 19>     C       18.5045257   16.5112866   18.5213771
| 20>     C       17.6946506   15.7010946   19.5295332
| 21>     C       17.9029234   14.3156064   19.6646260
| 22>     C       17.1536472   13.5666356   20.5875740
| 23>     C       16.1899352   14.2082862   21.3841390
| 24>     C       15.9828805   15.5885284   21.2550953
| 25>     O       15.0535148   16.2109944   22.0230743
| 26>     C       16.7299152   16.3311801   20.3355900
| 27>     H       14.6458609   14.3067673   17.2073208
| 28>     H       14.4333897   13.1191340   15.9057731
| 29>     H       14.4740991   14.8400242   15.5142590
| 30>     H       16.7871402   13.0146863   16.4091186
| 31>     H       16.6743048   13.9749636   14.9231384
| 32>     H       16.9087172   19.2582525   15.5332859
| 33>     H       16.8089084   20.5214140   16.7689636
| 34>     H       15.6110385   19.2193235   16.7336464
| 35>     H       18.2712053   20.3428133   18.3343034
| 36>     H       20.0654862   17.1024634   19.8945867
| 37>     H       19.1519269   15.8226864   17.9605110
| 38>     H       18.6434487   13.8163278   19.0456414
| 39>     H       17.3203296   12.4951649   20.6831423
| 40>     H       15.6088119   13.6342729   22.0983243
| 41>     H       14.6656833   15.5440855   22.6092475
| 42>     H       16.5590931   17.3993959   20.2556107
| 43> *
| 44> 
| 45>                          ****END OF INPUT****
================================================================================

                       ****************************
                       * Single Point Calculation *
                       ****************************

---------------------------------
CARTESIAN COORDINATES (ANGSTROEM)
---------------------------------
  C     14.906812   14.072963   16.167450
  C     16.439269   13.969923   15.995643
  O     17.149096   15.045754   16.650864
  C     16.774006   16.362824   16.592354
  O     15.985418   16.791048   15.767822
  C     17.596488   17.227663   17.508226
  C     17.531618   18.583537   17.487851
  C     16.674513   19.448533   16.588448
  N     18.335708   19.337508   18.347898
  C     19.280531   18.821320   19.193698
  S     20.244363   19.790807   20.124888
  N     19.387741   17.454732   19.230976
  C     18.504526   16.511287   18.521377
  C     17.694651   15.701095   19.529533
  C     17.902923   14.315606   19.664626
  C     17.153647   13.566636   20.587574
  C     16.189935   14.208286   21.384139
  C     15.982881   15.588528   21.255095
  O     15.053515   16.210994   22.023074
  C     16.729915   16.331180   20.335590
  H     14.645861   14.306767   17.207321
  H     14.433390   13.119134   15.905773
  H     14.474099   14.840024   15.514259
  H     16.787140   13.014686   16.409119
  H     16.674305   13.974964   14.923138
  H     16.908717   19.258253   15.533286
  H     16.808908   20.521414   16.768964
  H     15.611038   19.219324   16.733646
  H     18.271205   20.342813   18.334303
  H     20.065486   17.102463   19.894587
  H     19.151927   15.822686   17.960511
  H     18.643449   13.816328   19.045641
  H     17.320330   12.495165   20.683142
  H     15.608812   13.634273   22.098324
  H     14.665683   15.544085   22.609247
  H     16.559093   17.399396   20.255611

----------------------------
CARTESIAN COORDINATES (A.U.)
----------------------------
  NO LB      ZA    FRAG     MASS         X           Y           Z
   0 C     6.0000    0    12.011   28.169792   26.594045   30.552053
   1 C     6.0000    0    12.011   31.065716   26.399328   30.227384
   2 O     8.0000    0    15.999   32.407095   28.432355   31.465572
   3 C     6.0000    0    12.011   31.698277   30.921257   31.355006
   4 O     8.0000    0    15.999   30.208063   31.730483   29.796866
   5 C     6.0000    0    12.011   33.252544   32.555565   33.085752
   6 C     6.0000    0    12.011   33.129956   35.117795   33.047248
   7 C     6.0000    0    12.011   31.510264   36.752401   31.347623
   8 N     7.0000    0    14.007   34.649466   36.542595   34.672503
   9 C     6.0000    0    12.011   36.434923   35.567140   36.270833
  10 S    16.0000    0    32.060   38.256302   37.399205   38.030527
  11 N     7.0000    0    14.007   36.637522   32.984663   36.341277
  12 C     6.0000    0    12.011   34.968486   31.201810   35.000330
  13 C     6.0000    0    12.011   33.438044   29.670769   36.905469
  14 C     6.0000    0    12.011   33.831622   27.052576   37.160758
  15 C     6.0000    0    12.011   32.415695   25.637226   38.904877
  16 C     6.0000    0    12.011   30.594544   26.849770   40.410166
  17 C     6.0000    0    12.011   30.203267   29.458050   40.166309
  18 O     8.0000    0    15.999   28.447020   30.634340   41.617579
  19 C     6.0000    0    12.011   31.614958   30.861458   38.428696
  20 H     1.0000    0     1.008   27.676666   27.035872   32.517124
  21 H     1.0000    0     1.008   27.275154   24.791570   30.057555
  22 H     1.0000    0     1.008   27.352083   28.043582   29.317701
  23 H     1.0000    0     1.008   31.723098   24.594193   31.008740
  24 H     1.0000    0     1.008   31.509870   26.408854   28.200645
  25 H     1.0000    0     1.008   31.952845   36.392823   29.353656
  26 H     1.0000    0     1.008   31.764233   38.779852   31.688749
  27 H     1.0000    0     1.008   29.500587   36.319258   31.622009
  28 H     1.0000    0     1.008   34.527574   38.442346   34.646812
  29 H     1.0000    0     1.008   37.918274   32.318972   37.595320
  30 H     1.0000    0     1.008   36.191897   29.900544   33.940447
  31 H     1.0000    0     1.008   35.231012   26.109076   35.991046
  32 H     1.0000    0     1.008   32.730679   23.612440   39.085475
  33 H     1.0000    0     1.008   29.496380   25.765042   41.759781
  34 H     1.0000    0     1.008   27.714125   29.374065   42.725286
  35 H     1.0000    0     1.008   31.292151   32.880093   38.277557

--------------------------------
INTERNAL COORDINATES (ANGSTROEM)
--------------------------------
 C      0   0   0     0.000000000000     0.00000000     0.00000000
 C      1   0   0     1.545496306628     0.00000000     0.00000000
 O      2   1   0     1.445885034242   112.75573680     0.00000000
 C      3   2   1     1.370689691917   124.14370904   315.86539454
 O      4   3   2     1.218646198556   122.92960817   344.05621005
 C      4   3   2     1.504408496005   112.13470331   172.77057753
 C      6   4   3     1.357577666782   122.60787574   170.84124783
 C      7   6   4     1.513859954528   127.34682175   359.69858828
 N      7   6   4     1.398111576934   120.12493650   181.03257631
 C      9   7   6     1.369130622966   125.00076356     4.12529947
 S     10   9   7     1.654083952118   121.93224722   176.84527288
 N     10   9   7     1.371293740207   116.51752954   356.80812194
 C     12  10   9     1.474343643775   125.29549909   354.91300492
 C     13  12  10     1.526003760294   109.85872466   246.23991239
 C     14  13  12     1.407552903507   120.49609111   246.53890377
 C     15  14  13     1.405064088874   120.58612505   180.31797055
 C     16  15  14     1.405337009635   119.64556320   359.87189125
 C     17  16  15     1.401639203206   119.91589659   359.93025066
 O     18  17  16     1.356825806776   120.05534271   180.02371953
 C     18  17  16     1.398242606719   120.30776553     0.08045965
 H      1   2   3     1.097311078501   110.81527055   314.92271940
 H      1   2   3     1.096536556606   110.09499558   195.52432764
 H      1   2   3     1.096486344586   111.82196564    76.44752734
 H      2   1   3     1.097475877799   109.29595343   121.06434424
 H      2   1   3     1.097967482212   108.69563176   238.36696314
 H      8   7   6     1.097462569170   110.56814104   300.88444868
 H      8   7   6     1.096230686738   113.07716506   180.19925016
 H      8   7   6     1.097542062238   110.52846290    59.57741000
 H      9   7   6     1.007463697337   119.53794370   180.84033194
 H     12  10   9     1.011835297536   114.65477490   182.57170313
 H     13  12  10     1.099031087518   107.07793062   128.61451140
 H     15  14  13     1.086645653097   119.89623722   359.83085105
 H     16  15  14     1.088561336532   120.04605471   179.85629100
 H     17  16  15     1.085014378299   119.92232574   180.00162576
 H     19  18  17     0.968906483459   107.50725787     1.81155637
 H     20  18  17     1.084740463727   119.16936966   180.39902294

---------------------------
INTERNAL COORDINATES (A.U.)
---------------------------
 C      0   0   0     0.000000000000     0.00000000     0.00000000
 C      1   0   0     2.920564760513     0.00000000     0.00000000
 O      2   1   0     2.732326735852   112.75573680     0.00000000
 C      3   2   1     2.590228132311   124.14370904   315.86539454
 O      4   3   2     2.302907569414   122.92960817   344.05621005
 C      4   3   2     2.842920050994   112.13470331   172.77057753
 C      6   4   3     2.565449995746   122.60787574   170.84124783
 C      7   6   4     2.860780719168   127.34682175   359.69858828
 N      7   6   4     2.642047985070   120.12493650   181.03257631
 C      9   7   6     2.587281918971   125.00076356     4.12529947
 S     10   9   7     3.125765672016   121.93224722   176.84527288
 N     10   9   7     2.591369618152   116.51752954   356.80812194
 C     12  10   9     2.786105714023   125.29549909   354.91300492
 C     13  12  10     2.883729186290   109.85872466   246.23991239
 C     14  13  12     2.659889506634   120.49609111   246.53890377
 C     15  14  13     2.655186328579   120.58612505   180.31797055
 C     16  15  14     2.655702074074   119.64556320   359.87189125
 C     17  16  15     2.648714232626   119.91589659   359.93025066
 O     18  17  16     2.564029186243   120.05534271   180.02371953
 C     18  17  16     2.642295595480   120.30776553     0.08045965
 H      1   2   3     2.073617422084   110.81527055   314.92271940
 H      1   2   3     2.072153787819   110.09499558   195.52432764
 H      1   2   3     2.072058900852   111.82196564    76.44752734
 H      2   1   3     2.073928847626   109.29595343   121.06434424
 H      2   1   3     2.074857845331   108.69563176   238.36696314
 H      8   7   6     2.073903697961   110.56814104   300.88444868
 H      8   7   6     2.071575777534   113.07716506   180.19925016
 H      8   7   6     2.074053918089   110.52846290    59.57741000
 H      9   7   6     1.903830477835   119.53794370   180.84033194
 H     12  10   9     1.912091604978   114.65477490   182.57170313
 H     13  12  10     2.076867768074   107.07793062   128.61451140
 H     15  14  13     2.053462688970   119.89623722   359.83085105
 H     16  15  14     2.057082806021   120.04605471   179.85629100
 H     17  16  15     2.050380026352   119.92232574   180.00162576
 H     19  18  17     1.830967903119   107.50725787     1.81155637
 H     20  18  17     2.049862402827   119.16936966   180.39902294

---------------------
BASIS SET INFORMATION
---------------------
There are 5 groups of distinct atoms

 Group   1 Type C   : 18s5p2d1f contracted to 4s3p2d1f pattern {8811/311/11/1}
 Group   2 Type O   : 18s5p2d1f contracted to 4s3p2d1f pattern {8811/311/11/1}
 Group   3 Type N   : 18s5p2d1f contracted to 4s3p2d1f pattern {8811/311/11/1}
 Group   4 Type S   : 41s16p2d1f contracted to 5s4p2d1f pattern {13131311/7711/11/1}
 Group   5 Type H   : 5s2p1d contracted to 3s2p1d pattern {311/11/1}

Atom   0C    basis set group =>   1
Atom   1C    basis set group =>   1
Atom   2O    basis set group =>   2
Atom   3C    basis set group =>   1
Atom   4O    basis set group =>   2
Atom   5C    basis set group =>   1
Atom   6C    basis set group =>   1
Atom   7C    basis set group =>   1
Atom   8N    basis set group =>   3
Atom   9C    basis set group =>   1
Atom  10S    basis set group =>   4
Atom  11N    basis set group =>   3
Atom  12C    basis set group =>   1
Atom  13C    basis set group =>   1
Atom  14C    basis set group =>   1
Atom  15C    basis set group =>   1
Atom  16C    basis set group =>   1
Atom  17C    basis set group =>   1
Atom  18O    basis set group =>   2
Atom  19C    basis set group =>   1
Atom  20H    basis set group =>   5
Atom  21H    basis set group =>   5
Atom  22H    basis set group =>   5
Atom  23H    basis set group =>   5
Atom  24H    basis set group =>   5
Atom  25H    basis set group =>   5
Atom  26H    basis set group =>   5
Atom  27H    basis set group =>   5
Atom  28H    basis set group =>   5
Atom  29H    basis set group =>   5
Atom  30H    basis set group =>   5
Atom  31H    basis set group =>   5
Atom  32H    basis set group =>   5
Atom  33H    basis set group =>   5
Atom  34H    basis set group =>   5
Atom  35H    basis set group =>   5
---------------------------------
AUXILIARY/C BASIS SET INFORMATION
---------------------------------
There are 5 groups of distinct atoms

 Group   1 Type C   : 8s6p5d3f1g contracted to 8s6p5d3f1g pattern {11111111/111111/11111/111/1}
 Group   2 Type O   : 8s6p5d3f1g contracted to 8s6p5d3f1g pattern {11111111/111111/11111/111/1}
 Group   3 Type N   : 8s6p5d3f1g contracted to 8s6p5d3f1g pattern {11111111/111111/11111/111/1}
 Group   4 Type S   : 10s8p7d5f2g contracted to 10s8p7d5f2g pattern {1111111111/11111111/1111111/11111/11}
 Group   5 Type H   : 4s3p2d1f contracted to 4s3p2d1f pattern {1111/111/11/1}

Atom   0C    basis set group =>   1
Atom   1C    basis set group =>   1
Atom   2O    basis set group =>   2
Atom   3C    basis set group =>   1
Atom   4O    basis set group =>   2
Atom   5C    basis set group =>   1
Atom   6C    basis set group =>   1
Atom   7C    basis set group =>   1
Atom   8N    basis set group =>   3
Atom   9C    basis set group =>   1
Atom  10S    basis set group =>   4
Atom  11N    basis set group =>   3
Atom  12C    basis set group =>   1
Atom  13C    basis set group =>   1
Atom  14C    basis set group =>   1
Atom  15C    basis set group =>   1
Atom  16C    basis set group =>   1
Atom  17C    basis set group =>   1
Atom  18O    basis set group =>   2
Atom  19C    basis set group =>   1
Atom  20H    basis set group =>   5
Atom  21H    basis set group =>   5
Atom  22H    basis set group =>   5
Atom  23H    basis set group =>   5
Atom  24H    basis set group =>   5
Atom  25H    basis set group =>   5
Atom  26H    basis set group =>   5
Atom  27H    basis set group =>   5
Atom  28H    basis set group =>   5
Atom  29H    basis set group =>   5
Atom  30H    basis set group =>   5
Atom  31H    basis set group =>   5
Atom  32H    basis set group =>   5
Atom  33H    basis set group =>   5
Atom  34H    basis set group =>   5
Atom  35H    basis set group =>   5
------------------------------------------------------------------------------
                           ORCA GTO INTEGRAL CALCULATION
------------------------------------------------------------------------------
------------------------------------------------------------------------------
                   ___                                                        
                  /   \      - P O W E R E D   B Y -                         
                 /     \                                                     
                 |  |  |   _    _      __       _____    __    __             
                 |  |  |  | |  | |    /  \     |  _  \  |  |  /  |          
                  \  \/   | |  | |   /    \    | | | |  |  | /  /          
                 / \  \   | |__| |  /  /\  \   | |_| |  |  |/  /          
                |  |  |   |  __  | /  /__\  \  |    /   |      \           
                |  |  |   | |  | | |   __   |  |    \   |  |\   \          
                \     /   | |  | | |  |  |  |  | |\  \  |  | \   \       
                 \___/    |_|  |_| |__|  |__|  |_| \__\ |__|  \__/        
                                                                              
                      - O R C A' S   B I G   F R I E N D -                    
                                      &                                       
                       - I N T E G R A L  F E E D E R -                       
                                                                              
 v1 FN, 2020, v2 2021                                                         
------------------------------------------------------------------------------


Reading SHARK input file CONFS/Conf403.orca.SHARKINP.tmp ... ok
----------------------
SHARK INTEGRAL PACKAGE
----------------------

Number of atoms                             ...     36
Number of basis functions                   ...    828
Number of shells                            ...    298
Maximum angular momentum                    ...      3
Integral batch strategy                     ... SHARK/LIBINT Hybrid
RI-J (if used) integral strategy            ... SPLIT-RIJ (Revised 2003 algorithm where possible)
Printlevel                                  ...      1
Contraction scheme used                     ... SEGMENTED contraction
Coulomb Range Separation                    ... NOT USED
Exchange Range Separation                   ... NOT USED
Finite Nucleus Model                        ... NOT USED
Auxiliary Coulomb fitting basis             ... NOT available
Auxiliary J/K fitting basis                 ... NOT available
Auxiliary Correlation fitting basis         ... AVAILABLE
   # of basis functions in Aux-C            ...   2141
   # of shells in Aux-C                     ...    629
   Maximum angular momentum in Aux-C        ...      4
Auxiliary 'external' fitting basis          ... NOT available
Integral threshold                          ...     2.500000e-11
Primitive cut-off                           ...     2.500000e-12
Primitive pair pre-selection threshold      ...     2.500000e-12

Calculating pre-screening integrals         ... done (  0.7 sec) Dimension = 298
Organizing shell pair data                  ... done (  1.3 sec)
Shell pair information
Total number of shell pairs                 ...     44551
Shell pairs after pre-screening             ...     33091
Total number of primitive shell pairs       ...    234348
Primitive shell pairs kept                  ...     94769
          la=0 lb=0:   6616 shell pairs
          la=1 lb=0:   9192 shell pairs
          la=1 lb=1:   3237 shell pairs
          la=2 lb=0:   5279 shell pairs
          la=2 lb=1:   3628 shell pairs
          la=2 lb=2:   1032 shell pairs
          la=3 lb=0:   1920 shell pairs
          la=3 lb=1:   1312 shell pairs
          la=3 lb=2:    727 shell pairs
          la=3 lb=3:    148 shell pairs

Calculating one electron integrals          ... done (  0.4 sec)
Calculating RI/C V-Matrix + Cholesky decomp.... done (  0.9 sec)
Calculating Nuclear repulsion               ... done (  0.1 sec) ENN=   1702.108384466498 Eh

SHARK setup successfully completed in   3.7 seconds

Maximum memory used throughout the entire GTOINT-calculation: 491.6 MB
-------------------------------------------------------------------------------
                                 ORCA SCF
-------------------------------------------------------------------------------

------------
SCF SETTINGS
------------
Hamiltonian:
 Ab initio Hamiltonian  Method          .... Hartree-Fock(GTOs)


General Settings:
 Integral files         IntName         .... CONFS/Conf403.orca
 Hartree-Fock type      HFTyp           .... RHF
 Total Charge           Charge          ....    0
 Multiplicity           Mult            ....    1
 Number of Electrons    NEL             ....  154
 Basis Dimension        Dim             ....  828
 Nuclear Repulsion      ENuc            ....   1702.1083844665 Eh

Convergence Acceleration:
 DIIS                   CNVDIIS         .... on
   Start iteration      DIISMaxIt       ....    12
   Startup error        DIISStart       ....  0.200000
   # of expansion vecs  DIISMaxEq       ....     5
   Bias factor          DIISBfac        ....   1.050
   Max. coefficient     DIISMaxC        ....  10.000
 Trust-Rad. Augm. Hess. CNVTRAH         .... auto
   Auto Start mean grad. ratio tolernc. ....  1.125000
   Auto Start start iteration           ....    20
   Auto Start num. interpolation iter.  ....    10
   Max. Number of Micro iterations      ....    16
   Max. Number of Macro iterations      .... Maxiter - #DIIS iter
   Number of Davidson start vectors     ....     2
   Converg. threshold I  (grad. norm)   ....   1.000e-05
   Converg. threshold II (energy diff.) ....   1.000e-08
   Grad. Scal. Fac. for Micro threshold ....   0.100
   Minimum threshold for Micro iter.    ....   0.010
   NR start threshold (gradient norm)   ....   0.001
   Initial trust radius                 ....   0.400
   Minimum AH scaling param. (alpha)    ....   1.000
   Maximum AH scaling param. (alpha)    .... 1000.000
   Orbital update algorithm             .... Taylor
   White noise on init. David. guess    .... on
   Maximum white noise                  ....   0.010
   Quad. conv. algorithm                .... NR
 SOSCF                  CNVSOSCF        .... on
   Start iteration      SOSCFMaxIt      ....   150
   Startup grad/error   SOSCFStart      ....  0.003300
 Level Shifting         CNVShift        .... on
   Level shift para.    LevelShift      ....    0.2500
   Turn off err/grad.   ShiftErr        ....    0.0010
 Zerner damping         CNVZerner       .... off
 Static damping         CNVDamp         .... on
   Fraction old density DampFac         ....    0.7000
   Max. Damping (<1)    DampMax         ....    0.9800
   Min. Damping (>=0)   DampMin         ....    0.0000
   Turn off err/grad.   DampErr         ....    0.1000
 Fernandez-Rico         CNVRico         .... off

SCF Procedure:
 Maximum # iterations   MaxIter         ....   125
 SCF integral mode      SCFMode         .... Direct
   Integral package                     .... SHARK and LIBINT hybrid scheme
 Reset frequency        DirectResetFreq ....    20
 Integral Threshold     Thresh          ....  2.500e-11 Eh
 Primitive CutOff       TCut            ....  2.500e-12 Eh

Convergence Tolerance:
 Convergence Check Mode ConvCheckMode   .... Total+1el-Energy
 Convergence forced     ConvForced      .... 1
 Energy Change          TolE            ....  1.000e-08 Eh
 1-El. energy change                    ....  1.000e-05 Eh
 Orbital Gradient       TolG            ....  1.000e-05
 Orbital Rotation angle TolX            ....  1.000e-05
 DIIS Error             TolErr          ....  5.000e-07


Diagonalization of the overlap matrix:
Smallest eigenvalue                        ... 3.475e-05
Time for diagonalization                   ...    0.139 sec
Threshold for overlap eigenvalues          ... 1.000e-08
Number of eigenvalues below threshold      ... 0
Time for construction of square roots      ...    0.252 sec
Total time needed                          ...    0.394 sec

Time for model grid setup =    1.530 sec

------------------------------
INITIAL GUESS: MODEL POTENTIAL
------------------------------
Loading Hartree-Fock densities                     ... done
Calculating cut-offs                               ... done
Initializing the effective Hamiltonian             ... done
Setting up the integral package (SHARK)            ... done
Starting the Coulomb interaction                   ... done (   4.5 sec)
Reading the grid                                   ... done
Mapping shells                                     ... done
Starting the XC term evaluation                    ... done (   1.5 sec)
Transforming the Hamiltonian                       ... done (   0.1 sec)
Diagonalizing the Hamiltonian                      ... done (   0.1 sec)
Back transforming the eigenvectors                 ... done (   0.0 sec)
Now organizing SCF variables                       ... done
                      ------------------
                      INITIAL GUESS DONE (   7.8 sec)
                      ------------------
--------------
SCF ITERATIONS
--------------
ITER       Energy         Delta-E        Max-DP      RMS-DP      [F,P]     Damp
               ***  Starting incremental Fock matrix formation  ***
  0  -1270.0158673147   0.000000000000 0.04930411  0.00043047  0.3016300 0.7000
  1  -1270.2836120511  -0.267744736467 0.03607271  0.00034567  0.1767395 0.7000
                               ***Turning on DIIS***
  2  -1270.4506693255  -0.167057274369 0.02583213  0.00023276  0.1096436 0.7000
  3  -1272.5976076873  -2.146938361736 0.06312555  0.00050790  0.0829141 0.0000
  4  -1270.7589392180   1.838668469271 0.00729022  0.00009238  0.0070604 0.0000
  5  -1270.8192767791  -0.060337561094 0.00361496  0.00004953  0.0047573 0.0000
                      *** Initiating the SOSCF procedure ***
                           *** Shutting down DIIS ***
                      *** Re-Reading the Fockian *** 
                      *** Removing any level shift *** 
ITER      Energy       Delta-E        Grad      Rot      Max-DP    RMS-DP
  6  -1270.79881404   0.0204627347  0.001617  0.001617  0.001669  0.000025
               *** Restarting incremental Fock matrix formation ***
  7  -1270.81362767  -0.0148136214  0.000868  0.002218  0.001270  0.000015
  8  -1270.81367150  -0.0000438328  0.000391  0.002449  0.001379  0.000016
  9  -1270.81368766  -0.0000161574  0.000167  0.000343  0.000351  0.000004
 10  -1270.81368968  -0.0000020222  0.000057  0.000152  0.000113  0.000001
 11  -1270.81368987  -0.0000001945  0.000024  0.000119  0.000052  0.000001
 12  -1270.81368993  -0.0000000605  0.000010  0.000041  0.000033  0.000000
 13  -1270.81368993   0.0000000002  0.000003  0.000012  0.000007  0.000000
                  ***Gradient check signals convergence***
              ***Rediagonalizing the Fockian in SOSCF/NRSCF***

               *****************************************************
               *                     SUCCESS                       *
               *           SCF CONVERGED AFTER  14 CYCLES          *
               *****************************************************


----------------
TOTAL SCF ENERGY
----------------

Total Energy       :        -1270.81368992 Eh          -34580.59855 eV

Components:
Nuclear Repulsion  :         1702.10838447 Eh           46316.72384 eV
Electronic Energy  :        -2972.92207438 Eh          -80897.32238 eV
One Electron Energy:        -5125.58984675 Eh         -139474.39047 eV
Two Electron Energy:         2152.66777237 Eh           58577.06809 eV

Virial components:
Potential Energy   :        -2539.71850487 Eh          -69109.25396 eV
Kinetic Energy     :         1268.90481496 Eh           34528.65542 eV
Virial Ratio       :            2.00150435


---------------
SCF CONVERGENCE
---------------

  Last Energy change         ...    1.7724e-08  Tolerance :   1.0000e-08
  Last MAX-Density change    ...    1.7422e-06  Tolerance :   1.0000e-07
  Last RMS-Density change    ...    2.6852e-08  Tolerance :   5.0000e-09
  Last Orbital Gradient      ...    1.3618e-06  Tolerance :   1.0000e-05
  Last Orbital Rotation      ...    3.0544e-06  Tolerance :   1.0000e-05

             **** THE GBW FILE WAS UPDATED (CONFS/Conf403.orca.gbw) ****
             **** DENSITY CONFS/Conf403.orca.scfp WAS UPDATED ****
             **** ENERGY FILE WAS UPDATED (CONFS/Conf403.orca.en.tmp) ****
             **** THE GBW FILE WAS UPDATED (CONFS/Conf403.orca.gbw) ****
             **** DENSITY CONFS/Conf403.orca.scfp WAS UPDATED ****
----------------
ORBITAL ENERGIES
----------------

  NO   OCC          E(Eh)            E(eV) 
   0   2.0000     -91.888050     -2500.4010 
   1   2.0000     -20.599319      -560.5360 
   2   2.0000     -20.596269      -560.4530 
   3   2.0000     -20.541166      -558.9535 
   4   2.0000     -15.628060      -425.2611 
   5   2.0000     -15.607398      -424.6989 
   6   2.0000     -11.396283      -310.1086 
   7   2.0000     -11.383154      -309.7514 
   8   2.0000     -11.334979      -308.4405 
   9   2.0000     -11.313388      -307.8529 
  10   2.0000     -11.307557      -307.6943 
  11   2.0000     -11.301570      -307.5314 
  12   2.0000     -11.259126      -306.3764 
  13   2.0000     -11.258355      -306.3554 
  14   2.0000     -11.254802      -306.2587 
  15   2.0000     -11.251317      -306.1639 
  16   2.0000     -11.242820      -305.9327 
  17   2.0000     -11.238197      -305.8069 
  18   2.0000     -11.237895      -305.7987 
  19   2.0000     -11.222628      -305.3832 
  20   2.0000      -8.893123      -241.9942 
  21   2.0000      -6.574701      -178.9067 
  22   2.0000      -6.572694      -178.8521 
  23   2.0000      -6.572109      -178.8362 
  24   2.0000      -1.446868       -39.3713 
  25   2.0000      -1.415939       -38.5296 
  26   2.0000      -1.354054       -36.8457 
  27   2.0000      -1.339115       -36.4392 
  28   2.0000      -1.237617       -33.6773 
  29   2.0000      -1.157219       -31.4895 
  30   2.0000      -1.119474       -30.4624 
  31   2.0000      -1.042135       -28.3579 
  32   2.0000      -1.035623       -28.1807 
  33   2.0000      -1.014648       -27.6100 
  34   2.0000      -0.994690       -27.0669 
  35   2.0000      -0.983235       -26.7552 
  36   2.0000      -0.921738       -25.0818 
  37   2.0000      -0.897597       -24.4249 
  38   2.0000      -0.846454       -23.0332 
  39   2.0000      -0.837335       -22.7850 
  40   2.0000      -0.833704       -22.6862 
  41   2.0000      -0.817149       -22.2358 
  42   2.0000      -0.748145       -20.3581 
  43   2.0000      -0.731355       -19.9012 
  44   2.0000      -0.721234       -19.6258 
  45   2.0000      -0.695262       -18.9190 
  46   2.0000      -0.687722       -18.7139 
  47   2.0000      -0.677805       -18.4440 
  48   2.0000      -0.670554       -18.2467 
  49   2.0000      -0.656851       -17.8738 
  50   2.0000      -0.650529       -17.7018 
  51   2.0000      -0.641490       -17.4558 
  52   2.0000      -0.634078       -17.2541 
  53   2.0000      -0.612350       -16.6629 
  54   2.0000      -0.606096       -16.4927 
  55   2.0000      -0.599628       -16.3167 
  56   2.0000      -0.598212       -16.2782 
  57   2.0000      -0.577026       -15.7017 
  58   2.0000      -0.571316       -15.5463 
  59   2.0000      -0.570008       -15.5107 
  60   2.0000      -0.560113       -15.2415 
  61   2.0000      -0.541502       -14.7350 
  62   2.0000      -0.535323       -14.5669 
  63   2.0000      -0.524908       -14.2835 
  64   2.0000      -0.520222       -14.1559 
  65   2.0000      -0.512995       -13.9593 
  66   2.0000      -0.502451       -13.6724 
  67   2.0000      -0.499150       -13.5826 
  68   2.0000      -0.484584       -13.1862 
  69   2.0000      -0.463033       -12.5998 
  70   2.0000      -0.454966       -12.3803 
  71   2.0000      -0.442736       -12.0474 
  72   2.0000      -0.353180        -9.6105 
  73   2.0000      -0.349029        -9.4976 
  74   2.0000      -0.327517        -8.9122 
  75   2.0000      -0.320943        -8.7333 
  76   2.0000      -0.315285        -8.5793 
  77   0.0000       0.077095         2.0979 
  78   0.0000       0.106823         2.9068 
  79   0.0000       0.125194         3.4067 
  80   0.0000       0.133072         3.6211 
  81   0.0000       0.137405         3.7390 
  82   0.0000       0.142493         3.8774 
  83   0.0000       0.150984         4.1085 
  84   0.0000       0.160295         4.3619 
  85   0.0000       0.165906         4.5145 
  86   0.0000       0.171083         4.6554 
  87   0.0000       0.173953         4.7335 
  88   0.0000       0.189540         5.1576 
  89   0.0000       0.194309         5.2874 
  90   0.0000       0.200259         5.4493 
  91   0.0000       0.206865         5.6291 
  92   0.0000       0.209730         5.7070 
  93   0.0000       0.217524         5.9191 
  94   0.0000       0.231261         6.2929 
  95   0.0000       0.233718         6.3598 
  96   0.0000       0.246929         6.7193 
  97   0.0000       0.249335         6.7847 
  98   0.0000       0.262317         7.1380 
  99   0.0000       0.272787         7.4229 
 100   0.0000       0.295062         8.0291 
 101   0.0000       0.306578         8.3424 
 102   0.0000       0.317129         8.6295 
 103   0.0000       0.321123         8.7382 
 104   0.0000       0.325644         8.8612 
 105   0.0000       0.338628         9.2145 
 106   0.0000       0.342514         9.3203 
 107   0.0000       0.347628         9.4594 
 108   0.0000       0.359470         9.7817 
 109   0.0000       0.370885        10.0923 
 110   0.0000       0.371471        10.1082 
 111   0.0000       0.380163        10.3448 
 112   0.0000       0.380924        10.3655 
 113   0.0000       0.388638        10.5754 
 114   0.0000       0.403725        10.9859 
 115   0.0000       0.405539        11.0353 
 116   0.0000       0.421492        11.4694 
 117   0.0000       0.429549        11.6886 
 118   0.0000       0.432389        11.7659 
 119   0.0000       0.435984        11.8637 
 120   0.0000       0.443148        12.0587 
 121   0.0000       0.450629        12.2622 
 122   0.0000       0.454653        12.3717 
 123   0.0000       0.456835        12.4311 
 124   0.0000       0.463794        12.6205 
 125   0.0000       0.466623        12.6975 
 126   0.0000       0.473501        12.8846 
 127   0.0000       0.477065        12.9816 
 128   0.0000       0.485595        13.2137 
 129   0.0000       0.492390        13.3986 
 130   0.0000       0.502170        13.6647 
 131   0.0000       0.509935        13.8760 
 132   0.0000       0.511905        13.9296 
 133   0.0000       0.517210        14.0740 
 134   0.0000       0.522451        14.2166 
 135   0.0000       0.527702        14.3595 
 136   0.0000       0.534529        14.5453 
 137   0.0000       0.539885        14.6910 
 138   0.0000       0.542732        14.7685 
 139   0.0000       0.547351        14.8942 
 140   0.0000       0.556925        15.1547 
 141   0.0000       0.562698        15.3118 
 142   0.0000       0.564003        15.3473 
 143   0.0000       0.567744        15.4491 
 144   0.0000       0.572398        15.5757 
 145   0.0000       0.581694        15.8287 
 146   0.0000       0.589419        16.0389 
 147   0.0000       0.591610        16.0985 
 148   0.0000       0.594374        16.1737 
 149   0.0000       0.603195        16.4138 
 150   0.0000       0.604651        16.4534 
 151   0.0000       0.611045        16.6274 
 152   0.0000       0.613712        16.7000 
 153   0.0000       0.615043        16.7362 
 154   0.0000       0.619921        16.8689 
 155   0.0000       0.622908        16.9502 
 156   0.0000       0.629439        17.1279 
 157   0.0000       0.631553        17.1854 
 158   0.0000       0.633497        17.2383 
 159   0.0000       0.636706        17.3257 
 160   0.0000       0.642858        17.4931 
 161   0.0000       0.648718        17.6525 
 162   0.0000       0.658466        17.9178 
 163   0.0000       0.666270        18.1301 
 164   0.0000       0.668932        18.2026 
 165   0.0000       0.671144        18.2628 
 166   0.0000       0.674969        18.3668 
 167   0.0000       0.683237        18.5918 
 168   0.0000       0.686896        18.6914 
 169   0.0000       0.689667        18.7668 
 170   0.0000       0.695546        18.9268 
 171   0.0000       0.706426        19.2228 
 172   0.0000       0.714518        19.4430 
 173   0.0000       0.722085        19.6489 
 174   0.0000       0.726416        19.7668 
 175   0.0000       0.728987        19.8368 
 176   0.0000       0.739017        20.1097 
 177   0.0000       0.746061        20.3014 
 178   0.0000       0.748444        20.3662 
 179   0.0000       0.753438        20.5021 
 180   0.0000       0.761753        20.7284 
 181   0.0000       0.770709        20.9720 
 182   0.0000       0.779204        21.2032 
 183   0.0000       0.784037        21.3347 
 184   0.0000       0.788937        21.4681 
 185   0.0000       0.805346        21.9146 
 186   0.0000       0.819469        22.2989 
 187   0.0000       0.825757        22.4700 
 188   0.0000       0.828840        22.5539 
 189   0.0000       0.836075        22.7508 
 190   0.0000       0.840848        22.8806 
 191   0.0000       0.846586        23.0368 
 192   0.0000       0.857175        23.3249 
 193   0.0000       0.862606        23.4727 
 194   0.0000       0.870339        23.6831 
 195   0.0000       0.871806        23.7230 
 196   0.0000       0.885959        24.1082 
 197   0.0000       0.892908        24.2973 
 198   0.0000       0.895674        24.3725 
 199   0.0000       0.905964        24.6525 
 200   0.0000       0.910773        24.7834 
 201   0.0000       0.923488        25.1294 
 202   0.0000       0.925854        25.1938 
 203   0.0000       0.930316        25.3152 
 204   0.0000       0.942741        25.6533 
 205   0.0000       0.956048        26.0154 
 206   0.0000       0.957128        26.0448 
 207   0.0000       0.959476        26.1087 
 208   0.0000       0.967965        26.3397 
 209   0.0000       0.982270        26.7289 
 210   0.0000       0.983055        26.7503 
 211   0.0000       0.987956        26.8837 
 212   0.0000       0.998395        27.1677 
 213   0.0000       1.002277        27.2733 
 214   0.0000       1.014747        27.6127 
 215   0.0000       1.017326        27.6829 
 216   0.0000       1.026613        27.9356 
 217   0.0000       1.033793        28.1309 
 218   0.0000       1.039408        28.2837 
 219   0.0000       1.044600        28.4250 
 220   0.0000       1.055732        28.7279 
 221   0.0000       1.060975        28.8706 
 222   0.0000       1.062301        28.9067 
 223   0.0000       1.075147        29.2562 
 224   0.0000       1.083562        29.4852 
 225   0.0000       1.084038        29.4982 
 226   0.0000       1.091162        29.6920 
 227   0.0000       1.102471        29.9998 
 228   0.0000       1.120799        30.4985 
 229   0.0000       1.129086        30.7240 
 230   0.0000       1.138236        30.9730 
 231   0.0000       1.141190        31.0534 
 232   0.0000       1.146367        31.1942 
 233   0.0000       1.151004        31.3204 
 234   0.0000       1.161204        31.5980 
 235   0.0000       1.163709        31.6661 
 236   0.0000       1.166849        31.7516 
 237   0.0000       1.174500        31.9598 
 238   0.0000       1.182809        32.1859 
 239   0.0000       1.185462        32.2581 
 240   0.0000       1.189946        32.3801 
 241   0.0000       1.200720        32.6733 
 242   0.0000       1.202126        32.7115 
 243   0.0000       1.212666        32.9983 
 244   0.0000       1.219284        33.1784 
 245   0.0000       1.221781        33.2463 
 246   0.0000       1.230606        33.4865 
 247   0.0000       1.231235        33.5036 
 248   0.0000       1.248588        33.9758 
 249   0.0000       1.252081        34.0709 
 250   0.0000       1.258809        34.2539 
 251   0.0000       1.265353        34.4320 
 252   0.0000       1.268149        34.5081 
 253   0.0000       1.284677        34.9578 
 254   0.0000       1.287228        35.0272 
 255   0.0000       1.297148        35.2972 
 256   0.0000       1.300908        35.3995 
 257   0.0000       1.319344        35.9012 
 258   0.0000       1.330497        36.2047 
 259   0.0000       1.333918        36.2978 
 260   0.0000       1.336332        36.3634 
 261   0.0000       1.347147        36.6577 
 262   0.0000       1.354554        36.8593 
 263   0.0000       1.366624        37.1877 
 264   0.0000       1.377857        37.4934 
 265   0.0000       1.382012        37.6065 
 266   0.0000       1.390798        37.8455 
 267   0.0000       1.401052        38.1246 
 268   0.0000       1.409649        38.3585 
 269   0.0000       1.419323        38.6217 
 270   0.0000       1.423692        38.7406 
 271   0.0000       1.432903        38.9913 
 272   0.0000       1.435204        39.0539 
 273   0.0000       1.442680        39.2573 
 274   0.0000       1.448226        39.4082 
 275   0.0000       1.462536        39.7976 
 276   0.0000       1.473620        40.0992 
 277   0.0000       1.475595        40.1530 
 278   0.0000       1.479412        40.2568 
 279   0.0000       1.488036        40.4915 
 280   0.0000       1.496927        40.7335 
 281   0.0000       1.502539        40.8862 
 282   0.0000       1.505628        40.9702 
 283   0.0000       1.515636        41.2425 
 284   0.0000       1.522546        41.4306 
 285   0.0000       1.525545        41.5122 
 286   0.0000       1.530544        41.6482 
 287   0.0000       1.536246        41.8034 
 288   0.0000       1.549521        42.1646 
 289   0.0000       1.551714        42.2243 
 290   0.0000       1.559308        42.4309 
 291   0.0000       1.561643        42.4945 
 292   0.0000       1.571632        42.7663 
 293   0.0000       1.576071        42.8871 
 294   0.0000       1.581630        43.0383 
 295   0.0000       1.587356        43.1941 
 296   0.0000       1.601340        43.5747 
 297   0.0000       1.608826        43.7784 
 298   0.0000       1.613532        43.9064 
 299   0.0000       1.625844        44.2415 
 300   0.0000       1.638451        44.5845 
 301   0.0000       1.641583        44.6697 
 302   0.0000       1.654917        45.0326 
 303   0.0000       1.659533        45.1582 
 304   0.0000       1.673449        45.5369 
 305   0.0000       1.673721        45.5443 
 306   0.0000       1.680157        45.7194 
 307   0.0000       1.690465        45.9999 
 308   0.0000       1.700725        46.2791 
 309   0.0000       1.703566        46.3564 
 310   0.0000       1.710119        46.5347 
 311   0.0000       1.731317        47.1115 
 312   0.0000       1.738659        47.3113 
 313   0.0000       1.739388        47.3311 
 314   0.0000       1.747632        47.5555 
 315   0.0000       1.768190        48.1149 
 316   0.0000       1.772497        48.2321 
 317   0.0000       1.778937        48.4073 
 318   0.0000       1.784719        48.5647 
 319   0.0000       1.797019        48.8994 
 320   0.0000       1.809696        49.2443 
 321   0.0000       1.815696        49.4076 
 322   0.0000       1.836646        49.9777 
 323   0.0000       1.841400        50.1070 
 324   0.0000       1.847567        50.2749 
 325   0.0000       1.862100        50.6703 
 326   0.0000       1.877746        51.0961 
 327   0.0000       1.887462        51.3604 
 328   0.0000       1.893471        51.5240 
 329   0.0000       1.908072        51.9213 
 330   0.0000       1.910525        51.9880 
 331   0.0000       1.928586        52.4795 
 332   0.0000       1.933324        52.6084 
 333   0.0000       1.939982        52.7896 
 334   0.0000       1.954120        53.1743 
 335   0.0000       1.963116        53.4191 
 336   0.0000       1.982522        53.9472 
 337   0.0000       1.992773        54.2261 
 338   0.0000       2.009041        54.6688 
 339   0.0000       2.023501        55.0623 
 340   0.0000       2.026970        55.1567 
 341   0.0000       2.037658        55.4475 
 342   0.0000       2.042385        55.5761 
 343   0.0000       2.068652        56.2909 
 344   0.0000       2.095406        57.0189 
 345   0.0000       2.114825        57.5473 
 346   0.0000       2.122977        57.7691 
 347   0.0000       2.133606        58.0584 
 348   0.0000       2.149944        58.5029 
 349   0.0000       2.153978        58.6127 
 350   0.0000       2.162070        58.8329 
 351   0.0000       2.194717        59.7213 
 352   0.0000       2.213049        60.2201 
 353   0.0000       2.218376        60.3651 
 354   0.0000       2.235663        60.8355 
 355   0.0000       2.265463        61.6464 
 356   0.0000       2.283981        62.1503 
 357   0.0000       2.287516        62.2465 
 358   0.0000       2.295866        62.4737 
 359   0.0000       2.304474        62.7079 
 360   0.0000       2.310921        62.8834 
 361   0.0000       2.335202        63.5441 
 362   0.0000       2.346528        63.8523 
 363   0.0000       2.351437        63.9858 
 364   0.0000       2.362633        64.2905 
 365   0.0000       2.380496        64.7766 
 366   0.0000       2.393728        65.1367 
 367   0.0000       2.404593        65.4323 
 368   0.0000       2.414085        65.6906 
 369   0.0000       2.433693        66.2242 
 370   0.0000       2.439082        66.3708 
 371   0.0000       2.461651        66.9849 
 372   0.0000       2.468451        67.1700 
 373   0.0000       2.476817        67.3976 
 374   0.0000       2.483525        67.5802 
 375   0.0000       2.492927        67.8360 
 376   0.0000       2.511592        68.3439 
 377   0.0000       2.524340        68.6908 
 378   0.0000       2.529310        68.8260 
 379   0.0000       2.557079        69.5817 
 380   0.0000       2.565115        69.8003 
 381   0.0000       2.575515        70.0833 
 382   0.0000       2.586969        70.3950 
 383   0.0000       2.603228        70.8374 
 384   0.0000       2.616980        71.2116 
 385   0.0000       2.626156        71.4613 
 386   0.0000       2.638778        71.8048 
 387   0.0000       2.640953        71.8640 
 388   0.0000       2.661405        72.4205 
 389   0.0000       2.668652        72.6177 
 390   0.0000       2.688826        73.1667 
 391   0.0000       2.693545        73.2951 
 392   0.0000       2.709495        73.7291 
 393   0.0000       2.720792        74.0365 
 394   0.0000       2.729637        74.2772 
 395   0.0000       2.732638        74.3589 
 396   0.0000       2.740835        74.5819 
 397   0.0000       2.752160        74.8901 
 398   0.0000       2.762427        75.1695 
 399   0.0000       2.773075        75.4592 
 400   0.0000       2.778678        75.6117 
 401   0.0000       2.790573        75.9354 
 402   0.0000       2.799038        76.1657 
 403   0.0000       2.812605        76.5349 
 404   0.0000       2.824140        76.8488 
 405   0.0000       2.832056        77.0642 
 406   0.0000       2.840802        77.3022 
 407   0.0000       2.850964        77.5787 
 408   0.0000       2.857746        77.7632 
 409   0.0000       2.862185        77.8840 
 410   0.0000       2.878422        78.3258 
 411   0.0000       2.883126        78.4539 
 412   0.0000       2.895403        78.7879 
 413   0.0000       2.899053        78.8872 
 414   0.0000       2.905179        79.0539 
 415   0.0000       2.915676        79.3396 
 416   0.0000       2.934178        79.8430 
 417   0.0000       2.945955        80.1635 
 418   0.0000       2.948340        80.2284 
 419   0.0000       2.954585        80.3983 
 420   0.0000       2.964539        80.6692 
 421   0.0000       2.978443        81.0476 
 422   0.0000       2.980265        81.0971 
 423   0.0000       2.997727        81.5723 
 424   0.0000       3.003693        81.7346 
 425   0.0000       3.011354        81.9431 
 426   0.0000       3.013528        82.0023 
 427   0.0000       3.024217        82.2931 
 428   0.0000       3.030092        82.4530 
 429   0.0000       3.036593        82.6299 
 430   0.0000       3.053863        83.0998 
 431   0.0000       3.055125        83.1342 
 432   0.0000       3.060175        83.2716 
 433   0.0000       3.067297        83.4654 
 434   0.0000       3.079362        83.7937 
 435   0.0000       3.087735        84.0216 
 436   0.0000       3.089470        84.0688 
 437   0.0000       3.091973        84.1369 
 438   0.0000       3.104083        84.4664 
 439   0.0000       3.113047        84.7103 
 440   0.0000       3.118374        84.8553 
 441   0.0000       3.119847        84.8954 
 442   0.0000       3.128282        85.1249 
 443   0.0000       3.136828        85.3574 
 444   0.0000       3.139060        85.4182 
 445   0.0000       3.147925        85.6594 
 446   0.0000       3.154895        85.8491 
 447   0.0000       3.167824        86.2009 
 448   0.0000       3.170791        86.2816 
 449   0.0000       3.188179        86.7548 
 450   0.0000       3.190811        86.8264 
 451   0.0000       3.195133        86.9440 
 452   0.0000       3.212308        87.4113 
 453   0.0000       3.217970        87.5654 
 454   0.0000       3.231064        87.9217 
 455   0.0000       3.235974        88.0553 
 456   0.0000       3.241959        88.2182 
 457   0.0000       3.247970        88.3818 
 458   0.0000       3.250838        88.4598 
 459   0.0000       3.258041        88.6558 
 460   0.0000       3.269764        88.9748 
 461   0.0000       3.271812        89.0305 
 462   0.0000       3.286693        89.4355 
 463   0.0000       3.292079        89.5820 
 464   0.0000       3.296752        89.7092 
 465   0.0000       3.306572        89.9764 
 466   0.0000       3.309245        90.0491 
 467   0.0000       3.317012        90.2605 
 468   0.0000       3.321311        90.3775 
 469   0.0000       3.328885        90.5836 
 470   0.0000       3.335369        90.7600 
 471   0.0000       3.341829        90.9358 
 472   0.0000       3.348745        91.1240 
 473   0.0000       3.353150        91.2438 
 474   0.0000       3.361377        91.4677 
 475   0.0000       3.366646        91.6111 
 476   0.0000       3.371070        91.7315 
 477   0.0000       3.377551        91.9078 
 478   0.0000       3.381326        92.0106 
 479   0.0000       3.394016        92.3559 
 480   0.0000       3.395538        92.3973 
 481   0.0000       3.403388        92.6109 
 482   0.0000       3.404318        92.6362 
 483   0.0000       3.409150        92.7677 
 484   0.0000       3.415970        92.9533 
 485   0.0000       3.421414        93.1014 
 486   0.0000       3.426817        93.2484 
 487   0.0000       3.431770        93.3832 
 488   0.0000       3.438499        93.5663 
 489   0.0000       3.442886        93.6857 
 490   0.0000       3.445137        93.7469 
 491   0.0000       3.448853        93.8481 
 492   0.0000       3.450186        93.8843 
 493   0.0000       3.455479        94.0284 
 494   0.0000       3.463034        94.2339 
 495   0.0000       3.471385        94.4612 
 496   0.0000       3.478081        94.6434 
 497   0.0000       3.488485        94.9265 
 498   0.0000       3.489352        94.9501 
 499   0.0000       3.490804        94.9896 
 500   0.0000       3.501239        95.2736 
 501   0.0000       3.512140        95.5702 
 502   0.0000       3.529184        96.0340 
 503   0.0000       3.540017        96.3287 
 504   0.0000       3.542982        96.4094 
 505   0.0000       3.547479        96.5318 
 506   0.0000       3.554702        96.7283 
 507   0.0000       3.564576        96.9971 
 508   0.0000       3.573999        97.2535 
 509   0.0000       3.582882        97.4952 
 510   0.0000       3.586241        97.5866 
 511   0.0000       3.593837        97.7933 
 512   0.0000       3.603669        98.0608 
 513   0.0000       3.611973        98.2868 
 514   0.0000       3.622771        98.5806 
 515   0.0000       3.625156        98.6455 
 516   0.0000       3.631437        98.8164 
 517   0.0000       3.634174        98.8909 
 518   0.0000       3.639054        99.0237 
 519   0.0000       3.648548        99.2820 
 520   0.0000       3.650195        99.3269 
 521   0.0000       3.656313        99.4933 
 522   0.0000       3.663018        99.6758 
 523   0.0000       3.666270        99.7643 
 524   0.0000       3.671066        99.8948 
 525   0.0000       3.680442       100.1499 
 526   0.0000       3.686153       100.3053 
 527   0.0000       3.692145       100.4684 
 528   0.0000       3.703150       100.7678 
 529   0.0000       3.708336       100.9089 
 530   0.0000       3.713167       101.0404 
 531   0.0000       3.718570       101.1874 
 532   0.0000       3.721678       101.2720 
 533   0.0000       3.731233       101.5320 
 534   0.0000       3.736432       101.6735 
 535   0.0000       3.746135       101.9375 
 536   0.0000       3.751643       102.0874 
 537   0.0000       3.761080       102.3442 
 538   0.0000       3.768550       102.5475 
 539   0.0000       3.774352       102.7053 
 540   0.0000       3.778917       102.8296 
 541   0.0000       3.784735       102.9879 
 542   0.0000       3.785063       102.9968 
 543   0.0000       3.802350       103.4672 
 544   0.0000       3.807785       103.6151 
 545   0.0000       3.810812       103.6975 
 546   0.0000       3.822846       104.0249 
 547   0.0000       3.830202       104.2251 
 548   0.0000       3.837415       104.4214 
 549   0.0000       3.845483       104.6409 
 550   0.0000       3.852056       104.8198 
 551   0.0000       3.859425       105.0203 
 552   0.0000       3.870459       105.3205 
 553   0.0000       3.885378       105.7265 
 554   0.0000       3.892240       105.9132 
 555   0.0000       3.905979       106.2871 
 556   0.0000       3.912749       106.4713 
 557   0.0000       3.917940       106.6126 
 558   0.0000       3.918250       106.6210 
 559   0.0000       3.931265       106.9752 
 560   0.0000       3.943040       107.2956 
 561   0.0000       3.948975       107.4571 
 562   0.0000       3.954155       107.5980 
 563   0.0000       3.961016       107.7847 
 564   0.0000       3.975115       108.1684 
 565   0.0000       3.983105       108.3858 
 566   0.0000       3.990946       108.5992 
 567   0.0000       3.994876       108.7061 
 568   0.0000       4.008056       109.0648 
 569   0.0000       4.017612       109.3248 
 570   0.0000       4.025656       109.5437 
 571   0.0000       4.034838       109.7935 
 572   0.0000       4.042698       110.0074 
 573   0.0000       4.044623       110.0598 
 574   0.0000       4.054401       110.3259 
 575   0.0000       4.071745       110.7978 
 576   0.0000       4.074975       110.8857 
 577   0.0000       4.081045       111.0509 
 578   0.0000       4.095966       111.4569 
 579   0.0000       4.108726       111.8041 
 580   0.0000       4.113594       111.9366 
 581   0.0000       4.116331       112.0111 
 582   0.0000       4.134876       112.5157 
 583   0.0000       4.140717       112.6746 
 584   0.0000       4.148043       112.8740 
 585   0.0000       4.151022       112.9550 
 586   0.0000       4.155044       113.0645 
 587   0.0000       4.165031       113.3362 
 588   0.0000       4.168715       113.4365 
 589   0.0000       4.177304       113.6702 
 590   0.0000       4.183398       113.8360 
 591   0.0000       4.189911       114.0133 
 592   0.0000       4.195665       114.1699 
 593   0.0000       4.201263       114.3222 
 594   0.0000       4.205641       114.4413 
 595   0.0000       4.214494       114.6822 
 596   0.0000       4.218001       114.7776 
 597   0.0000       4.224732       114.9608 
 598   0.0000       4.233637       115.2031 
 599   0.0000       4.237414       115.3059 
 600   0.0000       4.245033       115.5132 
 601   0.0000       4.255021       115.7850 
 602   0.0000       4.255228       115.7907 
 603   0.0000       4.269169       116.1700 
 604   0.0000       4.289235       116.7160 
 605   0.0000       4.296708       116.9194 
 606   0.0000       4.306379       117.1825 
 607   0.0000       4.316047       117.4456 
 608   0.0000       4.327029       117.7444 
 609   0.0000       4.333908       117.9316 
 610   0.0000       4.337935       118.0412 
 611   0.0000       4.343543       118.1938 
 612   0.0000       4.353663       118.4692 
 613   0.0000       4.361255       118.6758 
 614   0.0000       4.365642       118.7951 
 615   0.0000       4.371862       118.9644 
 616   0.0000       4.382993       119.2673 
 617   0.0000       4.389547       119.4457 
 618   0.0000       4.394774       119.5879 
 619   0.0000       4.404022       119.8395 
 620   0.0000       4.417165       120.1972 
 621   0.0000       4.419077       120.2492 
 622   0.0000       4.423150       120.3600 
 623   0.0000       4.434784       120.6766 
 624   0.0000       4.442586       120.8889 
 625   0.0000       4.449245       121.0701 
 626   0.0000       4.457299       121.2893 
 627   0.0000       4.468887       121.6046 
 628   0.0000       4.472094       121.6919 
 629   0.0000       4.477074       121.8274 
 630   0.0000       4.499694       122.4429 
 631   0.0000       4.508731       122.6888 
 632   0.0000       4.518231       122.9473 
 633   0.0000       4.526656       123.1766 
 634   0.0000       4.533488       123.3625 
 635   0.0000       4.542935       123.6196 
 636   0.0000       4.550714       123.8312 
 637   0.0000       4.553890       123.9176 
 638   0.0000       4.562052       124.1398 
 639   0.0000       4.575285       124.4998 
 640   0.0000       4.581518       124.6694 
 641   0.0000       4.589454       124.8854 
 642   0.0000       4.598299       125.1261 
 643   0.0000       4.603946       125.2797 
 644   0.0000       4.615997       125.6077 
 645   0.0000       4.628573       125.9499 
 646   0.0000       4.633421       126.0818 
 647   0.0000       4.637538       126.1938 
 648   0.0000       4.640996       126.2879 
 649   0.0000       4.648953       126.5044 
 650   0.0000       4.651939       126.5857 
 651   0.0000       4.657792       126.7450 
 652   0.0000       4.661597       126.8485 
 653   0.0000       4.676893       127.2647 
 654   0.0000       4.688893       127.5913 
 655   0.0000       4.701124       127.9241 
 656   0.0000       4.708055       128.1127 
 657   0.0000       4.716027       128.3296 
 658   0.0000       4.731197       128.7424 
 659   0.0000       4.742545       129.0512 
 660   0.0000       4.759170       129.5036 
 661   0.0000       4.763986       129.6347 
 662   0.0000       4.770546       129.8131 
 663   0.0000       4.781534       130.1122 
 664   0.0000       4.800745       130.6349 
 665   0.0000       4.821322       131.1948 
 666   0.0000       4.829793       131.4253 
 667   0.0000       4.833758       131.5332 
 668   0.0000       4.863236       132.3354 
 669   0.0000       4.893116       133.1485 
 670   0.0000       4.913092       133.6920 
 671   0.0000       4.919053       133.8542 
 672   0.0000       4.933030       134.2346 
 673   0.0000       4.949740       134.6893 
 674   0.0000       4.964309       135.0857 
 675   0.0000       4.987934       135.7286 
 676   0.0000       5.007566       136.2628 
 677   0.0000       5.020532       136.6156 
 678   0.0000       5.026993       136.7914 
 679   0.0000       5.032605       136.9441 
 680   0.0000       5.054671       137.5446 
 681   0.0000       5.075127       138.1012 
 682   0.0000       5.092919       138.5854 
 683   0.0000       5.096607       138.6857 
 684   0.0000       5.110192       139.0554 
 685   0.0000       5.116222       139.2195 
 686   0.0000       5.125305       139.4666 
 687   0.0000       5.135317       139.7391 
 688   0.0000       5.148203       140.0897 
 689   0.0000       5.149526       140.1257 
 690   0.0000       5.172150       140.7414 
 691   0.0000       5.182882       141.0334 
 692   0.0000       5.190225       141.2332 
 693   0.0000       5.191248       141.2610 
 694   0.0000       5.201351       141.5360 
 695   0.0000       5.209547       141.7590 
 696   0.0000       5.220371       142.0535 
 697   0.0000       5.225984       142.2062 
 698   0.0000       5.232264       142.3771 
 699   0.0000       5.250504       142.8735 
 700   0.0000       5.267208       143.3280 
 701   0.0000       5.277163       143.5989 
 702   0.0000       5.309286       144.4730 
 703   0.0000       5.320113       144.7676 
 704   0.0000       5.320990       144.7915 
 705   0.0000       5.330844       145.0596 
 706   0.0000       5.345637       145.4622 
 707   0.0000       5.364128       145.9653 
 708   0.0000       5.369512       146.1118 
 709   0.0000       5.383856       146.5022 
 710   0.0000       5.398465       146.8997 
 711   0.0000       5.404127       147.0538 
 712   0.0000       5.432544       147.8270 
 713   0.0000       5.443144       148.1155 
 714   0.0000       5.466649       148.7551 
 715   0.0000       5.477132       149.0403 
 716   0.0000       5.492670       149.4632 
 717   0.0000       5.512849       150.0122 
 718   0.0000       5.519389       150.1902 
 719   0.0000       5.528215       150.4304 
 720   0.0000       5.544760       150.8806 
 721   0.0000       5.548699       150.9878 
 722   0.0000       5.554596       151.1482 
 723   0.0000       5.577770       151.7788 
 724   0.0000       5.587847       152.0531 
 725   0.0000       5.603462       152.4780 
 726   0.0000       5.613872       152.7612 
 727   0.0000       5.621424       152.9667 
 728   0.0000       5.623200       153.0151 
 729   0.0000       5.638042       153.4189 
 730   0.0000       5.642589       153.5427 
 731   0.0000       5.667966       154.2332 
 732   0.0000       5.677674       154.4974 
 733   0.0000       5.688216       154.7842 
 734   0.0000       5.702169       155.1639 
 735   0.0000       5.709938       155.3753 
 736   0.0000       5.733604       156.0193 
 737   0.0000       5.735570       156.0728 
 738   0.0000       5.751342       156.5020 
 739   0.0000       5.756783       156.6500 
 740   0.0000       5.760445       156.7497 
 741   0.0000       5.791174       157.5858 
 742   0.0000       5.804661       157.9529 
 743   0.0000       5.818319       158.3245 
 744   0.0000       5.824964       158.5053 
 745   0.0000       5.830822       158.6647 
 746   0.0000       5.846740       159.0979 
 747   0.0000       5.876635       159.9114 
 748   0.0000       5.910269       160.8266 
 749   0.0000       5.933706       161.4643 
 750   0.0000       5.948386       161.8638 
 751   0.0000       5.970383       162.4624 
 752   0.0000       5.975554       162.6031 
 753   0.0000       5.993751       163.0983 
 754   0.0000       6.009986       163.5400 
 755   0.0000       6.020991       163.8395 
 756   0.0000       6.054182       164.7427 
 757   0.0000       6.065828       165.0596 
 758   0.0000       6.082291       165.5076 
 759   0.0000       6.100113       165.9925 
 760   0.0000       6.118601       166.4956 
 761   0.0000       6.173368       167.9859 
 762   0.0000       6.215100       169.1215 
 763   0.0000       6.223183       169.3414 
 764   0.0000       6.226247       169.4248 
 765   0.0000       6.267667       170.5519 
 766   0.0000       6.286063       171.0525 
 767   0.0000       6.306710       171.6143 
 768   0.0000       6.345936       172.6817 
 769   0.0000       6.350619       172.8091 
 770   0.0000       6.371154       173.3679 
 771   0.0000       6.388597       173.8426 
 772   0.0000       6.403926       174.2597 
 773   0.0000       6.447795       175.4534 
 774   0.0000       6.457778       175.7251 
 775   0.0000       6.478003       176.2754 
 776   0.0000       6.506144       177.0412 
 777   0.0000       6.535869       177.8500 
 778   0.0000       6.556997       178.4250 
 779   0.0000       6.603935       179.7022 
 780   0.0000       6.631924       180.4638 
 781   0.0000       6.686376       181.9455 
 782   0.0000       6.739582       183.3934 
 783   0.0000       6.766590       184.1283 
 784   0.0000       6.843938       186.2330 
 785   0.0000       6.907238       187.9555 
 786   0.0000       6.912430       188.0968 
 787   0.0000       6.921030       188.3308 
 788   0.0000       6.929587       188.5636 
 789   0.0000       7.046265       191.7386 
 790   0.0000       7.052860       191.9181 
 791   0.0000       7.074521       192.5075 
 792   0.0000       7.081616       192.7006 
 793   0.0000       7.149205       194.5397 
 794   0.0000       7.187508       195.5820 
 795   0.0000       7.260492       197.5680 
 796   0.0000       7.272397       197.8920 
 797   0.0000       7.282047       198.1546 
 798   0.0000       7.341204       199.7643 
 799   0.0000       7.369734       200.5407 
 800   0.0000       7.443786       202.5557 
 801   0.0000       7.507415       204.2871 
 802   0.0000       7.582889       206.3409 
 803   0.0000       7.597121       206.7282 
 804   0.0000       7.721562       210.1144 
 805   0.0000       7.817023       212.7120 
 806   0.0000       7.847987       213.5546 
 807   0.0000       7.935458       215.9348 
 808   0.0000       8.000195       217.6964 
 809   0.0000       9.355717       254.5820 
 810   0.0000       9.514829       258.9117 
 811   0.0000      10.830282       294.7069 
 812   0.0000      11.400281       310.2174 
 813   0.0000      11.858583       322.6884 
 814   0.0000      12.569369       342.0299 
 815   0.0000      12.823795       348.9532 
 816   0.0000      12.911032       351.3270 
 817   0.0000      13.068131       355.6019 
 818   0.0000      13.160043       358.1030 
 819   0.0000      13.380009       364.0886 
 820   0.0000      13.533736       368.2717 
 821   0.0000      13.683617       372.3501 
 822   0.0000      13.918803       378.7499 
 823   0.0000      13.955715       379.7543 
 824   0.0000      14.069534       382.8515 
 825   0.0000      14.603151       397.3719 
 826   0.0000      14.877616       404.8405 
 827   0.0000      15.969908       434.5633 

                    ********************************
                    * MULLIKEN POPULATION ANALYSIS *
                    ********************************

-----------------------
MULLIKEN ATOMIC CHARGES
-----------------------
   0 C :   -0.310650
   1 C :    0.040714
   2 O :   -0.357464
   3 C :    0.470660
   4 O :   -0.435511
   5 C :   -0.217713
   6 C :    0.149309
   7 C :   -0.273721
   8 N :   -0.119356
   9 C :    0.211397
  10 S :   -0.441457
  11 N :   -0.205014
  12 C :    0.058401
  13 C :    0.061685
  14 C :   -0.185095
  15 C :   -0.130619
  16 C :   -0.278878
  17 C :    0.316720
  18 O :   -0.356538
  19 C :   -0.271213
  20 H :    0.101846
  21 H :    0.094949
  22 H :    0.127594
  23 H :    0.104786
  24 H :    0.100863
  25 H :    0.131594
  26 H :    0.094844
  27 H :    0.130536
  28 H :    0.196805
  29 H :    0.194843
  30 H :    0.150372
  31 H :    0.150051
  32 H :    0.159699
  33 H :    0.129777
  34 H :    0.240616
  35 H :    0.165166
Sum of atomic charges:    0.0000000

--------------------------------
MULLIKEN REDUCED ORBITAL CHARGES
--------------------------------
  0 C s       :     3.265039  s :     3.265039
      pz      :     1.027926  p :     2.968965
      px      :     0.910669
      py      :     1.030370
      dz2     :     0.016714  d :     0.072276
      dxz     :     0.013431
      dyz     :     0.011107
      dx2y2   :     0.017328
      dxy     :     0.013696
      f0      :     0.000852  f :     0.004370
      f+1     :     0.000713
      f-1     :     0.000475
      f+2     :     0.000474
      f-2     :     0.000058
      f+3     :     0.001397
      f-3     :     0.000401
  1 C s       :     3.165448  s :     3.165448
      pz      :     0.937362  p :     2.633435
      px      :     0.873793
      py      :     0.822279
      dz2     :     0.034391  d :     0.149053
      dxz     :     0.022956
      dyz     :     0.024026
      dx2y2   :     0.030823
      dxy     :     0.036858
      f0      :     0.001563  f :     0.011350
      f+1     :     0.001250
      f-1     :     0.001619
      f+2     :     0.001577
      f-2     :     0.001377
      f+3     :     0.002046
      f-3     :     0.001917
  2 O s       :     3.716089  s :     3.716089
      pz      :     1.733174  p :     4.606425
      px      :     1.674737
      py      :     1.198513
      dz2     :     0.004180  d :     0.032685
      dxz     :     0.003389
      dyz     :     0.007134
      dx2y2   :     0.007149
      dxy     :     0.010833
      f0      :     0.000264  f :     0.002265
      f+1     :     0.000093
      f-1     :     0.000421
      f+2     :     0.000237
      f-2     :     0.000294
[...]
 15 C s       :     2.705810  s :     2.705810
      pz      :     0.913178  p :     2.797358
      px      :     0.915007
      py      :     0.969173
      dz2     :     0.101523  d :     0.416916
      dxz     :     0.068359
      dyz     :     0.066154
      dx2y2   :     0.112219
      dxy     :     0.068661
      f0      :     0.003652  f :     0.041044
      f+1     :     0.005364
      f-1     :     0.006698
      f+2     :     0.007417
      f-2     :     0.006244
      f+3     :     0.005895
      f-3     :     0.005773
 16 C s       :     2.701785  s :     2.701785
      pz      :     0.941633  p :     2.869363
      px      :     0.948658
      py      :     0.979072
      dz2     :     0.049516  d :     0.390232
      dxz     :     0.053788
      dyz     :     0.095589
      dx2y2   :     0.092242
      dxy     :     0.099097
      f0      :     0.004420  f :     0.040271
      f+1     :     0.004220
      f-1     :     0.005039
      f+2     :     0.006681
      f-2     :     0.004719
      f+3     :     0.009138
      f-3     :     0.006054
 17 C s       :     2.701671  s :     2.701671
      pz      :     0.853312  p :     2.680945
      px      :     0.824706
      py      :     1.002927
      dz2     :     0.135094  d :     0.708238
      dxz     :     0.097565
      dyz     :     0.158789
      dx2y2   :     0.151997
      dxy     :     0.164793
      f0      :     0.010713  f :     0.099205
      f+1     :     0.013841
      f-1     :     0.012258
      f+2     :     0.017892
      f-2     :     0.013657
      f+3     :     0.017743
      f-3     :     0.013102
 18 O s       :     3.177180  s :     3.177180
      pz      :     1.407120  p :     4.347125
      px      :     1.432164
      py      :     1.507841
      dz2     :     0.008936  d :     0.075485
      dxz     :     0.016615
      dyz     :     0.020657
      dx2y2   :     0.011417
      dxy     :     0.017861
      f0      :     0.000629  f :     0.005065
      f+1     :     0.000626
      f-1     :     0.000534
      f+2     :     0.000727
      f-2     :     0.001092
      f+3     :     0.000755
      f-3     :     0.000702
 19 C s       :     2.695210  s :     2.695210
      pz      :     0.938228  p :     2.845132
      px      :     0.940130
      py      :     0.966774
      dz2     :     0.082406  d :     0.387746
      dxz     :     0.068373
      dyz     :     0.067629
      dx2y2   :     0.098231
      dxy     :     0.071108
      f0      :     0.003616  f :     0.040791
      f+1     :     0.005765
      f-1     :     0.006174
      f+2     :     0.007362
      f-2     :     0.006816
      f+3     :     0.005690
      f-3     :     0.005367
 20 H s       :     0.847700  s :     0.847700
      pz      :     0.070293  p :     0.151233
      px      :     0.039399
      py      :     0.041541
      dz2     :     0.008885  d :     0.027593
      dxz     :     0.008049
      dyz     :     0.008644
      dx2y2   :     0.001268
      dxy     :     0.000747
 21 H s       :     0.848188  s :     0.848188
      pz      :     0.042653  p :     0.152374
      px      :     0.045030
      py      :     0.064691
      dz2     :     0.003397  d :     0.027543
      dxz     :     0.001724
      dyz     :     0.007301
      dx2y2   :     0.007943
      dxy     :     0.007177
 22 H s       :     0.842519  s :     0.842519
      pz      :     0.051242  p :     0.155544
      px      :     0.043594
      py      :     0.060708
      dz2     :     0.006901  d :     0.027784
      dxz     :     0.003856
      dyz     :     0.005746
      dx2y2   :     0.005965
      dxy     :     0.005317
 23 H s       :     0.854586  s :     0.854586
      pz      :     0.040828  p :     0.143986
      px      :     0.040570
      py      :     0.062588
      dz2     :     0.004588  d :     0.026904
      dxz     :     0.001235
      dyz     :     0.007097
      dx2y2   :     0.006733
      dxy     :     0.007251
 24 H s       :     0.855197  s :     0.855197
      pz      :     0.078071  p :     0.146325
      px      :     0.038943
      py      :     0.029312
      dz2     :     0.010087  d :     0.027061
      dxz     :     0.008448
      dyz     :     0.007555
      dx2y2   :     0.000806
      dxy     :     0.000165
 25 H s       :     0.825233  s :     0.825233
      pz      :     0.072219  p :     0.151052
      px      :     0.040240
      py      :     0.038593
      dz2     :     0.009490  d :     0.027760
      dxz     :     0.008561
      dyz     :     0.008143
      dx2y2   :     0.001172
      dxy     :     0.000395
 26 H s       :     0.845504  s :     0.845504
      pz      :     0.039647  p :     0.150401
      px      :     0.039769
      py      :     0.070986
      dz2     :     0.002943  d :     0.027706
      dxz     :     0.000236
      dyz     :     0.008657
      dx2y2   :     0.007086
      dxy     :     0.008784
 27 H s       :     0.826123  s :     0.826123
      pz      :     0.039269  p :     0.151100
      px      :     0.072558
      py      :     0.039272
      dz2     :     0.002763  d :     0.027748
      dxz     :     0.008752
      dyz     :     0.000343
      dx2y2   :     0.007736
      dxy     :     0.008155
 28 H s       :     0.741988  s :     0.741988
      pz      :     0.066928  p :     0.253911
      px      :     0.065484
      py      :     0.121498
      dz2     :     0.005311  d :     0.061853
      dxz     :     0.000363
      dyz     :     0.020261
      dx2y2   :     0.015940
      dxy     :     0.019979
 29 H s       :     0.748989  s :     0.748989
      pz      :     0.105217  p :     0.254184
      px      :     0.100003
      py      :     0.048964
      dz2     :     0.018034  d :     0.061411
      dxz     :     0.013457
      dyz     :     0.009238
      dx2y2   :     0.010963
      dxy     :     0.009719
 30 H s       :     0.833839  s :     0.833839
      pz      :     0.048505  p :     0.149564
      px      :     0.048141
      py      :     0.052919
      dz2     :     0.004797  d :     0.028524
      dxz     :     0.005720
      dyz     :     0.005811
      dx2y2   :     0.005407
      dxy     :     0.006789
 31 H s       :     0.845596  s :     0.845596
      pz      :     0.054704  p :     0.157025
      px      :     0.060863
      py      :     0.041458
      dz2     :     0.005609  d :     0.027543
      dxz     :     0.006078
      dyz     :     0.004550
      dx2y2   :     0.005710
      dxy     :     0.005596
 32 H s       :     0.843668  s :     0.843668
      pz      :     0.036761  p :     0.151412
      px      :     0.037334
      py      :     0.077317
      dz2     :     0.002687  d :     0.026469
      dxz     :     0.000287
      dyz     :     0.007845
      dx2y2   :     0.007693
      dxy     :     0.007957
 33 H s       :     0.848685  s :     0.848685
      pz      :     0.059888  p :     0.159133
      px      :     0.052989
      py      :     0.046256
      dz2     :     0.006672  d :     0.027767
      dxz     :     0.005589
      dyz     :     0.005763
      dx2y2   :     0.005055
      dxy     :     0.004689
 34 H s       :     0.706531  s :     0.706531
      pz      :     0.114191  p :     0.347855
      px      :     0.095343
      py      :     0.138321
      dz2     :     0.024175  d :     0.099584
      dxz     :     0.013721
      dyz     :     0.023065
      dx2y2   :     0.019343
      dxy     :     0.019279
 35 H s       :     0.838787  s :     0.838787
      pz      :     0.038613  p :     0.156736
      px      :     0.039403
      py      :     0.078720
      dz2     :     0.002739  d :     0.028021
      dxz     :     0.000302
      dyz     :     0.008554
      dx2y2   :     0.007843
      dxy     :     0.008583


                      *****************************
                      * MAYER POPULATION ANALYSIS *
                      *****************************

  NA   - Mulliken gross atomic population
  ZA   - Total nuclear charge
  QA   - Mulliken gross atomic charge
  VA   - Mayer's total valence
  BVA  - Mayer's bonded valence
  FA   - Mayer's free valence

  ATOM       NA         ZA         QA         VA         BVA        FA
  0 C      6.3107     6.0000    -0.3107     3.8659     3.8659    -0.0000
  1 C      5.9593     6.0000     0.0407     3.8658     3.8658     0.0000
  2 O      8.3575     8.0000    -0.3575     2.0603     2.0603    -0.0000
  3 C      5.5293     6.0000     0.4707     4.2195     4.2195     0.0000
  4 O      8.4355     8.0000    -0.4355     2.0753     2.0753    -0.0000
  5 C      6.2177     6.0000    -0.2177     3.6314     3.6314     0.0000
  6 C      5.8507     6.0000     0.1493     3.8849     3.8849     0.0000
  7 C      6.2737     6.0000    -0.2737     3.9045     3.9045    -0.0000
  8 N      7.1194     7.0000    -0.1194     3.3085     3.3085     0.0000
  9 C      5.7886     6.0000     0.2114     4.1525     4.1525    -0.0000
 10 S     16.4415    16.0000    -0.4415     1.7533     1.7533    -0.0000
 11 N      7.2050     7.0000    -0.2050     3.2546     3.2546    -0.0000
 12 C      5.9416     6.0000     0.0584     3.9418     3.9418     0.0000
 13 C      5.9383     6.0000     0.0617     3.7120     3.7120    -0.0000
 14 C      6.1851     6.0000    -0.1851     3.8520     3.8520     0.0000
 15 C      6.1306     6.0000    -0.1306     3.8026     3.8026    -0.0000
 16 C      6.2789     6.0000    -0.2789     3.7975     3.7975    -0.0000
 17 C      5.6833     6.0000     0.3167     3.8723     3.8723    -0.0000
 18 O      8.3565     8.0000    -0.3565     2.1190     2.1190    -0.0000
 19 C      6.2712     6.0000    -0.2712     3.8630     3.8630    -0.0000
 20 H      0.8982     1.0000     0.1018     0.9810     0.9810    -0.0000
 21 H      0.9051     1.0000     0.0949     0.9824     0.9824     0.0000
 22 H      0.8724     1.0000     0.1276     0.9856     0.9856    -0.0000
 23 H      0.8952     1.0000     0.1048     0.9778     0.9778     0.0000
 24 H      0.8991     1.0000     0.1009     0.9783     0.9783    -0.0000
 25 H      0.8684     1.0000     0.1316     0.9804     0.9804     0.0000
 26 H      0.9052     1.0000     0.0948     0.9858     0.9858    -0.0000
 27 H      0.8695     1.0000     0.1305     0.9817     0.9817    -0.0000
 28 H      0.8032     1.0000     0.1968     1.0233     1.0233     0.0000
 29 H      0.8052     1.0000     0.1948     1.0189     1.0189    -0.0000
 30 H      0.8496     1.0000     0.1504     0.9944     0.9944    -0.0000
 31 H      0.8499     1.0000     0.1501     0.9854     0.9854     0.0000
 32 H      0.8403     1.0000     0.1597     0.9772     0.9772     0.0000
 33 H      0.8702     1.0000     0.1298     0.9921     0.9921    -0.0000
 34 H      0.7594     1.0000     0.2406     1.0107     1.0107    -0.0000
 35 H      0.8348     1.0000     0.1652     0.9876     0.9876    -0.0000

  Mayer bond orders larger than 0.100000
B(  0-C ,  1-C ) :   0.9619 B(  0-C , 20-H ) :   0.9751 B(  0-C , 21-H ) :   0.9772 
B(  0-C , 22-H ) :   0.9719 B(  1-C ,  2-O ) :   0.9029 B(  1-C , 23-H ) :   0.9838 
B(  1-C , 24-H ) :   0.9830 B(  2-O ,  3-C ) :   1.1633 B(  3-C ,  4-O ) :   1.9633 
B(  3-C ,  5-C ) :   1.0557 B(  5-C ,  6-C ) :   1.6547 B(  5-C , 12-C ) :   0.9710 
B(  6-C ,  7-C ) :   0.9675 B(  6-C ,  8-N ) :   1.1642 B(  7-C , 25-H ) :   0.9600 
B(  7-C , 26-H ) :   0.9904 B(  7-C , 27-H ) :   0.9611 B(  8-N ,  9-C ) :   1.1840 
B(  8-N , 28-H ) :   0.9479 B(  9-C , 10-S ) :   1.6060 B(  9-C , 11-N ) :   1.3056 
B( 11-N , 12-C ) :   0.9891 B( 11-N , 29-H ) :   0.9514 B( 12-C , 13-C ) :   0.9347 
B( 12-C , 30-H ) :   1.0029 B( 13-C , 14-C ) :   1.3554 B( 13-C , 19-C ) :   1.3814 
B( 14-C , 15-C ) :   1.3918 B( 14-C , 31-H ) :   0.9712 B( 15-C , 16-C ) :   1.3637 
B( 15-C , 32-H ) :   0.9708 B( 16-C , 17-C ) :   1.3317 B( 16-C , 33-H ) :   0.9851 
B( 17-C , 18-O ) :   1.1099 B( 17-C , 19-C ) :   1.3713 B( 18-O , 34-H ) :   0.9799 
B( 19-C , 35-H ) :   0.9585 

-------
TIMINGS
-------

Total SCF time: 0 days 1 hours 54 min 54 sec 

Total time                  ....    6894.262 sec
Sum of individual times     ....    6883.782 sec  ( 99.8%)

Fock matrix formation       ....    6852.885 sec  ( 99.4%)
Diagonalization             ....       1.770 sec  (  0.0%)
Density matrix formation    ....       0.212 sec  (  0.0%)
Population analysis         ....       0.292 sec  (  0.0%)
Initial guess               ....       6.262 sec  (  0.1%)
Orbital Transformation      ....       0.000 sec  (  0.0%)
Orbital Orthonormalization  ....       0.000 sec  (  0.0%)
DIIS solution               ....      15.866 sec  (  0.2%)
SOSCF solution              ....       4.964 sec  (  0.1%)

Maximum memory used throughout the entire SCF-calculation: 733.9 MB

------------------------------------------------------------------------------
                                ORCA  MP2 
------------------------------------------------------------------------------

Freezing NCore=48 chemical core electrons

-------------
RI-MP2 ENERGY
-------------
Dimension of the basis                    ...  828
Memory devoted to MP2                     ...  256 MB   
Data format for buffers                   ... DOUBLE
Compression type for matrix containers    ... UNCOMPRESSED
Overall scaling of the MP2 energy         ...   1.000e+00
Calculating two index integrals           ... done (    0.043 sec)
Cholesky decomposition of V**-1           ... done (    0.568 sec)

-----------------
RI-TRANSFORMATION (AUX index driven)
-----------------

Dimension of the orbital-basis         ... 828
Dimension of the aux-basis             ... 2141
Transformation of internal/external MOs...   24-  76 to   77- 827
Number Format for Storage              ... Double (8 Byte)
Integral mode                          ... Direct

First Phase: integral generation and transformation of MO indices
  Aux angular momentum 0               ... done (    4.912 sec)
  Aux angular momentum 1               ... done (    8.328 sec)
  Aux angular momentum 2               ... done (   10.802 sec)
  Aux angular momentum 3               ... done (    8.603 sec)
  Aux angular momentum 4               ... done (    2.980 sec)
Closing buffer VIA ( 0.63 GB; CompressionRatio= 1.00)
  Phase 1 completed in    36.008 sec
Second Phase: sorting and transformation of aux index

IA-Transformation
Memory available                       ... 157 MB 
Max. # MO pairs treated in a batch     ... 11    
# of internal orbitals                 ... 53
# batches for internal orbitals        ... 5
Closing buffer IAV ( 0.63 GB; CompressionRatio= 1.00)
(ia|v) transformation done in    20.684 sec

  Phase 2 completed in    20.695 sec
RI-Integral transformation completed in    56.708 sec
Opening buffers                              ... done

Starting loop over batches of integrals:

Operator 0  - window                       ... ( 24- 76)x( 77-827)
Operator 0  - Memory available             ...   256 MB
Operator 0  - Memory needed per MO         ...  12.3 MB
Operator 0  - Number of orbitals per batch ... 13
Operator 0  - Number of batches            ... 5

OPERATOR  0   PASS   0:  MOs    24 ...   36
  Reading integrals       ... ok
  Internal MO  26
  Internal MO  29
  Internal MO  32
  Internal MO  35
OPERATOR  0   PASS   1:  MOs    37 ...   49
  Reading integrals       ... ok
  Internal MO  38
  Internal MO  41
  Internal MO  44
  Internal MO  47
OPERATOR  0   PASS   2:  MOs    50 ...   62
  Reading integrals       ... ok
  Internal MO  50
  Internal MO  53
  Internal MO  56
  Internal MO  59
  Internal MO  62
OPERATOR  0   PASS   3:  MOs    63 ...   75
  Reading integrals       ... ok
  Internal MO  65
  Internal MO  68
  Internal MO  71
  Internal MO  74
OPERATOR  0   PASS   4:  MOs    76 ...   76
  Reading integrals       ... ok
Time spent in pair loops =    93.847 sec
Deleting buffer (Ka|jb)[aa] ...done

-----------------------------------------------
 RI-MP2 CORRELATION ENERGY:     -3.531035500 Eh
-----------------------------------------------


-------
TIMINGS
-------

Total time                :  151.261 sec
Integral trafo            :   56.729 sec ( 37.5%)
I/O of integrals          :    1.654 sec (  1.1%)
K(i,j) Operators          :   64.493 sec ( 42.6%)
T(i,j) pair energies      :    8.775 sec (  5.8%)
V-calculation             :    0.043 sec (  0.0%)
V**(-1/2)                 :    0.568 sec (  0.4%)
Gamma(ia|P)               :    0.000 sec (  0.0%)
Gamma-Trafo               :    0.000 sec (  0.0%)
D(virtual)                :    0.000 sec (  0.0%)
D(internal)               :    0.000 sec (  0.0%)
W(virtual)                :    0.000 sec (  0.0%)
W(internal)               :    0.000 sec (  0.0%)
L(virtual)                :    0.000 sec (  0.0%)
L(internal)               :    0.000 sec (  0.0%)
G(D)                      :    0.000 sec (  0.0%)
G(Z)                      :    0.000 sec (  0.0%)
Z-Vector Solution         :    0.000 sec (  0.0%)
3-Index Derivative        :    0.000 sec (  0.0%)
2-Index Derivative        :    0.000 sec (  0.0%)
Separable Gradient        :    0.000 sec (  0.0%)


---------------------------------------
MP2 TOTAL ENERGY:    -1274.344725416 Eh
---------------------------------------

Maximum memory used throughout the entire MP2-calculation: 304.1 MB

-------------------------   --------------------
FINAL SINGLE POINT ENERGY     -1274.344725415611
-------------------------   --------------------


                            ***************************************
                            *     ORCA property calculations      *
                            ***************************************


  WARNING: The energy has been calculated at the MP2 level but the densities
           used in the property calculations are still SCF densities
           MP2 response densities have not been calculated 
           use %mp2 Density relaxed end
           or  %mp2 Density unrelaxed end

                                    ---------------------
                                    Active property flags
                                    ---------------------
   (+) Dipole Moment


------------------------------------------------------------------------------
                       ORCA ELECTRIC PROPERTIES CALCULATION
------------------------------------------------------------------------------

Dipole Moment Calculation                       ... on
Quadrupole Moment Calculation                   ... off
Polarizability Calculation                      ... off
GBWName                                         ... CONFS/Conf403.orca.gbw
Electron density file                           ... CONFS/Conf403.orca.scfp
The origin for moment calculation is the CENTER OF MASS  = (32.914722, 31.504746 35.340386)

-------------
DIPOLE MOMENT
-------------
                                X             Y             Z
Electronic contribution:     10.36767       9.90388       8.40604
Nuclear contribution   :    -11.43491     -11.67160      -8.83148
                        -----------------------------------------
Total Dipole Moment    :     -1.06724      -1.76771      -0.42544
                        -----------------------------------------
Magnitude (a.u.)       :      2.10827
Magnitude (Debye)      :      5.35881



--------------------
Rotational spectrum 
--------------------
 
Rotational constants in cm-1:     0.011727     0.008687     0.006150 
Rotational constants in MHz :   351.579890   260.439847   184.372627 

 Dipole components along the rotational axes: 
x,y,z [a.u.] :     2.105740    -0.025369    -0.100195 
x,y,z [Debye]:     5.352365    -0.064483    -0.254674 

 

Timings for individual modules:

Sum of individual times         ...     7050.740 sec (= 117.512 min)
GTO integral calculation        ...        4.156 sec (=   0.069 min)   0.1 %
SCF iterations                  ...     6894.641 sec (= 114.911 min)  97.8 %
MP2 module                      ...      151.943 sec (=   2.532 min)   2.2 %
                             ****ORCA TERMINATED NORMALLY****
TOTAL RUN TIME: 0 days 1 hours 57 minutes 32 seconds 467 msec
