
                                        *****************
                                        * O   R   C   A *
                                        *****************

                                            #,                                       
                                            ###                                      
                                            ####                                     
                                            #####                                    
                                            ######                                   
                                           ########,                                 
                                     ,,################,,,,,                         
                               ,,#################################,,                 
                          ,,##########################################,,             
                       ,#########################################, ''#####,          
                    ,#############################################,,   '####,        
                  ,##################################################,,,,####,       
                ,###########''''           ''''###############################       
              ,#####''   ,,,,##########,,,,          '''####'''          '####       
            ,##' ,,,,###########################,,,                        '##       
           ' ,,###''''                  '''############,,,                           
         ,,##''                                '''############,,,,        ,,,,,,###''
      ,#''                                            '''#######################'''  
     '                                                          ''''####''''         
             ,#######,   #######,   ,#######,      ##                                
            ,#'     '#,  ##    ##  ,#'     '#,    #''#        ######   ,####,        
            ##       ##  ##   ,#'  ##            #'  '#       #        #'  '#        
            ##       ##  #######   ##           ,######,      #####,   #    #        
            '#,     ,#'  ##    ##  '#,     ,#' ,#      #,         ##   #,  ,#        
             '#######'   ##     ##  '#######'  #'      '#     #####' # '####'        



                  #######################################################
                  #                        -***-                        #
                  #          Department of theory and spectroscopy      #
                  #    Directorship and core code : Frank Neese         #
                  #        Max Planck Institute fuer Kohlenforschung    #
                  #                Kaiser Wilhelm Platz 1               #
                  #                 D-45470 Muelheim/Ruhr               #
                  #                      Germany                        #
                  #                                                     #
                  #                  All rights reserved                #
                  #                        -***-                        #
                  #######################################################


                         Program Version 5.0.0 -  RELEASE  -
                                (SVN: $Rev: 19529$)
                ($Date: 2021-06-28 11:36:33 +0200 (Mo, 28 Jun 2021) $)


 With contributions from (in alphabetic order):
   Daniel Aravena         : Magnetic Suceptibility
   Michael Atanasov       : Ab Initio Ligand Field Theory (pilot matlab implementation)
   Alexander A. Auer      : GIAO ZORA, VPT2 properties, NMR spectrum
   Ute Becker             : Parallelization
   Giovanni Bistoni       : ED, misc. LED, open-shell LED, HFLD
   Martin Brehm           : Molecular dynamics
   Dmytro Bykov           : SCF Hessian
   Vijay G. Chilkuri      : MRCI spin determinant printing, contributions to CSF-ICE
   Dipayan Datta          : RHF DLPNO-CCSD density
   Achintya Kumar Dutta   : EOM-CC, STEOM-CC
   Dmitry Ganyushin       : Spin-Orbit,Spin-Spin,Magnetic field MRCI
   Miquel Garcia          : C-PCM Hessian, Gaussian charge scheme
   Yang Guo               : DLPNO-NEVPT2, F12-NEVPT2, CIM, IAO-localization
   Andreas Hansen         : Spin unrestricted coupled pair/coupled cluster methods
   Benjamin Helmich-Paris : MC-RPA, TRAH-SCF, COSX integrals
   Lee Huntington         : MR-EOM, pCC
   Robert Izsak           : Overlap fitted RIJCOSX, COSX-SCS-MP3, EOM
   Marcus Kettner         : VPT2
   Christian Kollmar      : KDIIS, OOCD, Brueckner-CCSD(T), CCSD density, CASPT2, CASPT2-K
   Simone Kossmann        : Meta GGA functionals, TD-DFT gradient, OOMP2, MP2 Hessian
   Martin Krupicka        : Initial AUTO-CI
   Lucas Lang             : DCDCAS
   Marvin Lechner         : AUTO-CI (C++ implementation), FIC-MRCC
   Dagmar Lenk            : GEPOL surface, SMD
   Dimitrios Liakos       : Extrapolation schemes; Compound Job, initial MDCI parallelization
   Dimitrios Manganas     : Further ROCIS development; embedding schemes
   Dimitrios Pantazis     : SARC Basis sets
   Anastasios Papadopoulos: AUTO-CI, single reference methods and gradients
   Taras Petrenko         : DFT Hessian,TD-DFT gradient, ASA, ECA, R-Raman, ABS, FL, XAS/XES, NRVS
   Peter Pinski           : DLPNO-MP2, DLPNO-MP2 Gradient
   Christoph Reimann      : Effective Core Potentials
   Marius Retegan         : Local ZFS, SOC
   Christoph Riplinger    : Optimizer, TS searches, QM/MM, DLPNO-CCSD(T), (RO)-DLPNO pert. Triples
   Tobias Risthaus        : Range-separated hybrids, TD-DFT gradient, RPA, STAB
   Michael Roemelt        : Original ROCIS implementation
   Masaaki Saitow         : Open-shell DLPNO-CCSD energy and density
   Barbara Sandhoefer     : DKH picture change effects
   Avijit Sen             : IP-ROCIS
   Kantharuban Sivalingam : CASSCF convergence, NEVPT2, FIC-MRCI
   Bernardo de Souza      : ESD, SOC TD-DFT
   Georgi Stoychev        : AutoAux, RI-MP2 NMR
   Willem Van den Heuvel  : Paramagnetic NMR
   Boris Wezisla          : Elementary symmetry handling
   Frank Wennmohs         : Technical directorship


 We gratefully acknowledge several colleagues who have allowed us to
 interface, adapt or use parts of their codes:
   Stefan Grimme, W. Hujo, H. Kruse, P. Pracht,  : VdW corrections, initial TS optimization,
                  C. Bannwarth, S. Ehlert          DFT functionals, gCP, sTDA/sTD-DF
   Ed Valeev, F. Pavosevic, A. Kumar             : LibInt (2-el integral package), F12 methods
   Garnet Chan, S. Sharma, J. Yang, R. Olivares  : DMRG
   Ulf Ekstrom                                   : XCFun DFT Library
   Mihaly Kallay                                 : mrcc  (arbitrary order and MRCC methods)
   Jiri Pittner, Ondrej Demel                    : Mk-CCSD
   Frank Weinhold                                : gennbo (NPA and NBO analysis)
   Christopher J. Cramer and Donald G. Truhlar   : smd solvation model
   Lars Goerigk                                  : TD-DFT with DH, B97 family of functionals
   V. Asgeirsson, H. Jonsson                     : NEB implementation
   FAccTs GmbH                                   : IRC, NEB, NEB-TS, DLPNO-Multilevel, CI-OPT
                                                   MM, QMMM, 2- and 3-layer-ONIOM, Crystal-QMMM,
                                                   LR-CPCM, SF, NACMEs, symmetry and pop. for TD-DFT,
                                                   nearIR, NL-DFT gradient (VV10), updates on ESD,
                                                   ML-optimized integration grids
   S Lehtola, MJT Oliveira, MAL Marques          : LibXC Library
   Liviu Ungur et al                             : ANISO software


 Your calculation uses the libint2 library for the computation of 2-el integrals
 For citations please refer to: http://libint.valeyev.net

 Your ORCA version has been built with support for libXC version: 5.1.0
 For citations please refer to: https://tddft.org/programs/libxc/

 This ORCA versions uses:
   CBLAS   interface :  Fast vector & matrix operations
   LAPACKE interface :  Fast linear algebra routines
   SCALAPACK package :  Parallel linear algebra routines
   Shared memory     :  Shared parallel matrices
   BLAS/LAPACK       :  OpenBLAS 0.3.15  USE64BITINT DYNAMIC_ARCH NO_AFFINITY Zen SINGLE_THREADED
        Core in use  :  Zen
   Copyright (c) 2011-2014, The OpenBLAS Project


================================================================================

----- Orbital basis set information -----
Your calculation utilizes the basis: cc-pVTZ 
       H, B-Ne : Obtained from the ccRepo (grant-hill.group.shef.ac.uk/ccrepo) Feb. 2017
                 T. H. Dunning, Jr., J. Chem. Phys. 90, 1007 (1989)
            He : Obtained from the ccRepo (grant-hill.group.shef.ac.uk/ccrepo) Feb. 2017
                 D. E. Woon, T. H. Dunning, Jr., J. Chem. Phys. 100, 2975 (1994)
  Li-Be, Na-Mg : Obtained from the ccRepo (grant-hill.group.shef.ac.uk/ccrepo) Feb. 2017
                 B. P. Prascher, D. E. Woon, K. A. Peterson, T. H. Dunning, Jr., A. K. Wilson, Theor. Chem. Acc. 128, 69 (2011)
         Al-Ar : Obtained from the ccRepo (grant-hill.group.shef.ac.uk/ccrepo) Feb. 2017
                 D. E. Woon, T. H. Dunning, Jr., J. Chem. Phys. 98, 1358 (1993)
            Ca : Obtained from the Peterson Research Group Website (tyr0.chem.wsu.edu/~kipeters) Feb. 2017
                 J. Koput, K. A. Peterson, J. Phys. Chem. 106, 9595 (2002)
         Sc-Zn : Obtained from the ccRepo (grant-hill.group.shef.ac.uk/ccrepo) Feb. 2017
                 N. B. Balabanov, K. A. Peterson, J. Chem. Phys. 123, 064107 (2005)
                 N. B. Balabanov, K. A. Peterson, J. Chem. Phys. 125, 074110 (2006)
         Ga-Kr : Obtained from the ccRepo (grant-hill.group.shef.ac.uk/ccrepo) Feb. 2017
                 A. K. Wilson, D. E. Woon, K. A. Peterson, T. H. Dunning, Jr., J. Chem. Phys. 110, 7667 (1999)
             Y : Obtained from the ccRepo (grant-hill.group.shef.ac.uk/ccrepo) Feb. 2017
                 K. A. Peterson, D. Figgen, M. Dolg, H. Stoll, J. Chem. Phys. 126, 124101 (2007)
        Ag, Au : Obtained from the Peterson Research Group Website (tyr0.chem.wsu.edu/~kipeters) Feb. 2017
                 K. A. Peterson, C. Puzzarini, Theor. Chem. Acc. 114, 283 (2005)

----- AuxC basis set information -----
Your calculation utilizes the auxiliary basis: cc-pVTZ/C 
  Obtained from the EMSL Basis Set Exchange (bse.pnl.gov) Feb. 2017
  H-He, B-F, Al-Ar, Ga-Kr : F. Weigend, A. Kohn, C. Hattig, J. Chem. Phys. 116, 3175 (2002)
             Li-Be, Na-Mg : C. Haettig, Phys. Chem. Chem. Phys. 7, 59 (2005)
                       Ne : C. Haettig, Phys. Chem. Chem. Phys. 7, 59 (2005)
                            F. Weigend, A. Kohn, C. Hattig, J. Chem. Phys. 116, 3175 (2002)
                    Sc-Zn : J. G. Hill, J. A. Platts, J. Chem. Phys. 128, 044104 (2008)

================================================================================
                                        WARNINGS
                       Please study these warnings very carefully!
================================================================================


WARNING: No MP2 level density has been requested!
         To caclulate MP2 level properties use
         %mp2 Density relaxed end
         or
         %mp2 Density unrelaxed end

WARNING: Post HF methods need fully converged wavefunctions
  ===> : Setting SCFConvForced true
         You can overwrite this default with %scf ConvForced false 


INFO   : the flag for use of the SHARK integral package has been found!

================================================================================
                                       INPUT FILE
================================================================================
NAME = CONFS/Conf135.orca
|  1> ! ri-mp2 cc-pvtz cc-pvtz/c TightSCF NoKeepInts
|  2> 
|  3> %scf
|  4>   MaxCore 4096
|  5> end
|  6> *xyz  0  1
|  7>     C       14.7633085   14.1463469   16.3105140
|  8>     C       15.5349837   15.3897346   16.7806924
|  9>     O       16.7006995   15.5099684   15.9445808
| 10>     C       17.9130299   15.6606020   16.5517125
| 11>     O       18.6479346   14.7009693   16.6983273
| 12>     C       18.0200504   16.8834659   17.4115535
| 13>     C       17.5177833   18.0922895   17.0585718
| 14>     C       16.8236623   18.4560133   15.7624713
| 15>     N       17.7030228   19.1933573   17.8992905
| 16>     C       18.4930726   19.1958231   19.0192931
| 17>     S       18.7470953   20.5713504   19.9010572
| 18>     N       19.0600484   17.9966667   19.3737021
| 19>     C       18.7667391   16.6990827   18.7343947
| 20>     C       17.9701776   15.7969123   19.6731442
| 21>     C       18.3602977   14.4603805   19.8748268
| 22>     C       17.6171751   13.6158174   20.7161977
| 23>     C       16.4712378   14.1102241   21.3617356
| 24>     C       16.0758835   15.4392445   21.1601877
| 25>     O       14.9623105   15.9166307   21.7705055
| 26>     C       16.8168666   16.2774286   20.3211560
| 27>     H       15.3894217   13.2494224   16.4013223
| 28>     H       14.4604227   14.2513906   15.2613273
| 29>     H       13.8619335   13.9986230   16.9175213
| 30>     H       14.9029854   16.2824010   16.6975034
| 31>     H       15.8134332   15.2533181   17.8347690
| 32>     H       17.1933354   17.8504204   14.9253568
| 33>     H       16.9958368   19.5041607   15.4875247
| 34>     H       15.7408797   18.3032372   15.8369607
| 35>     H       17.3016318   20.0843449   17.6525235
| 36>     H       19.6189378   18.0220375   20.2172334
| 37>     H       19.7266076   16.2086724   18.5149510
| 38>     H       19.2348998   14.0688080   19.3598614
| 39>     H       17.9275590   12.5819904   20.8583334
| 40>     H       15.8930134   13.4598688   22.0098110
| 41>     H       14.6291638   15.2183249   22.3544241
| 42>     H       16.4915590   17.3026714   20.1806620
| 43> *
| 44> 
| 45>                          ****END OF INPUT****
================================================================================

                       ****************************
                       * Single Point Calculation *
                       ****************************

---------------------------------
CARTESIAN COORDINATES (ANGSTROEM)
---------------------------------
  C     14.763308   14.146347   16.310514
  C     15.534984   15.389735   16.780692
  O     16.700699   15.509968   15.944581
  C     17.913030   15.660602   16.551713
  O     18.647935   14.700969   16.698327
  C     18.020050   16.883466   17.411554
  C     17.517783   18.092289   17.058572
  C     16.823662   18.456013   15.762471
  N     17.703023   19.193357   17.899290
  C     18.493073   19.195823   19.019293
  S     18.747095   20.571350   19.901057
  N     19.060048   17.996667   19.373702
  C     18.766739   16.699083   18.734395
  C     17.970178   15.796912   19.673144
  C     18.360298   14.460380   19.874827
  C     17.617175   13.615817   20.716198
  C     16.471238   14.110224   21.361736
  C     16.075883   15.439244   21.160188
  O     14.962310   15.916631   21.770505
  C     16.816867   16.277429   20.321156
  H     15.389422   13.249422   16.401322
  H     14.460423   14.251391   15.261327
  H     13.861933   13.998623   16.917521
  H     14.902985   16.282401   16.697503
  H     15.813433   15.253318   17.834769
  H     17.193335   17.850420   14.925357
  H     16.995837   19.504161   15.487525
  H     15.740880   18.303237   15.836961
  H     17.301632   20.084345   17.652524
  H     19.618938   18.022037   20.217233
  H     19.726608   16.208672   18.514951
  H     19.234900   14.068808   19.359861
  H     17.927559   12.581990   20.858333
  H     15.893013   13.459869   22.009811
  H     14.629164   15.218325   22.354424
  H     16.491559   17.302671   20.180662

----------------------------
CARTESIAN COORDINATES (A.U.)
----------------------------
  NO LB      ZA    FRAG     MASS         X           Y           Z
   0 C     6.0000    0    12.011   27.898610   26.732721   30.822405
   1 C     6.0000    0    12.011   29.356865   29.082384   31.710913
   2 O     8.0000    0    15.999   31.559748   29.309593   30.130891
   3 C     6.0000    0    12.011   33.850721   29.594249   31.278204
   4 O     8.0000    0    15.999   35.239489   27.780806   31.555265
   5 C     6.0000    0    12.011   34.052960   31.905127   32.903068
   6 C     6.0000    0    12.011   33.103813   34.189472   32.236029
   7 C     6.0000    0    12.011   31.792114   34.876811   29.786754
   8 N     7.0000    0    14.007   33.453865   36.270189   33.824757
   9 C     6.0000    0    12.011   34.946843   36.274849   35.941255
  10 S    16.0000    0    32.060   35.426876   38.874218   37.607548
  11 N     7.0000    0    14.007   36.018272   34.008771   36.610991
  12 C     6.0000    0    12.011   35.463997   31.556693   35.402875
  13 C     6.0000    0    12.011   33.958714   29.851838   37.176855
  14 C     6.0000    0    12.011   34.695934   27.326159   37.557980
  15 C     6.0000    0    12.011   33.291636   25.730166   39.147940
  16 C     6.0000    0    12.011   31.126129   26.664459   40.367830
  17 C     6.0000    0    12.011   30.379017   29.175944   39.986960
  18 O     8.0000    0    15.999   28.274669   30.078073   41.140293
  19 C     6.0000    0    12.011   31.779272   30.759882   38.401420
  20 H     1.0000    0     1.008   29.081792   25.037780   30.994007
  21 H     1.0000    0     1.008   27.326239   26.931225   28.839729
  22 H     1.0000    0     1.008   26.195258   26.453564   31.969482
  23 H     1.0000    0     1.008   28.162561   30.769279   31.553709
  24 H     1.0000    0     1.008   29.883058   28.824594   33.702829
  25 H     1.0000    0     1.008   32.490695   33.732406   28.204837
  26 H     1.0000    0     1.008   32.117477   36.857522   29.267180
  27 H     1.0000    0     1.008   29.745952   34.588106   29.927519
  28 H     1.0000    0     1.008   32.695346   37.953911   33.358435
  29 H     1.0000    0     1.008   37.074419   34.056715   38.205034
  30 H     1.0000    0     1.008   37.277886   30.629952   34.988187
  31 H     1.0000    0     1.008   36.348693   26.586194   36.584836
  32 H     1.0000    0     1.008   33.878177   23.776516   39.416538
  33 H     1.0000    0     1.008   30.033443   25.435466   41.592515
  34 H     1.0000    0     1.008   27.645113   28.758466   42.243739
  35 H     1.0000    0     1.008   31.164530   32.697310   38.135924

--------------------------------
INTERNAL COORDINATES (ANGSTROEM)
--------------------------------
 C      0   0   0     0.000000000000     0.00000000     0.00000000
 C      1   0   0     1.537063211008     0.00000000     0.00000000
 O      2   1   0     1.439594422289   107.24343662     0.00000000
 C      3   2   1     1.364201004749   118.05687066   230.84366088
 O      4   3   2     1.217569602352   120.19552503    98.78016547
 C      4   3   2     1.498724808170   114.13464679   299.74477720
 C      6   4   3     1.355773880923   123.48198985   318.74403043
 C      7   6   4     1.514587558191   127.35095004   357.58433135
 N      7   6   4     1.397666592964   119.78163501   182.26592782
 C      9   7   6     1.370616865012   124.70441965     7.46182795
 S     10   9   7     1.653514684909   121.72275173   175.48541619
 N     10   9   7     1.372968815643   116.57690954   355.31864283
 C     12  10   9     1.475963595153   125.02780663   352.98905216
 C     13  12  10     1.526326399453   110.91282650   250.55750838
 C     14  13  12     1.406835745913   120.33050205   228.16658694
 C     15  14  13     1.404785755864   120.68586838   181.28644083
 C     16  15  14     1.405108344888   119.67250114     0.08864328
 C     17  16  15     1.401150171159   119.85349563     0.14514885
 O     18  17  16     1.356624571234   120.04477783   179.31311673
 C     18  17  16     1.398421514989   120.35241797   359.91004492
 H      1   2   3     1.097605323084   110.44713938    59.87216010
 H      1   2   3     1.097071883793   110.71346642   299.85702531
 H      1   2   3     1.096702832817   110.62705668   179.68979551
 H      2   1   3     1.096902713377   110.23416930   120.66689211
 H      2   1   3     1.098736121273   108.67844629   239.64074413
 H      8   7   6     1.097342994466   111.46239704   329.92777981
 H      8   7   6     1.097202198060   111.83499552   210.89470358
 H      8   7   6     1.096041680917   111.16864109    90.38044684
 H      9   7   6     1.007902569956   119.75921228   182.15963191
 H     12  10   9     1.012198643056   114.91307277   181.49167881
 H     13  12  10     1.100002425956   107.75502546   132.13574762
 H     15  14  13     1.087863603251   119.80422292     0.07850770
 H     16  15  14     1.088732744305   119.88541494   179.63862557
 H     17  16  15     1.085037878177   119.87545846   179.80424271
 H     19  18  17     0.969318650115   107.43463402     4.76751248
 H     20  18  17     1.084751767736   119.03224244   180.01776141

---------------------------
INTERNAL COORDINATES (A.U.)
---------------------------
 C      0   0   0     0.000000000000     0.00000000     0.00000000
 C      1   0   0     2.904628519330     0.00000000     0.00000000
 O      2   1   0     2.720439202047   107.24343662     0.00000000
 C      3   2   1     2.577966290596   118.05687066   230.84366088
 O      4   3   2     2.300873097432   120.19552503    98.78016547
 C      4   3   2     2.832179437555   114.13464679   299.74477720
 C      6   4   3     2.562041334469   123.48198985   318.74403043
 C      7   6   4     2.862155690826   127.35095004   357.58433135
 N      7   6   4     2.641207087232   119.78163501   182.26592782
 C      9   7   6     2.590090509407   124.70441965     7.46182795
 S     10   9   7     3.124689912895   121.72275173   175.48541619
 N     10   9   7     2.594535051979   116.57690954   355.31864283
 C     12  10   9     2.789166978477   125.02780663   352.98905216
 C     13  12  10     2.884338885941   110.91282650   250.55750838
 C     14  13  12     2.658534275186   120.33050205   228.16658694
 C     15  14  13     2.654660355417   120.68586838   181.28644083
 C     16  15  14     2.655269960325   119.67250114     0.08864328
 C     17  16  15     2.647790095988   119.85349563     0.14514885
 O     18  17  16     2.563648906181   120.04477783   179.31311673
 C     18  17  16     2.642633683112   120.35241797   359.91004492
 H      1   2   3     2.074173463764   110.44713938    59.87216010
 H      1   2   3     2.073165409593   110.71346642   299.85702531
 H      1   2   3     2.072468004320   110.62705668   179.68979551
 H      2   1   3     2.072845723837   110.23416930   120.66689211
 H      2   1   3     2.076310362653   108.67844629   239.64074413
 H      8   7   6     2.073677734518   111.46239704   329.92777981
 H      8   7   6     2.073411667871   111.83499552   210.89470358
 H      8   7   6     2.071218608295   111.16864109    90.38044684
 H      9   7   6     1.904659826892   119.75921228   182.15963191
 H     12  10   9     1.912778228503   114.91307277   181.49167881
 H     13  12  10     2.078703331705   107.75502546   132.13574762
 H     15  14  13     2.055764281205   119.80422292     0.07850770
 H     16  15  14     2.057406719770   119.88541494   179.63862557
 H     17  16  15     2.050424434685   119.87545846   179.80424271
 H     19  18  17     1.831746785219   107.43463402     4.76751248
 H     20  18  17     2.049883764307   119.03224244   180.01776141

---------------------
BASIS SET INFORMATION
---------------------
There are 5 groups of distinct atoms

 Group   1 Type C   : 18s5p2d1f contracted to 4s3p2d1f pattern {8811/311/11/1}
 Group   2 Type O   : 18s5p2d1f contracted to 4s3p2d1f pattern {8811/311/11/1}
 Group   3 Type N   : 18s5p2d1f contracted to 4s3p2d1f pattern {8811/311/11/1}
 Group   4 Type S   : 41s16p2d1f contracted to 5s4p2d1f pattern {13131311/7711/11/1}
 Group   5 Type H   : 5s2p1d contracted to 3s2p1d pattern {311/11/1}

Atom   0C    basis set group =>   1
Atom   1C    basis set group =>   1
Atom   2O    basis set group =>   2
Atom   3C    basis set group =>   1
Atom   4O    basis set group =>   2
Atom   5C    basis set group =>   1
Atom   6C    basis set group =>   1
Atom   7C    basis set group =>   1
Atom   8N    basis set group =>   3
Atom   9C    basis set group =>   1
Atom  10S    basis set group =>   4
Atom  11N    basis set group =>   3
Atom  12C    basis set group =>   1
Atom  13C    basis set group =>   1
Atom  14C    basis set group =>   1
Atom  15C    basis set group =>   1
Atom  16C    basis set group =>   1
Atom  17C    basis set group =>   1
Atom  18O    basis set group =>   2
Atom  19C    basis set group =>   1
Atom  20H    basis set group =>   5
Atom  21H    basis set group =>   5
Atom  22H    basis set group =>   5
Atom  23H    basis set group =>   5
Atom  24H    basis set group =>   5
Atom  25H    basis set group =>   5
Atom  26H    basis set group =>   5
Atom  27H    basis set group =>   5
Atom  28H    basis set group =>   5
Atom  29H    basis set group =>   5
Atom  30H    basis set group =>   5
Atom  31H    basis set group =>   5
Atom  32H    basis set group =>   5
Atom  33H    basis set group =>   5
Atom  34H    basis set group =>   5
Atom  35H    basis set group =>   5
---------------------------------
AUXILIARY/C BASIS SET INFORMATION
---------------------------------
There are 5 groups of distinct atoms

 Group   1 Type C   : 8s6p5d3f1g contracted to 8s6p5d3f1g pattern {11111111/111111/11111/111/1}
 Group   2 Type O   : 8s6p5d3f1g contracted to 8s6p5d3f1g pattern {11111111/111111/11111/111/1}
 Group   3 Type N   : 8s6p5d3f1g contracted to 8s6p5d3f1g pattern {11111111/111111/11111/111/1}
 Group   4 Type S   : 10s8p7d5f2g contracted to 10s8p7d5f2g pattern {1111111111/11111111/1111111/11111/11}
 Group   5 Type H   : 4s3p2d1f contracted to 4s3p2d1f pattern {1111/111/11/1}

Atom   0C    basis set group =>   1
Atom   1C    basis set group =>   1
Atom   2O    basis set group =>   2
Atom   3C    basis set group =>   1
Atom   4O    basis set group =>   2
Atom   5C    basis set group =>   1
Atom   6C    basis set group =>   1
Atom   7C    basis set group =>   1
Atom   8N    basis set group =>   3
Atom   9C    basis set group =>   1
Atom  10S    basis set group =>   4
Atom  11N    basis set group =>   3
Atom  12C    basis set group =>   1
Atom  13C    basis set group =>   1
Atom  14C    basis set group =>   1
Atom  15C    basis set group =>   1
Atom  16C    basis set group =>   1
Atom  17C    basis set group =>   1
Atom  18O    basis set group =>   2
Atom  19C    basis set group =>   1
Atom  20H    basis set group =>   5
Atom  21H    basis set group =>   5
Atom  22H    basis set group =>   5
Atom  23H    basis set group =>   5
Atom  24H    basis set group =>   5
Atom  25H    basis set group =>   5
Atom  26H    basis set group =>   5
Atom  27H    basis set group =>   5
Atom  28H    basis set group =>   5
Atom  29H    basis set group =>   5
Atom  30H    basis set group =>   5
Atom  31H    basis set group =>   5
Atom  32H    basis set group =>   5
Atom  33H    basis set group =>   5
Atom  34H    basis set group =>   5
Atom  35H    basis set group =>   5
------------------------------------------------------------------------------
                           ORCA GTO INTEGRAL CALCULATION
------------------------------------------------------------------------------
------------------------------------------------------------------------------
                   ___                                                        
                  /   \      - P O W E R E D   B Y -                         
                 /     \                                                     
                 |  |  |   _    _      __       _____    __    __             
                 |  |  |  | |  | |    /  \     |  _  \  |  |  /  |          
                  \  \/   | |  | |   /    \    | | | |  |  | /  /          
                 / \  \   | |__| |  /  /\  \   | |_| |  |  |/  /          
                |  |  |   |  __  | /  /__\  \  |    /   |      \           
                |  |  |   | |  | | |   __   |  |    \   |  |\   \          
                \     /   | |  | | |  |  |  |  | |\  \  |  | \   \       
                 \___/    |_|  |_| |__|  |__|  |_| \__\ |__|  \__/        
                                                                              
                      - O R C A' S   B I G   F R I E N D -                    
                                      &                                       
                       - I N T E G R A L  F E E D E R -                       
                                                                              
 v1 FN, 2020, v2 2021                                                         
------------------------------------------------------------------------------


Reading SHARK input file CONFS/Conf135.orca.SHARKINP.tmp ... ok
----------------------
SHARK INTEGRAL PACKAGE
----------------------

Number of atoms                             ...     36
Number of basis functions                   ...    828
Number of shells                            ...    298
Maximum angular momentum                    ...      3
Integral batch strategy                     ... SHARK/LIBINT Hybrid
RI-J (if used) integral strategy            ... SPLIT-RIJ (Revised 2003 algorithm where possible)
Printlevel                                  ...      1
Contraction scheme used                     ... SEGMENTED contraction
Coulomb Range Separation                    ... NOT USED
Exchange Range Separation                   ... NOT USED
Finite Nucleus Model                        ... NOT USED
Auxiliary Coulomb fitting basis             ... NOT available
Auxiliary J/K fitting basis                 ... NOT available
Auxiliary Correlation fitting basis         ... AVAILABLE
   # of basis functions in Aux-C            ...   2141
   # of shells in Aux-C                     ...    629
   Maximum angular momentum in Aux-C        ...      4
Auxiliary 'external' fitting basis          ... NOT available
Integral threshold                          ...     2.500000e-11
Primitive cut-off                           ...     2.500000e-12
Primitive pair pre-selection threshold      ...     2.500000e-12

Calculating pre-screening integrals         ... done (  0.5 sec) Dimension = 298
Organizing shell pair data                  ... done (  1.1 sec)
Shell pair information
Total number of shell pairs                 ...     44551
Shell pairs after pre-screening             ...     34168
Total number of primitive shell pairs       ...    234348
Primitive shell pairs kept                  ...     97113
          la=0 lb=0:   6803 shell pairs
          la=1 lb=0:   9468 shell pairs
          la=1 lb=1:   3361 shell pairs
          la=2 lb=0:   5463 shell pairs
          la=2 lb=1:   3765 shell pairs
          la=2 lb=2:   1075 shell pairs
          la=3 lb=0:   1973 shell pairs
          la=3 lb=1:   1357 shell pairs
          la=3 lb=2:    750 shell pairs
          la=3 lb=3:    153 shell pairs

Calculating one electron integrals          ... done (  0.3 sec)
Calculating RI/C V-Matrix + Cholesky decomp.... done (  0.8 sec)
Calculating Nuclear repulsion               ... done (  0.0 sec) ENN=   1722.686600943554 Eh

SHARK setup successfully completed in   3.3 seconds

Maximum memory used throughout the entire GTOINT-calculation: 505.5 MB
-------------------------------------------------------------------------------
                                 ORCA SCF
-------------------------------------------------------------------------------

------------
SCF SETTINGS
------------
Hamiltonian:
 Ab initio Hamiltonian  Method          .... Hartree-Fock(GTOs)


General Settings:
 Integral files         IntName         .... CONFS/Conf135.orca
 Hartree-Fock type      HFTyp           .... RHF
 Total Charge           Charge          ....    0
 Multiplicity           Mult            ....    1
 Number of Electrons    NEL             ....  154
 Basis Dimension        Dim             ....  828
 Nuclear Repulsion      ENuc            ....   1722.6866009436 Eh

Convergence Acceleration:
 DIIS                   CNVDIIS         .... on
   Start iteration      DIISMaxIt       ....    12
   Startup error        DIISStart       ....  0.200000
   # of expansion vecs  DIISMaxEq       ....     5
   Bias factor          DIISBfac        ....   1.050
   Max. coefficient     DIISMaxC        ....  10.000
 Trust-Rad. Augm. Hess. CNVTRAH         .... auto
   Auto Start mean grad. ratio tolernc. ....  1.125000
   Auto Start start iteration           ....    20
   Auto Start num. interpolation iter.  ....    10
   Max. Number of Micro iterations      ....    16
   Max. Number of Macro iterations      .... Maxiter - #DIIS iter
   Number of Davidson start vectors     ....     2
   Converg. threshold I  (grad. norm)   ....   1.000e-05
   Converg. threshold II (energy diff.) ....   1.000e-08
   Grad. Scal. Fac. for Micro threshold ....   0.100
   Minimum threshold for Micro iter.    ....   0.010
   NR start threshold (gradient norm)   ....   0.001
   Initial trust radius                 ....   0.400
   Minimum AH scaling param. (alpha)    ....   1.000
   Maximum AH scaling param. (alpha)    .... 1000.000
   Orbital update algorithm             .... Taylor
   White noise on init. David. guess    .... on
   Maximum white noise                  ....   0.010
   Quad. conv. algorithm                .... NR
 SOSCF                  CNVSOSCF        .... on
   Start iteration      SOSCFMaxIt      ....   150
   Startup grad/error   SOSCFStart      ....  0.003300
 Level Shifting         CNVShift        .... on
   Level shift para.    LevelShift      ....    0.2500
   Turn off err/grad.   ShiftErr        ....    0.0010
 Zerner damping         CNVZerner       .... off
 Static damping         CNVDamp         .... on
   Fraction old density DampFac         ....    0.7000
   Max. Damping (<1)    DampMax         ....    0.9800
   Min. Damping (>=0)   DampMin         ....    0.0000
   Turn off err/grad.   DampErr         ....    0.1000
 Fernandez-Rico         CNVRico         .... off

SCF Procedure:
 Maximum # iterations   MaxIter         ....   125
 SCF integral mode      SCFMode         .... Direct
   Integral package                     .... SHARK and LIBINT hybrid scheme
 Reset frequency        DirectResetFreq ....    20
 Integral Threshold     Thresh          ....  2.500e-11 Eh
 Primitive CutOff       TCut            ....  2.500e-12 Eh

Convergence Tolerance:
 Convergence Check Mode ConvCheckMode   .... Total+1el-Energy
 Convergence forced     ConvForced      .... 1
 Energy Change          TolE            ....  1.000e-08 Eh
 1-El. energy change                    ....  1.000e-05 Eh
 Orbital Gradient       TolG            ....  1.000e-05
 Orbital Rotation angle TolX            ....  1.000e-05
 DIIS Error             TolErr          ....  5.000e-07


Diagonalization of the overlap matrix:
Smallest eigenvalue                        ... 3.317e-05
Time for diagonalization                   ...    0.109 sec
Threshold for overlap eigenvalues          ... 1.000e-08
Number of eigenvalues below threshold      ... 0
Time for construction of square roots      ...    0.281 sec
Total time needed                          ...    0.390 sec

Time for model grid setup =    1.317 sec

------------------------------
INITIAL GUESS: MODEL POTENTIAL
------------------------------
Loading Hartree-Fock densities                     ... done
Calculating cut-offs                               ... done
Initializing the effective Hamiltonian             ... done
Setting up the integral package (SHARK)            ... done
Starting the Coulomb interaction                   ... done (   3.7 sec)
Reading the grid                                   ... done
Mapping shells                                     ... done
Starting the XC term evaluation                    ... done (   1.2 sec)
Transforming the Hamiltonian                       ... done (   0.1 sec)
Diagonalizing the Hamiltonian                      ... done (   0.1 sec)
Back transforming the eigenvectors                 ... done (   0.0 sec)
Now organizing SCF variables                       ... done
                      ------------------
                      INITIAL GUESS DONE (   6.5 sec)
                      ------------------
--------------
SCF ITERATIONS
--------------
ITER       Energy         Delta-E        Max-DP      RMS-DP      [F,P]     Damp
               ***  Starting incremental Fock matrix formation  ***
  0  -1269.9951357328   0.000000000000 0.04931603  0.00044135  0.3121910 0.7000
  1  -1270.2634830128  -0.268347280011 0.03608541  0.00035731  0.1841157 0.7000
                               ***Turning on DIIS***
  2  -1270.4305351237  -0.167052110887 0.02584316  0.00023789  0.1097970 0.7000
  3  -1272.5576087550  -2.127073631321 0.06315175  0.00050862  0.0828930 0.0000
  4  -1270.7396829445   1.817925810592 0.01342536  0.00010400  0.0068687 0.0000
  5  -1270.8000679150  -0.060384970542 0.00647575  0.00005549  0.0037432 0.0000
                      *** Initiating the SOSCF procedure ***
                           *** Shutting down DIIS ***
                      *** Re-Reading the Fockian *** 
                      *** Removing any level shift *** 
ITER      Energy       Delta-E        Grad      Rot      Max-DP    RMS-DP
  6  -1270.77853455   0.0215333606  0.001971  0.001971  0.003396  0.000029
               *** Restarting incremental Fock matrix formation ***
  7  -1270.79339195  -0.0148573908  0.001131  0.002900  0.002008  0.000018
  8  -1270.79344702  -0.0000550730  0.000525  0.003563  0.002454  0.000021
  9  -1270.79346916  -0.0000221439  0.000199  0.000398  0.000389  0.000005
 10  -1270.79347211  -0.0000029480  0.000058  0.000157  0.000132  0.000002
 11  -1270.79347240  -0.0000002906  0.000024  0.000147  0.000097  0.000001
 12  -1270.79347248  -0.0000000812  0.000011  0.000043  0.000028  0.000000
                 **** Energy Check signals convergence ****
              ***Rediagonalizing the Fockian in SOSCF/NRSCF***

               *****************************************************
               *                     SUCCESS                       *
               *           SCF CONVERGED AFTER  13 CYCLES          *
               *****************************************************


----------------
TOTAL SCF ENERGY
----------------

Total Energy       :        -1270.79347249 Eh          -34580.04840 eV

Components:
Nuclear Repulsion  :         1722.68660094 Eh           46876.68558 eV
Electronic Energy  :        -2993.48007343 Eh          -81456.73398 eV
One Electron Energy:        -5166.24082084 Eh         -140580.55971 eV
Two Electron Energy:         2172.76074740 Eh           59123.82573 eV

Virial components:
Potential Energy   :        -2539.82490564 Eh          -69112.14928 eV
Kinetic Energy     :         1269.03143315 Eh           34532.10087 eV
Virial Ratio       :            2.00138849


---------------
SCF CONVERGENCE
---------------

  Last Energy change         ...   -5.4965e-09  Tolerance :   1.0000e-08
  Last MAX-Density change    ...    7.4907e-06  Tolerance :   1.0000e-07
  Last RMS-Density change    ...    1.0212e-07  Tolerance :   5.0000e-09
  Last Orbital Gradient      ...    3.7512e-06  Tolerance :   1.0000e-05
  Last Orbital Rotation      ...    7.4175e-06  Tolerance :   1.0000e-05

             **** THE GBW FILE WAS UPDATED (CONFS/Conf135.orca.gbw) ****
             **** DENSITY CONFS/Conf135.orca.scfp WAS UPDATED ****
             **** ENERGY FILE WAS UPDATED (CONFS/Conf135.orca.en.tmp) ****
             **** THE GBW FILE WAS UPDATED (CONFS/Conf135.orca.gbw) ****
             **** DENSITY CONFS/Conf135.orca.scfp WAS UPDATED ****
----------------
ORBITAL ENERGIES
----------------

  NO   OCC          E(Eh)            E(eV) 
   0   2.0000     -91.890985     -2500.4808 
   1   2.0000     -20.598342      -560.5094 
   2   2.0000     -20.585335      -560.1555 
   3   2.0000     -20.555778      -559.3512 
   4   2.0000     -15.630423      -425.3254 
   5   2.0000     -15.610516      -424.7837 
   6   2.0000     -11.394878      -310.0704 
   7   2.0000     -11.386716      -309.8483 
   8   2.0000     -11.336061      -308.4699 
   9   2.0000     -11.314955      -307.8956 
  10   2.0000     -11.310987      -307.7876 
  11   2.0000     -11.302467      -307.5558 
  12   2.0000     -11.264581      -306.5248 
  13   2.0000     -11.262120      -306.4579 
  14   2.0000     -11.260673      -306.4185 
  15   2.0000     -11.254891      -306.2611 
  16   2.0000     -11.244550      -305.9798 
  17   2.0000     -11.240495      -305.8694 
  18   2.0000     -11.237277      -305.7819 
  19   2.0000     -11.227926      -305.5274 
  20   2.0000      -8.896056      -242.0740 
  21   2.0000      -6.577632      -178.9865 
  22   2.0000      -6.575622      -178.9318 
  23   2.0000      -6.575035      -178.9158 
  24   2.0000      -1.450670       -39.4747 
  25   2.0000      -1.418179       -38.5906 
  26   2.0000      -1.359069       -36.9821 
  27   2.0000      -1.341908       -36.5152 
  28   2.0000      -1.240173       -33.7468 
  29   2.0000      -1.159263       -31.5451 
  30   2.0000      -1.123827       -30.5809 
  31   2.0000      -1.046970       -28.4895 
  32   2.0000      -1.034956       -28.1626 
  33   2.0000      -1.016774       -27.6678 
  34   2.0000      -1.002958       -27.2919 
  35   2.0000      -0.988021       -26.8854 
  36   2.0000      -0.926255       -25.2047 
  37   2.0000      -0.878065       -23.8934 
  38   2.0000      -0.854110       -23.2415 
  39   2.0000      -0.842650       -22.9297 
  40   2.0000      -0.835276       -22.7290 
  41   2.0000      -0.833935       -22.6925 
  42   2.0000      -0.755310       -20.5530 
  43   2.0000      -0.736592       -20.0437 
  44   2.0000      -0.730760       -19.8850 
  45   2.0000      -0.696398       -18.9500 
  46   2.0000      -0.688246       -18.7281 
  47   2.0000      -0.680181       -18.5087 
  48   2.0000      -0.676432       -18.4067 
  49   2.0000      -0.663094       -18.0437 
  50   2.0000      -0.651529       -17.7290 
  51   2.0000      -0.648696       -17.6519 
  52   2.0000      -0.641037       -17.4435 
  53   2.0000      -0.609317       -16.5804 
  54   2.0000      -0.606607       -16.5066 
  55   2.0000      -0.602318       -16.3899 
  56   2.0000      -0.596538       -16.2326 
  57   2.0000      -0.583512       -15.8782 
  58   2.0000      -0.577801       -15.7228 
  59   2.0000      -0.566922       -15.4267 
  60   2.0000      -0.564003       -15.3473 
  61   2.0000      -0.556382       -15.1399 
  62   2.0000      -0.541963       -14.7476 
  63   2.0000      -0.524450       -14.2710 
  64   2.0000      -0.515149       -14.0179 
  65   2.0000      -0.513267       -13.9667 
  66   2.0000      -0.502367       -13.6701 
  67   2.0000      -0.498382       -13.5617 
  68   2.0000      -0.486111       -13.2277 
  69   2.0000      -0.469414       -12.7734 
  70   2.0000      -0.456956       -12.4344 
  71   2.0000      -0.452784       -12.3209 
  72   2.0000      -0.357830        -9.7371 
  73   2.0000      -0.350370        -9.5340 
  74   2.0000      -0.330280        -8.9874 
  75   2.0000      -0.322515        -8.7761 
  76   2.0000      -0.318791        -8.6748 
  77   0.0000       0.072085         1.9615 
  78   0.0000       0.104318         2.8386 
  79   0.0000       0.117830         3.2063 
  80   0.0000       0.130347         3.5469 
  81   0.0000       0.134598         3.6626 
  82   0.0000       0.145206         3.9513 
  83   0.0000       0.149654         4.0723 
  84   0.0000       0.152008         4.1363 
  85   0.0000       0.160023         4.3544 
  86   0.0000       0.166313         4.5256 
  87   0.0000       0.177313         4.8249 
  88   0.0000       0.193342         5.2611 
  89   0.0000       0.199010         5.4153 
  90   0.0000       0.203160         5.5283 
  91   0.0000       0.207765         5.6536 
  92   0.0000       0.208252         5.6668 
  93   0.0000       0.218414         5.9434 
  94   0.0000       0.219344         5.9687 
  95   0.0000       0.234921         6.3925 
  96   0.0000       0.238288         6.4842 
  97   0.0000       0.243948         6.6382 
  98   0.0000       0.261237         7.1086 
  99   0.0000       0.272971         7.4279 
 100   0.0000       0.289925         7.8893 
 101   0.0000       0.303838         8.2678 
 102   0.0000       0.311873         8.4865 
 103   0.0000       0.316365         8.6087 
 104   0.0000       0.321905         8.7595 
 105   0.0000       0.329080         8.9547 
 106   0.0000       0.342365         9.3162 
 107   0.0000       0.348994         9.4966 
 108   0.0000       0.351203         9.5567 
 109   0.0000       0.361050         9.8247 
 110   0.0000       0.363770         9.8987 
 111   0.0000       0.374117        10.1803 
 112   0.0000       0.382318        10.4034 
 113   0.0000       0.386854        10.5268 
 114   0.0000       0.402850        10.9621 
 115   0.0000       0.406576        11.0635 
 116   0.0000       0.419610        11.4182 
 117   0.0000       0.423536        11.5250 
 118   0.0000       0.430520        11.7151 
 119   0.0000       0.436578        11.8799 
 120   0.0000       0.443506        12.0684 
 121   0.0000       0.450247        12.2519 
 122   0.0000       0.452535        12.3141 
 123   0.0000       0.456733        12.4283 
 124   0.0000       0.457978        12.4622 
 125   0.0000       0.468637        12.7523 
 126   0.0000       0.476105        12.9555 
 127   0.0000       0.483957        13.1691 
 128   0.0000       0.492570        13.4035 
 129   0.0000       0.498423        13.5628 
 130   0.0000       0.501282        13.6406 
 131   0.0000       0.507397        13.8070 
 132   0.0000       0.514071        13.9886 
 133   0.0000       0.516091        14.0436 
 134   0.0000       0.522301        14.2125 
 135   0.0000       0.525053        14.2874 
 136   0.0000       0.534448        14.5431 
 137   0.0000       0.537950        14.6384 
 138   0.0000       0.542249        14.7553 
 139   0.0000       0.554547        15.0900 
 140   0.0000       0.559558        15.2264 
 141   0.0000       0.561211        15.2713 
 142   0.0000       0.563328        15.3289 
 143   0.0000       0.566853        15.4249 
 144   0.0000       0.575846        15.6696 
 145   0.0000       0.581356        15.8195 
 146   0.0000       0.584437        15.9033 
 147   0.0000       0.592585        16.1251 
 148   0.0000       0.596049        16.2193 
 149   0.0000       0.599998        16.3268 
 150   0.0000       0.604627        16.4527 
 151   0.0000       0.610188        16.6041 
 152   0.0000       0.617494        16.8029 
 153   0.0000       0.619715        16.8633 
 154   0.0000       0.621824        16.9207 
 155   0.0000       0.624775        17.0010 
 156   0.0000       0.631950        17.1962 
 157   0.0000       0.633587        17.2408 
 158   0.0000       0.638854        17.3841 
 159   0.0000       0.643839        17.5197 
 160   0.0000       0.644780        17.5453 
 161   0.0000       0.652592        17.7579 
 162   0.0000       0.655516        17.8375 
 163   0.0000       0.660481        17.9726 
 164   0.0000       0.666172        18.1275 
 165   0.0000       0.672479        18.2991 
 166   0.0000       0.677390        18.4327 
 167   0.0000       0.685785        18.6612 
 168   0.0000       0.691367        18.8131 
 169   0.0000       0.693723        18.8772 
 170   0.0000       0.700295        19.0560 
 171   0.0000       0.703152        19.1337 
 172   0.0000       0.718169        19.5424 
 173   0.0000       0.722539        19.6613 
 174   0.0000       0.724694        19.7199 
 175   0.0000       0.734784        19.9945 
 176   0.0000       0.740092        20.1389 
 177   0.0000       0.745852        20.2957 
 178   0.0000       0.748495        20.3676 
 179   0.0000       0.755553        20.5597 
 180   0.0000       0.759659        20.6714 
 181   0.0000       0.769615        20.9423 
 182   0.0000       0.782086        21.2816 
 183   0.0000       0.793604        21.5951 
 184   0.0000       0.799264        21.7491 
 185   0.0000       0.806759        21.9530 
 186   0.0000       0.817568        22.2472 
 187   0.0000       0.825213        22.4552 
 188   0.0000       0.828544        22.5458 
 189   0.0000       0.838602        22.8195 
 190   0.0000       0.842373        22.9221 
 191   0.0000       0.853528        23.2257 
 192   0.0000       0.867888        23.6164 
 193   0.0000       0.871650        23.7188 
 194   0.0000       0.873942        23.7812 
 195   0.0000       0.877076        23.8664 
 196   0.0000       0.890625        24.2351 
 197   0.0000       0.895562        24.3695 
 198   0.0000       0.904318        24.6077 
 199   0.0000       0.910445        24.7745 
 200   0.0000       0.918388        24.9906 
 201   0.0000       0.922108        25.0918 
 202   0.0000       0.927233        25.2313 
 203   0.0000       0.938147        25.5283 
 204   0.0000       0.940815        25.6009 
 205   0.0000       0.947867        25.7928 
 206   0.0000       0.958129        26.0720 
 207   0.0000       0.966953        26.3121 
 208   0.0000       0.973903        26.5013 
 209   0.0000       0.976136        26.5620 
 210   0.0000       0.982562        26.7369 
 211   0.0000       0.998103        27.1598 
 212   0.0000       1.000621        27.2283 
 213   0.0000       1.009376        27.4665 
 214   0.0000       1.014637        27.6097 
 215   0.0000       1.016775        27.6678 
 216   0.0000       1.023551        27.8522 
 217   0.0000       1.031957        28.0810 
 218   0.0000       1.034103        28.1394 
 219   0.0000       1.039289        28.2805 
 220   0.0000       1.047525        28.5046 
 221   0.0000       1.055679        28.7265 
 222   0.0000       1.064414        28.9642 
 223   0.0000       1.069542        29.1037 
 224   0.0000       1.075193        29.2575 
 225   0.0000       1.079884        29.3851 
 226   0.0000       1.092549        29.7298 
 227   0.0000       1.095471        29.8093 
 228   0.0000       1.103006        30.0143 
 229   0.0000       1.111054        30.2333 
 230   0.0000       1.119101        30.4523 
 231   0.0000       1.119499        30.4631 
 232   0.0000       1.135019        30.8854 
 233   0.0000       1.144100        31.1326 
 234   0.0000       1.150911        31.3179 
 235   0.0000       1.161675        31.6108 
 236   0.0000       1.167880        31.7796 
 237   0.0000       1.178574        32.0706 
 238   0.0000       1.180746        32.1297 
 239   0.0000       1.189779        32.3755 
 240   0.0000       1.194188        32.4955 
 241   0.0000       1.203115        32.7384 
 242   0.0000       1.212337        32.9894 
 243   0.0000       1.217209        33.1219 
 244   0.0000       1.222983        33.2791 
 245   0.0000       1.224443        33.3188 
 246   0.0000       1.235156        33.6103 
 247   0.0000       1.241552        33.7843 
 248   0.0000       1.253508        34.1097 
 249   0.0000       1.260585        34.3023 
 250   0.0000       1.269084        34.5335 
 251   0.0000       1.273206        34.6457 
 252   0.0000       1.283431        34.9239 
 253   0.0000       1.290448        35.1149 
 254   0.0000       1.294179        35.2164 
 255   0.0000       1.303102        35.4592 
 256   0.0000       1.310973        35.6734 
 257   0.0000       1.316932        35.8355 
 258   0.0000       1.323265        36.0079 
 259   0.0000       1.331279        36.2259 
 260   0.0000       1.341438        36.5024 
 261   0.0000       1.345328        36.6082 
 262   0.0000       1.355702        36.8905 
 263   0.0000       1.363085        37.0914 
 264   0.0000       1.375143        37.4195 
 265   0.0000       1.379932        37.5499 
 266   0.0000       1.393431        37.9172 
 267   0.0000       1.400696        38.1149 
 268   0.0000       1.406041        38.2603 
 269   0.0000       1.421679        38.6859 
 270   0.0000       1.426529        38.8178 
 271   0.0000       1.432909        38.9914 
 272   0.0000       1.439886        39.1813 
 273   0.0000       1.441845        39.2346 
 274   0.0000       1.443106        39.2689 
 275   0.0000       1.456204        39.6253 
 276   0.0000       1.466988        39.9188 
 277   0.0000       1.473640        40.0998 
 278   0.0000       1.476197        40.1694 
 279   0.0000       1.483848        40.3775 
 280   0.0000       1.495305        40.6893 
 281   0.0000       1.502056        40.8730 
 282   0.0000       1.509780        41.0832 
 283   0.0000       1.518934        41.3323 
 284   0.0000       1.520933        41.3867 
 285   0.0000       1.528643        41.5965 
 286   0.0000       1.532885        41.7119 
 287   0.0000       1.537734        41.8439 
 288   0.0000       1.549759        42.1711 
 289   0.0000       1.558232        42.4016 
 290   0.0000       1.563051        42.5328 
 291   0.0000       1.573957        42.8296 
 292   0.0000       1.581994        43.0483 
 293   0.0000       1.585662        43.1481 
 294   0.0000       1.596855        43.4526 
 295   0.0000       1.604337        43.6562 
 296   0.0000       1.609813        43.8052 
 297   0.0000       1.622203        44.1424 
 298   0.0000       1.626076        44.2478 
 299   0.0000       1.628891        44.3244 
 300   0.0000       1.632576        44.4247 
 301   0.0000       1.642397        44.6919 
 302   0.0000       1.651499        44.9396 
 303   0.0000       1.662567        45.2408 
 304   0.0000       1.669927        45.4410 
 305   0.0000       1.679888        45.7121 
 306   0.0000       1.687349        45.9151 
 307   0.0000       1.691691        46.0333 
 308   0.0000       1.702024        46.3144 
 309   0.0000       1.709279        46.5119 
 310   0.0000       1.718642        46.7666 
 311   0.0000       1.726688        46.9856 
 312   0.0000       1.729821        47.0708 
 313   0.0000       1.735628        47.2289 
 314   0.0000       1.748500        47.5791 
 315   0.0000       1.756205        47.7888 
 316   0.0000       1.764443        48.0129 
 317   0.0000       1.772292        48.2265 
 318   0.0000       1.793894        48.8144 
 319   0.0000       1.801892        49.0320 
 320   0.0000       1.816040        49.4170 
 321   0.0000       1.828925        49.7676 
 322   0.0000       1.834941        49.9313 
 323   0.0000       1.847174        50.2642 
 324   0.0000       1.856249        50.5111 
 325   0.0000       1.866608        50.7930 
 326   0.0000       1.882855        51.2351 
 327   0.0000       1.901114        51.7320 
 328   0.0000       1.907433        51.9039 
 329   0.0000       1.914281        52.0902 
 330   0.0000       1.918179        52.1963 
 331   0.0000       1.938548        52.7506 
 332   0.0000       1.945823        52.9485 
 333   0.0000       1.963034        53.4169 
 334   0.0000       1.974558        53.7304 
 335   0.0000       1.982413        53.9442 
 336   0.0000       1.992097        54.2077 
 337   0.0000       2.013646        54.7941 
 338   0.0000       2.015285        54.8387 
 339   0.0000       2.022774        55.0425 
 340   0.0000       2.029149        55.2160 
 341   0.0000       2.036925        55.4275 
 342   0.0000       2.062467        56.1226 
 343   0.0000       2.072521        56.3962 
 344   0.0000       2.090415        56.8831 
 345   0.0000       2.103824        57.2480 
 346   0.0000       2.116274        57.5867 
 347   0.0000       2.132954        58.0406 
 348   0.0000       2.155630        58.6577 
 349   0.0000       2.172513        59.1171 
 350   0.0000       2.179027        59.2943 
 351   0.0000       2.206932        60.0537 
 352   0.0000       2.212998        60.2187 
 353   0.0000       2.239777        60.9474 
 354   0.0000       2.242909        61.0326 
 355   0.0000       2.269487        61.7559 
 356   0.0000       2.276897        61.9575 
 357   0.0000       2.282342        62.1057 
 358   0.0000       2.288386        62.2701 
 359   0.0000       2.305117        62.7254 
 360   0.0000       2.313430        62.9516 
 361   0.0000       2.326811        63.3157 
 362   0.0000       2.354836        64.0783 
 363   0.0000       2.360147        64.2229 
 364   0.0000       2.369844        64.4867 
 365   0.0000       2.372556        64.5605 
 366   0.0000       2.384626        64.8890 
 367   0.0000       2.399965        65.3064 
 368   0.0000       2.405806        65.4653 
 369   0.0000       2.429367        66.1064 
 370   0.0000       2.441214        66.4288 
 371   0.0000       2.462008        66.9946 
 372   0.0000       2.464571        67.0644 
 373   0.0000       2.471334        67.2484 
 374   0.0000       2.499141        68.0051 
 375   0.0000       2.511823        68.3502 
 376   0.0000       2.520205        68.5783 
 377   0.0000       2.532037        68.9002 
 378   0.0000       2.537975        69.0618 
 379   0.0000       2.556240        69.5588 
 380   0.0000       2.566937        69.8499 
 381   0.0000       2.576258        70.1035 
 382   0.0000       2.584142        70.3181 
 383   0.0000       2.595068        70.6154 
 384   0.0000       2.621417        71.3324 
 385   0.0000       2.626002        71.4571 
 386   0.0000       2.629477        71.5517 
 387   0.0000       2.641668        71.8834 
 388   0.0000       2.648868        72.0794 
 389   0.0000       2.672956        72.7348 
 390   0.0000       2.688863        73.1677 
 391   0.0000       2.689565        73.1868 
 392   0.0000       2.701424        73.5095 
 393   0.0000       2.714426        73.8633 
 394   0.0000       2.720746        74.0353 
 395   0.0000       2.732809        74.3635 
 396   0.0000       2.738189        74.5099 
 397   0.0000       2.754870        74.9638 
 398   0.0000       2.765047        75.2408 
 399   0.0000       2.765555        75.2546 
 400   0.0000       2.777713        75.5854 
 401   0.0000       2.789239        75.8990 
 402   0.0000       2.797159        76.1146 
 403   0.0000       2.803793        76.2951 
 404   0.0000       2.809095        76.4394 
 405   0.0000       2.826181        76.9043 
 406   0.0000       2.835899        77.1687 
 407   0.0000       2.847030        77.4716 
 408   0.0000       2.855575        77.7041 
 409   0.0000       2.859991        77.8243 
 410   0.0000       2.867812        78.0371 
 411   0.0000       2.869313        78.0780 
 412   0.0000       2.884101        78.4804 
 413   0.0000       2.902781        78.9887 
 414   0.0000       2.916172        79.3531 
 415   0.0000       2.919478        79.4430 
 416   0.0000       2.930213        79.7351 
 417   0.0000       2.941349        80.0382 
 418   0.0000       2.955242        80.4162 
 419   0.0000       2.962327        80.6090 
 420   0.0000       2.967222        80.7422 
 421   0.0000       2.979163        81.0672 
 422   0.0000       2.987185        81.2854 
 423   0.0000       2.995724        81.5178 
 424   0.0000       3.000638        81.6515 
 425   0.0000       3.011424        81.9450 
 426   0.0000       3.020709        82.1977 
 427   0.0000       3.024160        82.2916 
 428   0.0000       3.034111        82.5624 
 429   0.0000       3.045072        82.8606 
 430   0.0000       3.046100        82.8886 
 431   0.0000       3.049946        82.9932 
 432   0.0000       3.063766        83.3693 
 433   0.0000       3.070274        83.5464 
 434   0.0000       3.073560        83.6358 
 435   0.0000       3.083549        83.9076 
 436   0.0000       3.091890        84.1346 
 437   0.0000       3.097206        84.2793 
 438   0.0000       3.106101        84.5213 
 439   0.0000       3.107506        84.5595 
 440   0.0000       3.111277        84.6621 
 441   0.0000       3.117272        84.8253 
 442   0.0000       3.127697        85.1089 
 443   0.0000       3.129351        85.1540 
 444   0.0000       3.148002        85.6615 
 445   0.0000       3.153339        85.8067 
 446   0.0000       3.158330        85.9425 
 447   0.0000       3.163732        86.0895 
 448   0.0000       3.174660        86.3869 
 449   0.0000       3.187935        86.7481 
 450   0.0000       3.195449        86.9526 
 451   0.0000       3.208711        87.3135 
 452   0.0000       3.219335        87.6025 
 453   0.0000       3.223730        87.7222 
 454   0.0000       3.228184        87.8434 
 455   0.0000       3.231169        87.9246 
 456   0.0000       3.236906        88.0807 
 457   0.0000       3.241006        88.1923 
 458   0.0000       3.259723        88.7016 
 459   0.0000       3.268200        88.9322 
 460   0.0000       3.271462        89.0210 
 461   0.0000       3.275861        89.1407 
 462   0.0000       3.278069        89.2008 
 463   0.0000       3.280878        89.2772 
 464   0.0000       3.291950        89.5785 
 465   0.0000       3.298710        89.7625 
 466   0.0000       3.310276        90.0772 
 467   0.0000       3.311303        90.1051 
 468   0.0000       3.317578        90.2759 
 469   0.0000       3.322752        90.4167 
 470   0.0000       3.331477        90.6541 
 471   0.0000       3.341992        90.9402 
 472   0.0000       3.343367        90.9776 
 473   0.0000       3.354200        91.2724 
 474   0.0000       3.365273        91.5737 
 475   0.0000       3.366646        91.6111 
 476   0.0000       3.373229        91.7902 
 477   0.0000       3.374825        91.8336 
 478   0.0000       3.381867        92.0253 
 479   0.0000       3.387813        92.1871 
 480   0.0000       3.391959        92.2999 
 481   0.0000       3.396365        92.4198 
 482   0.0000       3.397585        92.4530 
 483   0.0000       3.409620        92.7805 
 484   0.0000       3.417939        93.0068 
 485   0.0000       3.420559        93.0782 
 486   0.0000       3.426074        93.2282 
 487   0.0000       3.428912        93.3055 
 488   0.0000       3.438346        93.5622 
 489   0.0000       3.442147        93.6656 
 490   0.0000       3.448169        93.8295 
 491   0.0000       3.450746        93.8996 
 492   0.0000       3.460274        94.1588 
 493   0.0000       3.465707        94.3067 
 494   0.0000       3.469931        94.4216 
 495   0.0000       3.476826        94.6093 
 496   0.0000       3.488583        94.9292 
 497   0.0000       3.492800        95.0439 
 498   0.0000       3.496401        95.1419 
 499   0.0000       3.505499        95.3895 
 500   0.0000       3.516285        95.6830 
 501   0.0000       3.524799        95.9147 
 502   0.0000       3.529950        96.0548 
 503   0.0000       3.542298        96.3908 
 504   0.0000       3.545454        96.4767 
 505   0.0000       3.553590        96.6981 
 506   0.0000       3.572063        97.2008 
 507   0.0000       3.574383        97.2639 
 508   0.0000       3.584151        97.5297 
 509   0.0000       3.591819        97.7384 
 510   0.0000       3.597058        97.8809 
 511   0.0000       3.607860        98.1749 
 512   0.0000       3.614140        98.3458 
 513   0.0000       3.615562        98.3844 
 514   0.0000       3.623994        98.6139 
 515   0.0000       3.624708        98.6333 
 516   0.0000       3.630685        98.7960 
 517   0.0000       3.632614        98.8484 
 518   0.0000       3.639620        99.0391 
 519   0.0000       3.649965        99.3206 
 520   0.0000       3.654853        99.4536 
 521   0.0000       3.658339        99.5485 
 522   0.0000       3.664581        99.7183 
 523   0.0000       3.669585        99.8545 
 524   0.0000       3.680663       100.1559 
 525   0.0000       3.689373       100.3929 
 526   0.0000       3.697374       100.6107 
 527   0.0000       3.701665       100.7274 
 528   0.0000       3.704541       100.8057 
 529   0.0000       3.708590       100.9159 
 530   0.0000       3.720940       101.2519 
 531   0.0000       3.723974       101.3345 
 532   0.0000       3.733371       101.5902 
 533   0.0000       3.741835       101.8205 
 534   0.0000       3.745682       101.9252 
 535   0.0000       3.750007       102.0429 
 536   0.0000       3.752344       102.1065 
 537   0.0000       3.758045       102.2616 
 538   0.0000       3.769125       102.5631 
 539   0.0000       3.770888       102.6111 
 540   0.0000       3.778980       102.8313 
 541   0.0000       3.786529       103.0367 
 542   0.0000       3.792051       103.1869 
 543   0.0000       3.810422       103.6868 
 544   0.0000       3.811811       103.7247 
 545   0.0000       3.815442       103.8235 
 546   0.0000       3.825331       104.0925 
 547   0.0000       3.826798       104.1325 
 548   0.0000       3.833448       104.3134 
 549   0.0000       3.838241       104.4438 
 550   0.0000       3.855854       104.9231 
 551   0.0000       3.867291       105.2343 
 552   0.0000       3.879104       105.5558 
 553   0.0000       3.883486       105.6750 
 554   0.0000       3.894024       105.9618 
 555   0.0000       3.900795       106.1460 
 556   0.0000       3.907161       106.3192 
 557   0.0000       3.921270       106.7032 
 558   0.0000       3.924860       106.8009 
 559   0.0000       3.933004       107.0225 
 560   0.0000       3.946044       107.3773 
 561   0.0000       3.956095       107.6508 
 562   0.0000       3.960376       107.7673 
 563   0.0000       3.965876       107.9170 
 564   0.0000       3.971697       108.0754 
 565   0.0000       3.977737       108.2397 
 566   0.0000       3.994276       108.6898 
 567   0.0000       3.996042       108.7378 
 568   0.0000       4.004765       108.9752 
 569   0.0000       4.021301       109.4252 
 570   0.0000       4.027381       109.5906 
 571   0.0000       4.034729       109.7906 
 572   0.0000       4.047544       110.1393 
 573   0.0000       4.054682       110.3335 
 574   0.0000       4.061983       110.5322 
 575   0.0000       4.069932       110.7485 
 576   0.0000       4.083092       111.1066 
 577   0.0000       4.093560       111.3914 
 578   0.0000       4.094868       111.4270 
 579   0.0000       4.105164       111.7072 
 580   0.0000       4.109248       111.8183 
 581   0.0000       4.118670       112.0747 
 582   0.0000       4.129385       112.3663 
 583   0.0000       4.137895       112.5979 
 584   0.0000       4.139599       112.6442 
 585   0.0000       4.143236       112.7432 
 586   0.0000       4.148538       112.8875 
 587   0.0000       4.161593       113.2427 
 588   0.0000       4.164380       113.3185 
 589   0.0000       4.173266       113.5603 
 590   0.0000       4.179565       113.7317 
 591   0.0000       4.184315       113.8610 
 592   0.0000       4.186067       113.9087 
 593   0.0000       4.191847       114.0660 
 594   0.0000       4.201452       114.3273 
 595   0.0000       4.213935       114.6670 
 596   0.0000       4.217837       114.7732 
 597   0.0000       4.228603       115.0661 
 598   0.0000       4.234569       115.2285 
 599   0.0000       4.249098       115.6238 
 600   0.0000       4.252702       115.7219 
 601   0.0000       4.264838       116.0522 
 602   0.0000       4.273121       116.2775 
 603   0.0000       4.281269       116.4993 
 604   0.0000       4.289203       116.7151 
 605   0.0000       4.298005       116.9547 
 606   0.0000       4.305181       117.1499 
 607   0.0000       4.310748       117.3014 
 608   0.0000       4.318943       117.5244 
 609   0.0000       4.321404       117.5914 
 610   0.0000       4.335396       117.9721 
 611   0.0000       4.339328       118.0791 
 612   0.0000       4.351558       118.4119 
 613   0.0000       4.354343       118.4877 
 614   0.0000       4.361604       118.6853 
 615   0.0000       4.369454       118.8989 
 616   0.0000       4.381789       119.2345 
 617   0.0000       4.390699       119.4770 
 618   0.0000       4.393943       119.5653 
 619   0.0000       4.399241       119.7094 
 620   0.0000       4.406078       119.8955 
 621   0.0000       4.409483       119.9881 
 622   0.0000       4.429822       120.5416 
 623   0.0000       4.437818       120.7592 
 624   0.0000       4.447250       121.0158 
 625   0.0000       4.455220       121.2327 
 626   0.0000       4.462552       121.4322 
 627   0.0000       4.479302       121.8880 
 628   0.0000       4.486059       122.0719 
 629   0.0000       4.491229       122.2126 
 630   0.0000       4.503003       122.5329 
 631   0.0000       4.511328       122.7595 
 632   0.0000       4.513089       122.8074 
 633   0.0000       4.528221       123.2192 
 634   0.0000       4.537363       123.4679 
 635   0.0000       4.541787       123.5883 
 636   0.0000       4.547892       123.7544 
 637   0.0000       4.553082       123.8957 
 638   0.0000       4.564897       124.2172 
 639   0.0000       4.570510       124.3699 
 640   0.0000       4.582912       124.7074 
 641   0.0000       4.592647       124.9723 
 642   0.0000       4.602623       125.2437 
 643   0.0000       4.617920       125.6600 
 644   0.0000       4.619022       125.6900 
 645   0.0000       4.627161       125.9115 
 646   0.0000       4.634691       126.1164 
 647   0.0000       4.638283       126.2141 
 648   0.0000       4.643483       126.3556 
 649   0.0000       4.657279       126.7310 
 650   0.0000       4.662019       126.8600 
 651   0.0000       4.667032       126.9964 
 652   0.0000       4.682315       127.4123 
 653   0.0000       4.687597       127.5560 
 654   0.0000       4.696287       127.7925 
 655   0.0000       4.708162       128.1156 
 656   0.0000       4.719778       128.4317 
 657   0.0000       4.726724       128.6207 
 658   0.0000       4.734679       128.8372 
 659   0.0000       4.747977       129.1990 
 660   0.0000       4.750032       129.2550 
 661   0.0000       4.772446       129.8649 
 662   0.0000       4.792884       130.4210 
 663   0.0000       4.796880       130.5297 
 664   0.0000       4.816826       131.0725 
 665   0.0000       4.844130       131.8155 
 666   0.0000       4.856207       132.1441 
 667   0.0000       4.866233       132.4169 
 668   0.0000       4.885836       132.9503 
 669   0.0000       4.900802       133.3576 
 670   0.0000       4.916101       133.7739 
 671   0.0000       4.936140       134.3192 
 672   0.0000       4.938208       134.3755 
 673   0.0000       4.940028       134.4250 
 674   0.0000       4.975722       135.3963 
 675   0.0000       4.984639       135.6389 
 676   0.0000       5.016638       136.5097 
 677   0.0000       5.018238       136.5532 
 678   0.0000       5.030539       136.8879 
 679   0.0000       5.040094       137.1479 
 680   0.0000       5.050515       137.4315 
 681   0.0000       5.070091       137.9642 
 682   0.0000       5.086649       138.4148 
 683   0.0000       5.100188       138.7832 
 684   0.0000       5.103578       138.8754 
 685   0.0000       5.124163       139.4356 
 686   0.0000       5.134795       139.7249 
 687   0.0000       5.144389       139.9859 
 688   0.0000       5.151350       140.1754 
 689   0.0000       5.158612       140.3730 
 690   0.0000       5.163614       140.5091 
 691   0.0000       5.171545       140.7249 
 692   0.0000       5.191598       141.2706 
 693   0.0000       5.197560       141.4328 
 694   0.0000       5.203122       141.5841 
 695   0.0000       5.211350       141.8080 
 696   0.0000       5.226064       142.2084 
 697   0.0000       5.228454       142.2735 
 698   0.0000       5.236597       142.4950 
 699   0.0000       5.248812       142.8274 
 700   0.0000       5.263732       143.2334 
 701   0.0000       5.273019       143.4861 
 702   0.0000       5.295124       144.0876 
 703   0.0000       5.317537       144.6976 
 704   0.0000       5.334051       145.1469 
 705   0.0000       5.336138       145.2037 
 706   0.0000       5.345959       145.4709 
 707   0.0000       5.361270       145.8876 
 708   0.0000       5.369640       146.1153 
 709   0.0000       5.375521       146.2754 
 710   0.0000       5.394480       146.7913 
 711   0.0000       5.410042       147.2147 
 712   0.0000       5.439740       148.0228 
 713   0.0000       5.452430       148.3682 
 714   0.0000       5.468651       148.8096 
 715   0.0000       5.486566       149.2971 
 716   0.0000       5.496087       149.5561 
 717   0.0000       5.506097       149.8285 
 718   0.0000       5.513807       150.0383 
 719   0.0000       5.524215       150.3215 
 720   0.0000       5.536141       150.6461 
 721   0.0000       5.542068       150.8073 
 722   0.0000       5.551153       151.0546 
 723   0.0000       5.560979       151.3219 
 724   0.0000       5.579046       151.8136 
 725   0.0000       5.603504       152.4791 
 726   0.0000       5.621136       152.9589 
 727   0.0000       5.636840       153.3862 
 728   0.0000       5.642307       153.5350 
 729   0.0000       5.650322       153.7531 
 730   0.0000       5.651964       153.7978 
 731   0.0000       5.661742       154.0638 
 732   0.0000       5.668020       154.2347 
 733   0.0000       5.683537       154.6569 
 734   0.0000       5.691483       154.8731 
 735   0.0000       5.717594       155.5836 
 736   0.0000       5.725394       155.7959 
 737   0.0000       5.735121       156.0606 
 738   0.0000       5.750518       156.4795 
 739   0.0000       5.755013       156.6019 
 740   0.0000       5.764060       156.8480 
 741   0.0000       5.766974       156.9273 
 742   0.0000       5.791778       157.6023 
 743   0.0000       5.802290       157.8883 
 744   0.0000       5.810079       158.1003 
 745   0.0000       5.822355       158.4343 
 746   0.0000       5.864012       159.5679 
 747   0.0000       5.881219       160.0361 
 748   0.0000       5.903669       160.6470 
 749   0.0000       5.916065       160.9843 
 750   0.0000       5.931681       161.4093 
 751   0.0000       5.964274       162.2962 
 752   0.0000       5.973795       162.5552 
 753   0.0000       5.996456       163.1719 
 754   0.0000       6.009969       163.5396 
 755   0.0000       6.029581       164.0733 
 756   0.0000       6.050831       164.6515 
 757   0.0000       6.056292       164.8001 
 758   0.0000       6.077491       165.3769 
 759   0.0000       6.091014       165.7449 
 760   0.0000       6.098390       165.9456 
 761   0.0000       6.169378       167.8773 
 762   0.0000       6.224647       169.3813 
 763   0.0000       6.230951       169.5528 
 764   0.0000       6.238244       169.7512 
 765   0.0000       6.280432       170.8992 
 766   0.0000       6.294824       171.2909 
 767   0.0000       6.316574       171.8827 
 768   0.0000       6.333938       172.3552 
 769   0.0000       6.345842       172.6791 
 770   0.0000       6.368167       173.2866 
 771   0.0000       6.381427       173.6475 
 772   0.0000       6.402120       174.2105 
 773   0.0000       6.417215       174.6213 
 774   0.0000       6.449298       175.4943 
 775   0.0000       6.458962       175.7573 
 776   0.0000       6.499202       176.8523 
 777   0.0000       6.554946       178.3691 
 778   0.0000       6.598769       179.5616 
 779   0.0000       6.626042       180.3038 
 780   0.0000       6.680733       181.7920 
 781   0.0000       6.705843       182.4753 
 782   0.0000       6.727845       183.0740 
 783   0.0000       6.775524       184.3714 
 784   0.0000       6.841542       186.1678 
 785   0.0000       6.860666       186.6882 
 786   0.0000       6.907744       187.9693 
 787   0.0000       6.922331       188.3662 
 788   0.0000       6.955720       189.2748 
 789   0.0000       7.002370       190.5442 
 790   0.0000       7.052772       191.9157 
 791   0.0000       7.060331       192.1214 
 792   0.0000       7.082220       192.7170 
 793   0.0000       7.131074       194.0464 
 794   0.0000       7.235924       196.8995 
 795   0.0000       7.258256       197.5072 
 796   0.0000       7.281499       198.1397 
 797   0.0000       7.289254       198.3507 
 798   0.0000       7.341556       199.7739 
 799   0.0000       7.359401       200.2595 
 800   0.0000       7.388085       201.0400 
 801   0.0000       7.539259       205.1537 
 802   0.0000       7.577168       206.1852 
 803   0.0000       7.585977       206.4249 
 804   0.0000       7.695319       209.4003 
 805   0.0000       7.813734       212.6225 
 806   0.0000       7.821013       212.8206 
 807   0.0000       7.863977       213.9897 
 808   0.0000       7.933259       215.8750 
 809   0.0000       9.447715       257.0854 
 810   0.0000       9.678213       263.3576 
 811   0.0000      10.824257       294.5430 
 812   0.0000      11.232448       305.6504 
 813   0.0000      12.010596       326.8249 
 814   0.0000      12.579376       342.3022 
 815   0.0000      12.941904       352.1671 
 816   0.0000      13.093321       356.2874 
 817   0.0000      13.263730       360.9244 
 818   0.0000      13.397025       364.5516 
 819   0.0000      13.456776       366.1775 
 820   0.0000      13.521937       367.9506 
 821   0.0000      13.858192       377.1006 
 822   0.0000      13.961574       379.9138 
 823   0.0000      13.976468       380.3190 
 824   0.0000      14.098615       383.6428 
 825   0.0000      14.477653       393.9570 
 826   0.0000      14.631862       398.1532 
 827   0.0000      15.969819       434.5609 

                    ********************************
                    * MULLIKEN POPULATION ANALYSIS *
                    ********************************

-----------------------
MULLIKEN ATOMIC CHARGES
-----------------------
   0 C :   -0.255296
   1 C :    0.028197
   2 O :   -0.358660
   3 C :    0.451748
   4 O :   -0.383276
   5 C :   -0.216776
   6 C :    0.140907
   7 C :   -0.299763
   8 N :   -0.128688
   9 C :    0.197236
  10 S :   -0.436691
  11 N :   -0.203613
  12 C :    0.061713
  13 C :    0.020229
  14 C :   -0.167808
  15 C :   -0.136020
  16 C :   -0.276447
  17 C :    0.318104
  18 O :   -0.358963
  19 C :   -0.279366
  20 H :    0.108544
  21 H :    0.096924
  22 H :    0.087443
  23 H :    0.087911
  24 H :    0.107149
  25 H :    0.134343
  26 H :    0.116049
  27 H :    0.120644
  28 H :    0.197601
  29 H :    0.195187
  30 H :    0.159405
  31 H :    0.164486
  32 H :    0.162661
  33 H :    0.132269
  34 H :    0.241370
  35 H :    0.171249
Sum of atomic charges:   -0.0000000

--------------------------------
MULLIKEN REDUCED ORBITAL CHARGES
--------------------------------
  0 C s       :     3.257705  s :     3.257705
      pz      :     1.003042  p :     2.920573
      px      :     0.974262
      py      :     0.943269
      dz2     :     0.019800  d :     0.072532
      dxz     :     0.015978
      dyz     :     0.006055
      dx2y2   :     0.013609
      dxy     :     0.017090
      f0      :     0.000886  f :     0.004485
      f+1     :     0.000658
      f-1     :     0.000428
      f+2     :     0.000205
      f-2     :     0.000508
      f+3     :     0.001309
      f-3     :     0.000490
  1 C s       :     3.164811  s :     3.164811
      pz      :     0.892652  p :     2.634001
      px      :     0.746966
      py      :     0.994383
      dz2     :     0.035236  d :     0.161046
      dxz     :     0.033307
      dyz     :     0.017244
      dx2y2   :     0.029441
      dxy     :     0.045817
      f0      :     0.001305  f :     0.011945
      f+1     :     0.002394
      f-1     :     0.000649
      f+2     :     0.001738
      f-2     :     0.002271
      f+3     :     0.001850
      f-3     :     0.001738
  2 O s       :     3.722006  s :     3.722006
      pz      :     1.572563  p :     4.601290
      px      :     1.183696
      py      :     1.845030
      dz2     :     0.005204  d :     0.033063
      dxz     :     0.015066
      dyz     :     0.002704
      dx2y2   :     0.004892
      dxy     :     0.005197
      f0      :     0.000173  f :     0.002301
      f+1     :     0.000239
      f-1     :     0.000017
      f+2     :     0.000665
      f-2     :     0.000215
      f+3     :     0.000611
      f-3     :     0.000382
[...]
 15 C s       :     2.705788  s :     2.705788
      pz      :     0.888806  p :     2.794190
      px      :     0.942296
      py      :     0.963089
      dz2     :     0.084230  d :     0.415585
      dxz     :     0.073070
      dyz     :     0.053953
      dx2y2   :     0.114050
      dxy     :     0.090282
      f0      :     0.003138  f :     0.041020
      f+1     :     0.005099
      f-1     :     0.005467
      f+2     :     0.007239
      f-2     :     0.005967
      f+3     :     0.007635
      f-3     :     0.006474
 16 C s       :     2.701865  s :     2.701865
      pz      :     0.932402  p :     2.868046
      px      :     0.964128
      py      :     0.971516
      dz2     :     0.039301  d :     0.390945
      dxz     :     0.060282
      dyz     :     0.081575
      dx2y2   :     0.098142
      dxy     :     0.111645
      f0      :     0.003817  f :     0.040345
      f+1     :     0.004454
      f-1     :     0.004022
      f+2     :     0.006200
      f-2     :     0.004851
      f+3     :     0.009317
      f-3     :     0.007684
 17 C s       :     2.701450  s :     2.701450
      pz      :     0.853943  p :     2.685145
      px      :     0.823358
      py      :     1.007844
      dz2     :     0.118031  d :     0.709407
      dxz     :     0.111141
      dyz     :     0.130253
      dx2y2   :     0.172825
      dxy     :     0.177156
      f0      :     0.008212  f :     0.099355
      f+1     :     0.015629
      f-1     :     0.008804
      f+2     :     0.016025
      f-2     :     0.013385
      f+3     :     0.019225
      f-3     :     0.018075
 18 O s       :     3.177296  s :     3.177296
      pz      :     1.449841  p :     4.347923
      px      :     1.388337
      py      :     1.509744
      dz2     :     0.007491  d :     0.075586
      dxz     :     0.017067
      dyz     :     0.016748
      dx2y2   :     0.016198
      dxy     :     0.018083
      f0      :     0.000558  f :     0.005073
      f+1     :     0.000725
      f-1     :     0.000394
      f+2     :     0.000610
      f-2     :     0.000954
      f+3     :     0.000831
      f-3     :     0.001000
 19 C s       :     2.695682  s :     2.695682
      pz      :     0.927829  p :     2.847829
      px      :     0.956730
      py      :     0.963270
      dz2     :     0.069342  d :     0.388916
      dxz     :     0.070344
      dyz     :     0.055029
      dx2y2   :     0.100273
      dxy     :     0.093928
      f0      :     0.003235  f :     0.040803
      f+1     :     0.005164
      f-1     :     0.005026
      f+2     :     0.007248
      f-2     :     0.006436
      f+3     :     0.007602
      f-3     :     0.006092
 20 H s       :     0.843897  s :     0.843897
      pz      :     0.038803  p :     0.149411
      px      :     0.048736
      py      :     0.061871
      dz2     :     0.002573  d :     0.027486
      dxz     :     0.003238
      dyz     :     0.005749
      dx2y2   :     0.008903
      dxy     :     0.007023
 21 H s       :     0.849183  s :     0.849183
      pz      :     0.070865  p :     0.150572
      px      :     0.041143
      py      :     0.038563
      dz2     :     0.009097  d :     0.027477
      dxz     :     0.008927
      dyz     :     0.007870
      dx2y2   :     0.000443
      dxy     :     0.001140
 22 H s       :     0.848541  s :     0.848541
      pz      :     0.049207  p :     0.151105
      px      :     0.062253
      py      :     0.039644
      dz2     :     0.006459  d :     0.027414
      dxz     :     0.006663
      dyz     :     0.002473
      dx2y2   :     0.005009
      dxy     :     0.006809
 23 H s       :     0.864035  s :     0.864035
      pz      :     0.034775  p :     0.146194
      px      :     0.044718
      py      :     0.066701
      dz2     :     0.002869  d :     0.026925
      dxz     :     0.003176
      dyz     :     0.005254
      dx2y2   :     0.007826
      dxy     :     0.007800
 24 H s       :     0.848649  s :     0.848649
      pz      :     0.079902  p :     0.151322
      px      :     0.029988
      py      :     0.041432
      dz2     :     0.010045  d :     0.027154
      dxz     :     0.006806
      dyz     :     0.008699
      dx2y2   :     0.000355
      dxy     :     0.001249
 25 H s       :     0.828132  s :     0.828132
      pz      :     0.057083  p :     0.150664
      px      :     0.042024
      py      :     0.051558
      dz2     :     0.008022  d :     0.027694
      dxz     :     0.005777
      dyz     :     0.006419
      dx2y2   :     0.004570
      dxy     :     0.002906
 26 H s       :     0.838113  s :     0.838113
      pz      :     0.038753  p :     0.150192
      px      :     0.040532
      py      :     0.070907
      dz2     :     0.002930  d :     0.027698
      dxz     :     0.000776
      dyz     :     0.008839
      dx2y2   :     0.007067
      dxy     :     0.008086
 27 H s       :     0.834295  s :     0.834295
      pz      :     0.038022  p :     0.153187
      px      :     0.073656
      py      :     0.041509
      dz2     :     0.002361  d :     0.027733
      dxz     :     0.008807
      dyz     :     0.000169
      dx2y2   :     0.007396
      dxy     :     0.009002
 28 H s       :     0.742734  s :     0.742734
      pz      :     0.058876  p :     0.253410
      px      :     0.086461
      py      :     0.108072
      dz2     :     0.006966  d :     0.061729
      dxz     :     0.003398
      dyz     :     0.015966
      dx2y2   :     0.016915
      dxy     :     0.018484
 29 H s       :     0.748315  s :     0.748315
      pz      :     0.115016  p :     0.254116
      px      :     0.095837
      py      :     0.043263
      dz2     :     0.022048  d :     0.061307
      dxz     :     0.016490
      dyz     :     0.010904
      dx2y2   :     0.007042
      dxy     :     0.004823
 30 H s       :     0.826612  s :     0.826612
      pz      :     0.038276  p :     0.148413
      px      :     0.068959
      py      :     0.041178
      dz2     :     0.002799  d :     0.028287
      dxz     :     0.007607
      dyz     :     0.002382
      dx2y2   :     0.007853
      dxy     :     0.007645
 31 H s       :     0.839381  s :     0.839381
      pz      :     0.051311  p :     0.156059
      px      :     0.066663
      py      :     0.038086
      dz2     :     0.004692  d :     0.027431
      dxz     :     0.006762
      dyz     :     0.003088
      dx2y2   :     0.006345
      dxy     :     0.006543
 32 H s       :     0.841844  s :     0.841844
      pz      :     0.037601  p :     0.150945
      px      :     0.038515
      py      :     0.074829
      dz2     :     0.002717  d :     0.026433
      dxz     :     0.000795
      dyz     :     0.007204
      dx2y2   :     0.007751
      dxy     :     0.007966
 33 H s       :     0.848304  s :     0.848304
      pz      :     0.058265  p :     0.158892
      px      :     0.049900
      py      :     0.050728
      dz2     :     0.005996  d :     0.027736
      dxz     :     0.005040
      dyz     :     0.005691
      dx2y2   :     0.005762
      dxy     :     0.005247
 34 H s       :     0.706259  s :     0.706259
      pz      :     0.119108  p :     0.347570
      px      :     0.085008
      py      :     0.143454
      dz2     :     0.024720  d :     0.099479
      dxz     :     0.012699
      dyz     :     0.023691
      dx2y2   :     0.019659
      dxy     :     0.018709
 35 H s       :     0.838539  s :     0.838539
      pz      :     0.041882  p :     0.157918
      px      :     0.040136
      py      :     0.075900
      dz2     :     0.002740  d :     0.028053
      dxz     :     0.000993
      dyz     :     0.007941
      dx2y2   :     0.008006
      dxy     :     0.008374


                      *****************************
                      * MAYER POPULATION ANALYSIS *
                      *****************************

  NA   - Mulliken gross atomic population
  ZA   - Total nuclear charge
  QA   - Mulliken gross atomic charge
  VA   - Mayer's total valence
  BVA  - Mayer's bonded valence
  FA   - Mayer's free valence

  ATOM       NA         ZA         QA         VA         BVA        FA
  0 C      6.2553     6.0000    -0.2553     3.9136     3.9136    -0.0000
  1 C      5.9718     6.0000     0.0282     3.8754     3.8754    -0.0000
  2 O      8.3587     8.0000    -0.3587     1.9868     1.9868     0.0000
  3 C      5.5483     6.0000     0.4517     4.2345     4.2345    -0.0000
  4 O      8.3833     8.0000    -0.3833     2.1211     2.1211    -0.0000
  5 C      6.2168     6.0000    -0.2168     3.5844     3.5844    -0.0000
  6 C      5.8591     6.0000     0.1409     3.8167     3.8167     0.0000
  7 C      6.2998     6.0000    -0.2998     3.8869     3.8869     0.0000
  8 N      7.1287     7.0000    -0.1287     3.2799     3.2799    -0.0000
  9 C      5.8028     6.0000     0.1972     4.1554     4.1554    -0.0000
 10 S     16.4367    16.0000    -0.4367     1.7577     1.7577    -0.0000
 11 N      7.2036     7.0000    -0.2036     3.2569     3.2569     0.0000
 12 C      5.9383     6.0000     0.0617     3.9518     3.9518    -0.0000
 13 C      5.9798     6.0000     0.0202     3.7337     3.7337     0.0000
 14 C      6.1678     6.0000    -0.1678     3.8649     3.8649    -0.0000
 15 C      6.1360     6.0000    -0.1360     3.8136     3.8136    -0.0000
 16 C      6.2764     6.0000    -0.2764     3.7889     3.7889    -0.0000
 17 C      5.6819     6.0000     0.3181     3.8690     3.8690     0.0000
 18 O      8.3590     8.0000    -0.3590     2.1157     2.1157    -0.0000
 19 C      6.2794     6.0000    -0.2794     3.8227     3.8227     0.0000
 20 H      0.8915     1.0000     0.1085     0.9870     0.9870     0.0000
 21 H      0.9031     1.0000     0.0969     0.9861     0.9861     0.0000
 22 H      0.9126     1.0000     0.0874     0.9814     0.9814    -0.0000
 23 H      0.9121     1.0000     0.0879     0.9674     0.9674    -0.0000
 24 H      0.8929     1.0000     0.1071     0.9635     0.9635    -0.0000
 25 H      0.8657     1.0000     0.1343     0.9825     0.9825     0.0000
 26 H      0.8840     1.0000     0.1160     0.9849     0.9849     0.0000
 27 H      0.8794     1.0000     0.1206     0.9724     0.9724    -0.0000
 28 H      0.8024     1.0000     0.1976     1.0218     1.0218     0.0000
 29 H      0.8048     1.0000     0.1952     1.0173     1.0173     0.0000
 30 H      0.8406     1.0000     0.1594     0.9955     0.9955    -0.0000
 31 H      0.8355     1.0000     0.1645     0.9864     0.9864     0.0000
 32 H      0.8373     1.0000     0.1627     0.9768     0.9768    -0.0000
 33 H      0.8677     1.0000     0.1323     0.9907     0.9907    -0.0000
 34 H      0.7586     1.0000     0.2414     1.0102     1.0102    -0.0000
 35 H      0.8288     1.0000     0.1712     0.9869     0.9869     0.0000

  Mayer bond orders larger than 0.100000
B(  0-C ,  1-C ) :   0.9882 B(  0-C , 20-H ) :   0.9769 B(  0-C , 21-H ) :   0.9798 
B(  0-C , 22-H ) :   0.9759 B(  1-C ,  2-O ) :   0.8867 B(  1-C , 23-H ) :   0.9748 
B(  1-C , 24-H ) :   0.9663 B(  2-O ,  3-C ) :   1.1256 B(  3-C ,  4-O ) :   2.0680 
B(  3-C ,  5-C ) :   0.9844 B(  5-C ,  6-C ) :   1.6611 B(  5-C , 12-C ) :   0.9586 
B(  6-C ,  7-C ) :   0.9497 B(  6-C ,  8-N ) :   1.1354 B(  7-C , 25-H ) :   0.9701 
B(  7-C , 26-H ) :   0.9838 B(  7-C , 27-H ) :   0.9652 B(  8-N ,  9-C ) :   1.1845 
B(  8-N , 28-H ) :   0.9504 B(  9-C , 10-S ) :   1.6147 B(  9-C , 11-N ) :   1.2963 
B( 11-N , 12-C ) :   0.9935 B( 11-N , 29-H ) :   0.9515 B( 12-C , 13-C ) :   0.9424 
B( 12-C , 30-H ) :   0.9982 B( 13-C , 14-C ) :   1.3855 B( 13-C , 19-C ) :   1.3551 
B( 14-C , 15-C ) :   1.3963 B( 14-C , 31-H ) :   0.9602 B( 15-C , 16-C ) :   1.3643 
B( 15-C , 32-H ) :   0.9705 B( 16-C , 17-C ) :   1.3297 B( 16-C , 33-H ) :   0.9843 
B( 17-C , 18-O ) :   1.1109 B( 17-C , 19-C ) :   1.3700 B( 18-O , 34-H ) :   0.9793 
B( 19-C , 35-H ) :   0.9596 

-------
TIMINGS
-------

Total SCF time: 0 days 1 hours 29 min 29 sec 

Total time                  ....    5369.053 sec
Sum of individual times     ....    5361.880 sec  ( 99.9%)

Fock matrix formation       ....    5343.262 sec  ( 99.5%)
Diagonalization             ....       1.443 sec  (  0.0%)
Density matrix formation    ....       0.180 sec  (  0.0%)
Population analysis         ....       0.359 sec  (  0.0%)
Initial guess               ....       5.151 sec  (  0.1%)
Orbital Transformation      ....       0.000 sec  (  0.0%)
Orbital Orthonormalization  ....       0.000 sec  (  0.0%)
DIIS solution               ....       7.723 sec  (  0.1%)
SOSCF solution              ....       2.446 sec  (  0.0%)

Maximum memory used throughout the entire SCF-calculation: 747.9 MB

------------------------------------------------------------------------------
                                ORCA  MP2 
------------------------------------------------------------------------------

Freezing NCore=48 chemical core electrons

-------------
RI-MP2 ENERGY
-------------
Dimension of the basis                    ...  828
Memory devoted to MP2                     ...  256 MB   
Data format for buffers                   ... DOUBLE
Compression type for matrix containers    ... UNCOMPRESSED
Overall scaling of the MP2 energy         ...   1.000e+00
Calculating two index integrals           ... done (    0.040 sec)
Cholesky decomposition of V**-1           ... done (    0.601 sec)

-----------------
RI-TRANSFORMATION (AUX index driven)
-----------------

Dimension of the orbital-basis         ... 828
Dimension of the aux-basis             ... 2141
Transformation of internal/external MOs...   24-  76 to   77- 827
Number Format for Storage              ... Double (8 Byte)
Integral mode                          ... Direct

First Phase: integral generation and transformation of MO indices
  Aux angular momentum 0               ... done (    4.595 sec)
  Aux angular momentum 1               ... done (    7.179 sec)
  Aux angular momentum 2               ... done (    8.892 sec)
  Aux angular momentum 3               ... done (    7.241 sec)
  Aux angular momentum 4               ... done (    2.396 sec)
Closing buffer VIA ( 0.63 GB; CompressionRatio= 1.00)
  Phase 1 completed in    30.516 sec
Second Phase: sorting and transformation of aux index

IA-Transformation
Memory available                       ... 157 MB 
Max. # MO pairs treated in a batch     ... 11    
# of internal orbitals                 ... 53
# batches for internal orbitals        ... 5
Closing buffer IAV ( 0.63 GB; CompressionRatio= 1.00)
(ia|v) transformation done in    24.317 sec

  Phase 2 completed in    24.337 sec
RI-Integral transformation completed in    54.863 sec
Opening buffers                              ... done

Starting loop over batches of integrals:

Operator 0  - window                       ... ( 24- 76)x( 77-827)
Operator 0  - Memory available             ...   256 MB
Operator 0  - Memory needed per MO         ...  12.3 MB
Operator 0  - Number of orbitals per batch ... 13
Operator 0  - Number of batches            ... 5

OPERATOR  0   PASS   0:  MOs    24 ...   36
  Reading integrals       ... ok
  Internal MO  26
  Internal MO  29
  Internal MO  32
  Internal MO  35
OPERATOR  0   PASS   1:  MOs    37 ...   49
  Reading integrals       ... ok
  Internal MO  38
  Internal MO  41
  Internal MO  44
  Internal MO  47
OPERATOR  0   PASS   2:  MOs    50 ...   62
  Reading integrals       ... ok
  Internal MO  50
  Internal MO  53
  Internal MO  56
  Internal MO  59
  Internal MO  62
OPERATOR  0   PASS   3:  MOs    63 ...   75
  Reading integrals       ... ok
  Internal MO  65
  Internal MO  68
  Internal MO  71
  Internal MO  74
OPERATOR  0   PASS   4:  MOs    76 ...   76
  Reading integrals       ... ok
Time spent in pair loops =   100.076 sec
Deleting buffer (Ka|jb)[aa] ...done

-----------------------------------------------
 RI-MP2 CORRELATION ENERGY:     -3.534850070 Eh
-----------------------------------------------


-------
TIMINGS
-------

Total time                :  156.241 sec
Integral trafo            :   54.881 sec ( 35.1%)
I/O of integrals          :    1.386 sec (  0.9%)
K(i,j) Operators          :   77.938 sec ( 49.9%)
T(i,j) pair energies      :    3.052 sec (  2.0%)
V-calculation             :    0.040 sec (  0.0%)
V**(-1/2)                 :    0.601 sec (  0.4%)
Gamma(ia|P)               :    0.000 sec (  0.0%)
Gamma-Trafo               :    0.000 sec (  0.0%)
D(virtual)                :    0.000 sec (  0.0%)
D(internal)               :    0.000 sec (  0.0%)
W(virtual)                :    0.000 sec (  0.0%)
W(internal)               :    0.000 sec (  0.0%)
L(virtual)                :    0.000 sec (  0.0%)
L(internal)               :    0.000 sec (  0.0%)
G(D)                      :    0.000 sec (  0.0%)
G(Z)                      :    0.000 sec (  0.0%)
Z-Vector Solution         :    0.000 sec (  0.0%)
3-Index Derivative        :    0.000 sec (  0.0%)
2-Index Derivative        :    0.000 sec (  0.0%)
Separable Gradient        :    0.000 sec (  0.0%)


---------------------------------------
MP2 TOTAL ENERGY:    -1274.328322557 Eh
---------------------------------------

Maximum memory used throughout the entire MP2-calculation: 305.2 MB

-------------------------   --------------------
FINAL SINGLE POINT ENERGY     -1274.328322556951
-------------------------   --------------------


                            ***************************************
                            *     ORCA property calculations      *
                            ***************************************


  WARNING: The energy has been calculated at the MP2 level but the densities
           used in the property calculations are still SCF densities
           MP2 response densities have not been calculated 
           use %mp2 Density relaxed end
           or  %mp2 Density unrelaxed end

                                    ---------------------
                                    Active property flags
                                    ---------------------
   (+) Dipole Moment


------------------------------------------------------------------------------
                       ORCA ELECTRIC PROPERTIES CALCULATION
------------------------------------------------------------------------------

Dipole Moment Calculation                       ... on
Quadrupole Moment Calculation                   ... off
Polarizability Calculation                      ... off
GBWName                                         ... CONFS/Conf135.orca.gbw
Electron density file                           ... CONFS/Conf135.orca.scfp
The origin for moment calculation is the CENTER OF MASS  = (32.865991, 31.474200 35.261667)

-------------
DIPOLE MOMENT
-------------
                                X             Y             Z
Electronic contribution:     10.92112       9.32371       7.24291
Nuclear contribution   :    -12.33600     -10.32534      -7.60664
                        -----------------------------------------
Total Dipole Moment    :     -1.41488      -1.00163      -0.36372
                        -----------------------------------------
Magnitude (a.u.)       :      1.77128
Magnitude (Debye)      :      4.50224



--------------------
Rotational spectrum 
--------------------
 
Rotational constants in cm-1:     0.011662     0.009247     0.006625 
Rotational constants in MHz :   349.630987   277.208758   198.608214 

 Dipole components along the rotational axes: 
x,y,z [a.u.] :    -1.454037     0.394811     0.931312 
x,y,z [Debye]:    -3.695869     1.003529     2.367207 

 

Timings for individual modules:

Sum of individual times         ...     5530.020 sec (=  92.167 min)
GTO integral calculation        ...        3.357 sec (=   0.056 min)   0.1 %
SCF iterations                  ...     5369.198 sec (=  89.487 min)  97.1 %
MP2 module                      ...      157.466 sec (=   2.624 min)   2.8 %
                             ****ORCA TERMINATED NORMALLY****
TOTAL RUN TIME: 0 days 1 hours 32 minutes 11 seconds 649 msec
