
                                        *****************
                                        * O   R   C   A *
                                        *****************

                                            #,                                       
                                            ###                                      
                                            ####                                     
                                            #####                                    
                                            ######                                   
                                           ########,                                 
                                     ,,################,,,,,                         
                               ,,#################################,,                 
                          ,,##########################################,,             
                       ,#########################################, ''#####,          
                    ,#############################################,,   '####,        
                  ,##################################################,,,,####,       
                ,###########''''           ''''###############################       
              ,#####''   ,,,,##########,,,,          '''####'''          '####       
            ,##' ,,,,###########################,,,                        '##       
           ' ,,###''''                  '''############,,,                           
         ,,##''                                '''############,,,,        ,,,,,,###''
      ,#''                                            '''#######################'''  
     '                                                          ''''####''''         
             ,#######,   #######,   ,#######,      ##                                
            ,#'     '#,  ##    ##  ,#'     '#,    #''#        ######   ,####,        
            ##       ##  ##   ,#'  ##            #'  '#       #        #'  '#        
            ##       ##  #######   ##           ,######,      #####,   #    #        
            '#,     ,#'  ##    ##  '#,     ,#' ,#      #,         ##   #,  ,#        
             '#######'   ##     ##  '#######'  #'      '#     #####' # '####'        



                  #######################################################
                  #                        -***-                        #
                  #          Department of theory and spectroscopy      #
                  #    Directorship and core code : Frank Neese         #
                  #        Max Planck Institute fuer Kohlenforschung    #
                  #                Kaiser Wilhelm Platz 1               #
                  #                 D-45470 Muelheim/Ruhr               #
                  #                      Germany                        #
                  #                                                     #
                  #                  All rights reserved                #
                  #                        -***-                        #
                  #######################################################


                         Program Version 5.0.0 -  RELEASE  -
                                (SVN: $Rev: 19529$)
                ($Date: 2021-06-28 11:36:33 +0200 (Mo, 28 Jun 2021) $)


 With contributions from (in alphabetic order):
   Daniel Aravena         : Magnetic Suceptibility
   Michael Atanasov       : Ab Initio Ligand Field Theory (pilot matlab implementation)
   Alexander A. Auer      : GIAO ZORA, VPT2 properties, NMR spectrum
   Ute Becker             : Parallelization
   Giovanni Bistoni       : ED, misc. LED, open-shell LED, HFLD
   Martin Brehm           : Molecular dynamics
   Dmytro Bykov           : SCF Hessian
   Vijay G. Chilkuri      : MRCI spin determinant printing, contributions to CSF-ICE
   Dipayan Datta          : RHF DLPNO-CCSD density
   Achintya Kumar Dutta   : EOM-CC, STEOM-CC
   Dmitry Ganyushin       : Spin-Orbit,Spin-Spin,Magnetic field MRCI
   Miquel Garcia          : C-PCM Hessian, Gaussian charge scheme
   Yang Guo               : DLPNO-NEVPT2, F12-NEVPT2, CIM, IAO-localization
   Andreas Hansen         : Spin unrestricted coupled pair/coupled cluster methods
   Benjamin Helmich-Paris : MC-RPA, TRAH-SCF, COSX integrals
   Lee Huntington         : MR-EOM, pCC
   Robert Izsak           : Overlap fitted RIJCOSX, COSX-SCS-MP3, EOM
   Marcus Kettner         : VPT2
   Christian Kollmar      : KDIIS, OOCD, Brueckner-CCSD(T), CCSD density, CASPT2, CASPT2-K
   Simone Kossmann        : Meta GGA functionals, TD-DFT gradient, OOMP2, MP2 Hessian
   Martin Krupicka        : Initial AUTO-CI
   Lucas Lang             : DCDCAS
   Marvin Lechner         : AUTO-CI (C++ implementation), FIC-MRCC
   Dagmar Lenk            : GEPOL surface, SMD
   Dimitrios Liakos       : Extrapolation schemes; Compound Job, initial MDCI parallelization
   Dimitrios Manganas     : Further ROCIS development; embedding schemes
   Dimitrios Pantazis     : SARC Basis sets
   Anastasios Papadopoulos: AUTO-CI, single reference methods and gradients
   Taras Petrenko         : DFT Hessian,TD-DFT gradient, ASA, ECA, R-Raman, ABS, FL, XAS/XES, NRVS
   Peter Pinski           : DLPNO-MP2, DLPNO-MP2 Gradient
   Christoph Reimann      : Effective Core Potentials
   Marius Retegan         : Local ZFS, SOC
   Christoph Riplinger    : Optimizer, TS searches, QM/MM, DLPNO-CCSD(T), (RO)-DLPNO pert. Triples
   Tobias Risthaus        : Range-separated hybrids, TD-DFT gradient, RPA, STAB
   Michael Roemelt        : Original ROCIS implementation
   Masaaki Saitow         : Open-shell DLPNO-CCSD energy and density
   Barbara Sandhoefer     : DKH picture change effects
   Avijit Sen             : IP-ROCIS
   Kantharuban Sivalingam : CASSCF convergence, NEVPT2, FIC-MRCI
   Bernardo de Souza      : ESD, SOC TD-DFT
   Georgi Stoychev        : AutoAux, RI-MP2 NMR
   Willem Van den Heuvel  : Paramagnetic NMR
   Boris Wezisla          : Elementary symmetry handling
   Frank Wennmohs         : Technical directorship


 We gratefully acknowledge several colleagues who have allowed us to
 interface, adapt or use parts of their codes:
   Stefan Grimme, W. Hujo, H. Kruse, P. Pracht,  : VdW corrections, initial TS optimization,
                  C. Bannwarth, S. Ehlert          DFT functionals, gCP, sTDA/sTD-DF
   Ed Valeev, F. Pavosevic, A. Kumar             : LibInt (2-el integral package), F12 methods
   Garnet Chan, S. Sharma, J. Yang, R. Olivares  : DMRG
   Ulf Ekstrom                                   : XCFun DFT Library
   Mihaly Kallay                                 : mrcc  (arbitrary order and MRCC methods)
   Jiri Pittner, Ondrej Demel                    : Mk-CCSD
   Frank Weinhold                                : gennbo (NPA and NBO analysis)
   Christopher J. Cramer and Donald G. Truhlar   : smd solvation model
   Lars Goerigk                                  : TD-DFT with DH, B97 family of functionals
   V. Asgeirsson, H. Jonsson                     : NEB implementation
   FAccTs GmbH                                   : IRC, NEB, NEB-TS, DLPNO-Multilevel, CI-OPT
                                                   MM, QMMM, 2- and 3-layer-ONIOM, Crystal-QMMM,
                                                   LR-CPCM, SF, NACMEs, symmetry and pop. for TD-DFT,
                                                   nearIR, NL-DFT gradient (VV10), updates on ESD,
                                                   ML-optimized integration grids
   S Lehtola, MJT Oliveira, MAL Marques          : LibXC Library
   Liviu Ungur et al                             : ANISO software


 Your calculation uses the libint2 library for the computation of 2-el integrals
 For citations please refer to: http://libint.valeyev.net

 Your ORCA version has been built with support for libXC version: 5.1.0
 For citations please refer to: https://tddft.org/programs/libxc/

 This ORCA versions uses:
   CBLAS   interface :  Fast vector & matrix operations
   LAPACKE interface :  Fast linear algebra routines
   SCALAPACK package :  Parallel linear algebra routines
   Shared memory     :  Shared parallel matrices
   BLAS/LAPACK       :  OpenBLAS 0.3.15  USE64BITINT DYNAMIC_ARCH NO_AFFINITY SkylakeX SINGLE_THREADED
        Core in use  :  SkylakeX
   Copyright (c) 2011-2014, The OpenBLAS Project


================================================================================

----- Orbital basis set information -----
Your calculation utilizes the basis: cc-pVTZ 
       H, B-Ne : Obtained from the ccRepo (grant-hill.group.shef.ac.uk/ccrepo) Feb. 2017
                 T. H. Dunning, Jr., J. Chem. Phys. 90, 1007 (1989)
            He : Obtained from the ccRepo (grant-hill.group.shef.ac.uk/ccrepo) Feb. 2017
                 D. E. Woon, T. H. Dunning, Jr., J. Chem. Phys. 100, 2975 (1994)
  Li-Be, Na-Mg : Obtained from the ccRepo (grant-hill.group.shef.ac.uk/ccrepo) Feb. 2017
                 B. P. Prascher, D. E. Woon, K. A. Peterson, T. H. Dunning, Jr., A. K. Wilson, Theor. Chem. Acc. 128, 69 (2011)
         Al-Ar : Obtained from the ccRepo (grant-hill.group.shef.ac.uk/ccrepo) Feb. 2017
                 D. E. Woon, T. H. Dunning, Jr., J. Chem. Phys. 98, 1358 (1993)
            Ca : Obtained from the Peterson Research Group Website (tyr0.chem.wsu.edu/~kipeters) Feb. 2017
                 J. Koput, K. A. Peterson, J. Phys. Chem. 106, 9595 (2002)
         Sc-Zn : Obtained from the ccRepo (grant-hill.group.shef.ac.uk/ccrepo) Feb. 2017
                 N. B. Balabanov, K. A. Peterson, J. Chem. Phys. 123, 064107 (2005)
                 N. B. Balabanov, K. A. Peterson, J. Chem. Phys. 125, 074110 (2006)
         Ga-Kr : Obtained from the ccRepo (grant-hill.group.shef.ac.uk/ccrepo) Feb. 2017
                 A. K. Wilson, D. E. Woon, K. A. Peterson, T. H. Dunning, Jr., J. Chem. Phys. 110, 7667 (1999)
             Y : Obtained from the ccRepo (grant-hill.group.shef.ac.uk/ccrepo) Feb. 2017
                 K. A. Peterson, D. Figgen, M. Dolg, H. Stoll, J. Chem. Phys. 126, 124101 (2007)
        Ag, Au : Obtained from the Peterson Research Group Website (tyr0.chem.wsu.edu/~kipeters) Feb. 2017
                 K. A. Peterson, C. Puzzarini, Theor. Chem. Acc. 114, 283 (2005)

----- AuxC basis set information -----
Your calculation utilizes the auxiliary basis: cc-pVTZ/C 
  Obtained from the EMSL Basis Set Exchange (bse.pnl.gov) Feb. 2017
  H-He, B-F, Al-Ar, Ga-Kr : F. Weigend, A. Kohn, C. Hattig, J. Chem. Phys. 116, 3175 (2002)
             Li-Be, Na-Mg : C. Haettig, Phys. Chem. Chem. Phys. 7, 59 (2005)
                       Ne : C. Haettig, Phys. Chem. Chem. Phys. 7, 59 (2005)
                            F. Weigend, A. Kohn, C. Hattig, J. Chem. Phys. 116, 3175 (2002)
                    Sc-Zn : J. G. Hill, J. A. Platts, J. Chem. Phys. 128, 044104 (2008)

================================================================================
                                        WARNINGS
                       Please study these warnings very carefully!
================================================================================


WARNING: No MP2 level density has been requested!
         To caclulate MP2 level properties use
         %mp2 Density relaxed end
         or
         %mp2 Density unrelaxed end

WARNING: Post HF methods need fully converged wavefunctions
  ===> : Setting SCFConvForced true
         You can overwrite this default with %scf ConvForced false 


INFO   : the flag for use of the SHARK integral package has been found!

================================================================================
                                       INPUT FILE
================================================================================
NAME = CONFS/Conf430.orca
|  1> ! ri-mp2 cc-pvtz cc-pvtz/c TightSCF NoKeepInts
|  2> 
|  3> %scf
|  4>   MaxCore 4096
|  5> end
|  6> *xyz  0  1
|  7>     C       15.0630697   14.3564323   16.9152173
|  8>     C       16.4666132   13.9437929   16.4147480
|  9>     O       17.4346112   15.0169101   16.4835036
| 10>     C       17.0962458   16.3328464   16.3283914
| 11>     O       16.3158547   16.7027033   15.4682724
| 12>     C       17.7137597   17.2243900   17.3704800
| 13>     C       17.5431102   18.5709199   17.3687875
| 14>     C       16.7413226   19.3921456   16.3818394
| 15>     N       18.1740365   19.3589090   18.3361134
| 16>     C       19.0704817   18.8953297   19.2615845
| 17>     S       19.8498137   19.9099390   20.3099252
| 18>     N       19.2930889   17.5420750   19.2735164
| 19>     C       18.5522830   16.5522822   18.4703577
| 20>     C       17.6980396   15.6828128   19.3882950
| 21>     C       18.0085814   14.3225606   19.5741553
| 22>     C       17.2181854   13.5165546   20.4106271
| 23>     C       16.1110218   14.0760565   21.0709356
| 24>     C       15.8040940   15.4322948   20.8951215
| 25>     O       14.7358400   15.9754364   21.5309971
| 26>     C       16.5917112   16.2315610   20.0609672
| 27>     H       15.1224491   14.8392623   17.8980805
| 28>     H       14.4245884   13.4706234   17.0150298
| 29>     H       14.5666626   15.0393205   16.2152356
| 30>     H       16.8318224   13.0949001   17.0067532
| 31>     H       16.3764205   13.6082869   15.3732682
| 32>     H       17.1064010   19.2313966   15.3594042
| 33>     H       16.7858132   20.4688878   16.5828439
| 34>     H       15.6851351   19.0943109   16.4019593
| 35>     H       18.0248746   20.3553142   18.3401053
| 36>     H       19.9325071   17.2264113   19.9913798
| 37>     H       19.2956537   15.9109031   17.9762703
| 38>     H       18.8619837   13.8869033   19.0613052
| 39>     H       17.4651985   12.4650224   20.5465516
| 40>     H       15.4978964   13.4579702   21.7186132
| 41>     H       14.3472605   15.2863639   22.0906045
| 42>     H       16.3405688   17.2801709   19.9427598
| 43> *
| 44> 
| 45>                          ****END OF INPUT****
================================================================================

                       ****************************
                       * Single Point Calculation *
                       ****************************

---------------------------------
CARTESIAN COORDINATES (ANGSTROEM)
---------------------------------
  C     15.063070   14.356432   16.915217
  C     16.466613   13.943793   16.414748
  O     17.434611   15.016910   16.483504
  C     17.096246   16.332846   16.328391
  O     16.315855   16.702703   15.468272
  C     17.713760   17.224390   17.370480
  C     17.543110   18.570920   17.368787
  C     16.741323   19.392146   16.381839
  N     18.174036   19.358909   18.336113
  C     19.070482   18.895330   19.261584
  S     19.849814   19.909939   20.309925
  N     19.293089   17.542075   19.273516
  C     18.552283   16.552282   18.470358
  C     17.698040   15.682813   19.388295
  C     18.008581   14.322561   19.574155
  C     17.218185   13.516555   20.410627
  C     16.111022   14.076056   21.070936
  C     15.804094   15.432295   20.895121
  O     14.735840   15.975436   21.530997
  C     16.591711   16.231561   20.060967
  H     15.122449   14.839262   17.898080
  H     14.424588   13.470623   17.015030
  H     14.566663   15.039321   16.215236
  H     16.831822   13.094900   17.006753
  H     16.376420   13.608287   15.373268
  H     17.106401   19.231397   15.359404
  H     16.785813   20.468888   16.582844
  H     15.685135   19.094311   16.401959
  H     18.024875   20.355314   18.340105
  H     19.932507   17.226411   19.991380
  H     19.295654   15.910903   17.976270
  H     18.861984   13.886903   19.061305
  H     17.465198   12.465022   20.546552
  H     15.497896   13.457970   21.718613
  H     14.347261   15.286364   22.090604
  H     16.340569   17.280171   19.942760

----------------------------
CARTESIAN COORDINATES (A.U.)
----------------------------
  NO LB      ZA    FRAG     MASS         X           Y           Z
   0 C     6.0000    0    12.011   28.465076   27.129725   31.965128
   1 C     6.0000    0    12.011   31.117389   26.349950   31.019378
   2 O     8.0000    0    15.999   32.946640   28.377847   31.149308
   3 C     6.0000    0    12.011   32.307222   30.864607   30.856188
   4 O     8.0000    0    15.999   30.832497   31.563535   29.230799
   5 C     6.0000    0    12.011   33.474155   32.549380   32.825450
   6 C     6.0000    0    12.011   33.151674   35.093953   32.822252
   7 C     6.0000    0    12.011   31.636515   36.645844   30.957190
   8 N     7.0000    0    14.007   34.343952   36.583036   34.650233
   9 C     6.0000    0    12.011   36.037988   35.706998   36.399120
  10 S    16.0000    0    32.060   37.510712   37.624332   38.380196
  11 N     7.0000    0    14.007   36.458654   33.149718   36.421668
  12 C     6.0000    0    12.011   35.058734   31.279280   34.903918
  13 C     6.0000    0    12.011   33.444448   29.636221   36.638568
  14 C     6.0000    0    12.011   34.031287   27.065717   36.989793
  15 C     6.0000    0    12.011   32.537655   25.542586   38.570495
  16 C     6.0000    0    12.011   30.445419   26.599892   39.818298
  17 C     6.0000    0    12.011   29.865409   29.162811   39.486057
  18 O     8.0000    0    15.999   27.846702   30.189200   40.687688
  19 C     6.0000    0    12.011   31.353790   30.673205   37.909734
  20 H     1.0000    0     1.008   28.577287   28.042142   33.822470
  21 H     1.0000    0     1.008   27.258522   25.455789   32.153746
  22 H     1.0000    0     1.008   27.527003   28.420197   30.642354
  23 H     1.0000    0     1.008   31.807535   24.745775   32.138106
  24 H     1.0000    0     1.008   30.946950   25.715935   29.051267
  25 H     1.0000    0     1.008   32.326413   36.342073   29.025068
  26 H     1.0000    0     1.008   31.720590   38.680592   31.337033
  27 H     1.0000    0     1.008   29.640610   36.083018   30.995211
  28 H     1.0000    0     1.008   34.062077   38.465969   34.657776
  29 H     1.0000    0     1.008   37.666980   32.553200   37.778233
  30 H     1.0000    0     1.008   36.463501   30.067249   33.970228
  31 H     1.0000    0     1.008   35.643984   26.242444   36.020647
  32 H     1.0000    0     1.008   33.004442   23.555479   38.827356
  33 H     1.0000    0     1.008   29.286780   25.431878   41.042231
  34 H     1.0000    0     1.008   27.112393   28.887041   41.745193
  35 H     1.0000    0     1.008   30.879200   32.654791   37.686354

--------------------------------
INTERNAL COORDINATES (ANGSTROEM)
--------------------------------
 C      0   0   0     0.000000000000     0.00000000     0.00000000
 C      1   0   0     1.546180827415     0.00000000     0.00000000
 O      2   1   0     1.446833779489   113.20369188     0.00000000
 C      3   2   1     1.367566921274   122.87255928   328.54962180
 O      4   3   2     1.218855647564   122.03549942   317.47827084
 C      4   3   2     1.504035258112   112.96810514   133.82479199
 C      6   4   3     1.357301325425   122.38323324   177.62137688
 C      7   6   4     1.513717793364   127.27384241     0.28405972
 N      7   6   4     1.398110945012   120.10176750   182.03574519
 C      9   7   6     1.369312426339   124.90666059     5.66934607
 S     10   9   7     1.654027998901   121.94874986   175.88696498
 N     10   9   7     1.371493572279   116.49924095   356.04047388
 C     12  10   9     1.474295447253   125.17958902   353.60529349
 C     13  12  10     1.525882600566   109.64167649   248.43506855
 C     14  13  12     1.407574619076   120.43623659   248.64285727
 C     15  14  13     1.405011238762   120.58914325   180.48828782
 C     16  15  14     1.405297451944   119.63997019   359.75645070
 C     17  16  15     1.401605364772   119.92309150   359.81966904
 O     18  17  16     1.356652934557   120.06837107   179.99085183
 C     18  17  16     1.398206246734   120.30576629     0.24798379
 H      1   2   3     1.096663481638   111.00444906   309.57036750
 H      1   2   3     1.096484524708   110.02594339   190.33553729
 H      1   2   3     1.096690787307   111.74448896    71.23425146
 H      2   1   3     1.097482073878   109.50553099   121.83488277
 H      2   1   3     1.097897614979   108.30230868   238.92365328
 H      8   7   6     1.097495429306   110.59447272   302.38739431
 H      8   7   6     1.096246317106   113.06802820   181.74136605
 H      8   7   6     1.097562004652   110.52050879    61.06751524
 H      9   7   6     1.007516019855   119.55939150   181.39388511
 H     12  10   9     1.011843400457   114.61770219   182.26713644
 H     13  12  10     1.099131250749   107.26631077   130.86054894
 H     15  14  13     1.086787924923   119.88912238     0.00000000
 H     16  15  14     1.088673922214   120.05194117   179.87825900
 H     17  16  15     1.085098937385   119.92337886   180.04620613
 H     19  18  17     0.969007420101   107.56254900     3.06753443
 H     20  18  17     1.084724949870   119.15655346   180.34246135

---------------------------
INTERNAL COORDINATES (A.U.)
---------------------------
 C      0   0   0     0.000000000000     0.00000000     0.00000000
 C      1   0   0     2.921858317335     0.00000000     0.00000000
 O      2   1   0     2.734119604541   113.20369188     0.00000000
 C      3   2   1     2.584326951018   122.87255928   328.54962180
 O      4   3   2     2.303303370679   122.03549942   317.47827084
 C      4   3   2     2.842214733593   112.96810514   133.82479199
 C      6   4   3     2.564927786262   122.38323324   177.62137688
 C      7   6   4     2.860512073502   127.27384241     0.28405972
 N      7   6   4     2.642046790910   120.10176750   182.03574519
 C      9   7   6     2.587625477556   124.90666059     5.66934607
 S     10   9   7     3.125659935760   121.94874986   175.88696498
 N     10   9   7     2.591747246040   116.49924095   356.04047388
 C     12  10   9     2.786014635796   125.17958902   353.60529349
 C     13  12  10     2.883500227586   109.64167649   248.43506855
 C     14  13  12     2.659930543113   120.43623659   248.64285727
 C     15  14  13     2.655086456341   120.58914325   180.48828782
 C     16  15  14     2.655627320872   119.63997019   359.75645070
 C     17  16  15     2.648650287254   119.92309150   359.81966904
 O     18  17  16     2.563702505093   120.06837107   179.99085183
 C     18  17  16     2.642226885066   120.30576629     0.24798379
 H      1   2   3     2.072393641369   111.00444906   309.57036750
 H      1   2   3     2.072055461782   110.02594339   190.33553729
 H      1   2   3     2.072445241605   111.74448896    71.23425146
 H      2   1   3     2.073940556517   109.50553099   121.83488277
 H      2   1   3     2.074725815396   108.30230868   238.92365328
 H      8   7   6     2.073965794618   110.59447272   302.38739431
 H      8   7   6     2.071605314651   113.06802820   181.74136605
 H      8   7   6     2.074091603790   110.52050879    61.06751524
 H      9   7   6     1.903929353064   119.55939150   181.39388511
 H     12  10   9     1.912106917279   114.61770219   182.26713644
 H     13  12  10     2.077057049151   107.26631077   130.86054894
 H     15  14  13     2.053731543757   119.88912238     0.00000000
 H     16  15  14     2.057295562126   120.05194117   179.87825900
 H     17  16  15     2.050539819867   119.92337886   180.04620613
 H     19  18  17     1.831158645729   107.56254900     3.06753443
 H     20  18  17     2.049833085886   119.15655346   180.34246135

---------------------
BASIS SET INFORMATION
---------------------
There are 5 groups of distinct atoms

 Group   1 Type C   : 18s5p2d1f contracted to 4s3p2d1f pattern {8811/311/11/1}
 Group   2 Type O   : 18s5p2d1f contracted to 4s3p2d1f pattern {8811/311/11/1}
 Group   3 Type N   : 18s5p2d1f contracted to 4s3p2d1f pattern {8811/311/11/1}
 Group   4 Type S   : 41s16p2d1f contracted to 5s4p2d1f pattern {13131311/7711/11/1}
 Group   5 Type H   : 5s2p1d contracted to 3s2p1d pattern {311/11/1}

Atom   0C    basis set group =>   1
Atom   1C    basis set group =>   1
Atom   2O    basis set group =>   2
Atom   3C    basis set group =>   1
Atom   4O    basis set group =>   2
Atom   5C    basis set group =>   1
Atom   6C    basis set group =>   1
Atom   7C    basis set group =>   1
Atom   8N    basis set group =>   3
Atom   9C    basis set group =>   1
Atom  10S    basis set group =>   4
Atom  11N    basis set group =>   3
Atom  12C    basis set group =>   1
Atom  13C    basis set group =>   1
Atom  14C    basis set group =>   1
Atom  15C    basis set group =>   1
Atom  16C    basis set group =>   1
Atom  17C    basis set group =>   1
Atom  18O    basis set group =>   2
Atom  19C    basis set group =>   1
Atom  20H    basis set group =>   5
Atom  21H    basis set group =>   5
Atom  22H    basis set group =>   5
Atom  23H    basis set group =>   5
Atom  24H    basis set group =>   5
Atom  25H    basis set group =>   5
Atom  26H    basis set group =>   5
Atom  27H    basis set group =>   5
Atom  28H    basis set group =>   5
Atom  29H    basis set group =>   5
Atom  30H    basis set group =>   5
Atom  31H    basis set group =>   5
Atom  32H    basis set group =>   5
Atom  33H    basis set group =>   5
Atom  34H    basis set group =>   5
Atom  35H    basis set group =>   5
---------------------------------
AUXILIARY/C BASIS SET INFORMATION
---------------------------------
There are 5 groups of distinct atoms

 Group   1 Type C   : 8s6p5d3f1g contracted to 8s6p5d3f1g pattern {11111111/111111/11111/111/1}
 Group   2 Type O   : 8s6p5d3f1g contracted to 8s6p5d3f1g pattern {11111111/111111/11111/111/1}
 Group   3 Type N   : 8s6p5d3f1g contracted to 8s6p5d3f1g pattern {11111111/111111/11111/111/1}
 Group   4 Type S   : 10s8p7d5f2g contracted to 10s8p7d5f2g pattern {1111111111/11111111/1111111/11111/11}
 Group   5 Type H   : 4s3p2d1f contracted to 4s3p2d1f pattern {1111/111/11/1}

Atom   0C    basis set group =>   1
Atom   1C    basis set group =>   1
Atom   2O    basis set group =>   2
Atom   3C    basis set group =>   1
Atom   4O    basis set group =>   2
Atom   5C    basis set group =>   1
Atom   6C    basis set group =>   1
Atom   7C    basis set group =>   1
Atom   8N    basis set group =>   3
Atom   9C    basis set group =>   1
Atom  10S    basis set group =>   4
Atom  11N    basis set group =>   3
Atom  12C    basis set group =>   1
Atom  13C    basis set group =>   1
Atom  14C    basis set group =>   1
Atom  15C    basis set group =>   1
Atom  16C    basis set group =>   1
Atom  17C    basis set group =>   1
Atom  18O    basis set group =>   2
Atom  19C    basis set group =>   1
Atom  20H    basis set group =>   5
Atom  21H    basis set group =>   5
Atom  22H    basis set group =>   5
Atom  23H    basis set group =>   5
Atom  24H    basis set group =>   5
Atom  25H    basis set group =>   5
Atom  26H    basis set group =>   5
Atom  27H    basis set group =>   5
Atom  28H    basis set group =>   5
Atom  29H    basis set group =>   5
Atom  30H    basis set group =>   5
Atom  31H    basis set group =>   5
Atom  32H    basis set group =>   5
Atom  33H    basis set group =>   5
Atom  34H    basis set group =>   5
Atom  35H    basis set group =>   5
------------------------------------------------------------------------------
                           ORCA GTO INTEGRAL CALCULATION
------------------------------------------------------------------------------
------------------------------------------------------------------------------
                   ___                                                        
                  /   \      - P O W E R E D   B Y -                         
                 /     \                                                     
                 |  |  |   _    _      __       _____    __    __             
                 |  |  |  | |  | |    /  \     |  _  \  |  |  /  |          
                  \  \/   | |  | |   /    \    | | | |  |  | /  /          
                 / \  \   | |__| |  /  /\  \   | |_| |  |  |/  /          
                |  |  |   |  __  | /  /__\  \  |    /   |      \           
                |  |  |   | |  | | |   __   |  |    \   |  |\   \          
                \     /   | |  | | |  |  |  |  | |\  \  |  | \   \       
                 \___/    |_|  |_| |__|  |__|  |_| \__\ |__|  \__/        
                                                                              
                      - O R C A' S   B I G   F R I E N D -                    
                                      &                                       
                       - I N T E G R A L  F E E D E R -                       
                                                                              
 v1 FN, 2020, v2 2021                                                         
------------------------------------------------------------------------------


Reading SHARK input file CONFS/Conf430.orca.SHARKINP.tmp ... ok
----------------------
SHARK INTEGRAL PACKAGE
----------------------

Number of atoms                             ...     36
Number of basis functions                   ...    828
Number of shells                            ...    298
Maximum angular momentum                    ...      3
Integral batch strategy                     ... SHARK/LIBINT Hybrid
RI-J (if used) integral strategy            ... SPLIT-RIJ (Revised 2003 algorithm where possible)
Printlevel                                  ...      1
Contraction scheme used                     ... SEGMENTED contraction
Coulomb Range Separation                    ... NOT USED
Exchange Range Separation                   ... NOT USED
Finite Nucleus Model                        ... NOT USED
Auxiliary Coulomb fitting basis             ... NOT available
Auxiliary J/K fitting basis                 ... NOT available
Auxiliary Correlation fitting basis         ... AVAILABLE
   # of basis functions in Aux-C            ...   2141
   # of shells in Aux-C                     ...    629
   Maximum angular momentum in Aux-C        ...      4
Auxiliary 'external' fitting basis          ... NOT available
Integral threshold                          ...     2.500000e-11
Primitive cut-off                           ...     2.500000e-12
Primitive pair pre-selection threshold      ...     2.500000e-12

Calculating pre-screening integrals         ... done (  0.6 sec) Dimension = 298
Organizing shell pair data                  ... done (  1.3 sec)
Shell pair information
Total number of shell pairs                 ...     44551
Shell pairs after pre-screening             ...     34172
Total number of primitive shell pairs       ...    234348
Primitive shell pairs kept                  ...     97934
          la=0 lb=0:   6796 shell pairs
          la=1 lb=0:   9481 shell pairs
          la=1 lb=1:   3354 shell pairs
          la=2 lb=0:   5470 shell pairs
          la=2 lb=1:   3757 shell pairs
          la=2 lb=2:   1067 shell pairs
          la=3 lb=0:   1971 shell pairs
          la=3 lb=1:   1354 shell pairs
          la=3 lb=2:    769 shell pairs
          la=3 lb=3:    153 shell pairs

Calculating one electron integrals          ... done (  0.4 sec)
Calculating RI/C V-Matrix + Cholesky decomp.... done (  0.8 sec)
Calculating Nuclear repulsion               ... done (  0.1 sec) ENN=   1725.008442108635 Eh

SHARK setup successfully completed in   3.6 seconds

Maximum memory used throughout the entire GTOINT-calculation: 509.1 MB
-------------------------------------------------------------------------------
                                 ORCA SCF
-------------------------------------------------------------------------------

------------
SCF SETTINGS
------------
Hamiltonian:
 Ab initio Hamiltonian  Method          .... Hartree-Fock(GTOs)


General Settings:
 Integral files         IntName         .... CONFS/Conf430.orca
 Hartree-Fock type      HFTyp           .... RHF
 Total Charge           Charge          ....    0
 Multiplicity           Mult            ....    1
 Number of Electrons    NEL             ....  154
 Basis Dimension        Dim             ....  828
 Nuclear Repulsion      ENuc            ....   1725.0084421086 Eh

Convergence Acceleration:
 DIIS                   CNVDIIS         .... on
   Start iteration      DIISMaxIt       ....    12
   Startup error        DIISStart       ....  0.200000
   # of expansion vecs  DIISMaxEq       ....     5
   Bias factor          DIISBfac        ....   1.050
   Max. coefficient     DIISMaxC        ....  10.000
 Trust-Rad. Augm. Hess. CNVTRAH         .... auto
   Auto Start mean grad. ratio tolernc. ....  1.125000
   Auto Start start iteration           ....    20
   Auto Start num. interpolation iter.  ....    10
   Max. Number of Micro iterations      ....    16
   Max. Number of Macro iterations      .... Maxiter - #DIIS iter
   Number of Davidson start vectors     ....     2
   Converg. threshold I  (grad. norm)   ....   1.000e-05
   Converg. threshold II (energy diff.) ....   1.000e-08
   Grad. Scal. Fac. for Micro threshold ....   0.100
   Minimum threshold for Micro iter.    ....   0.010
   NR start threshold (gradient norm)   ....   0.001
   Initial trust radius                 ....   0.400
   Minimum AH scaling param. (alpha)    ....   1.000
   Maximum AH scaling param. (alpha)    .... 1000.000
   Orbital update algorithm             .... Taylor
   White noise on init. David. guess    .... on
   Maximum white noise                  ....   0.010
   Quad. conv. algorithm                .... NR
 SOSCF                  CNVSOSCF        .... on
   Start iteration      SOSCFMaxIt      ....   150
   Startup grad/error   SOSCFStart      ....  0.003300
 Level Shifting         CNVShift        .... on
   Level shift para.    LevelShift      ....    0.2500
   Turn off err/grad.   ShiftErr        ....    0.0010
 Zerner damping         CNVZerner       .... off
 Static damping         CNVDamp         .... on
   Fraction old density DampFac         ....    0.7000
   Max. Damping (<1)    DampMax         ....    0.9800
   Min. Damping (>=0)   DampMin         ....    0.0000
   Turn off err/grad.   DampErr         ....    0.1000
 Fernandez-Rico         CNVRico         .... off

SCF Procedure:
 Maximum # iterations   MaxIter         ....   125
 SCF integral mode      SCFMode         .... Direct
   Integral package                     .... SHARK and LIBINT hybrid scheme
 Reset frequency        DirectResetFreq ....    20
 Integral Threshold     Thresh          ....  2.500e-11 Eh
 Primitive CutOff       TCut            ....  2.500e-12 Eh

Convergence Tolerance:
 Convergence Check Mode ConvCheckMode   .... Total+1el-Energy
 Convergence forced     ConvForced      .... 1
 Energy Change          TolE            ....  1.000e-08 Eh
 1-El. energy change                    ....  1.000e-05 Eh
 Orbital Gradient       TolG            ....  1.000e-05
 Orbital Rotation angle TolX            ....  1.000e-05
 DIIS Error             TolErr          ....  5.000e-07


Diagonalization of the overlap matrix:
Smallest eigenvalue                        ... 3.339e-05
Time for diagonalization                   ...    0.140 sec
Threshold for overlap eigenvalues          ... 1.000e-08
Number of eigenvalues below threshold      ... 0
Time for construction of square roots      ...    0.071 sec
Total time needed                          ...    0.213 sec

Time for model grid setup =    1.492 sec

------------------------------
INITIAL GUESS: MODEL POTENTIAL
------------------------------
Loading Hartree-Fock densities                     ... done
Calculating cut-offs                               ... done
Initializing the effective Hamiltonian             ... done
Setting up the integral package (SHARK)            ... done
Starting the Coulomb interaction                   ... done (   4.8 sec)
Reading the grid                                   ... done
Mapping shells                                     ... done
Starting the XC term evaluation                    ... done (   1.6 sec)
Transforming the Hamiltonian                       ... done (   0.1 sec)
Diagonalizing the Hamiltonian                      ... done (   0.1 sec)
Back transforming the eigenvectors                 ... done (   0.0 sec)
Now organizing SCF variables                       ... done
                      ------------------
                      INITIAL GUESS DONE (   8.3 sec)
                      ------------------
--------------
SCF ITERATIONS
--------------
ITER       Energy         Delta-E        Max-DP      RMS-DP      [F,P]     Damp
               ***  Starting incremental Fock matrix formation  ***
  0  -1270.0150730883   0.000000000000 0.04932556  0.00043598  0.3041628 0.7000
  1  -1270.2811841911  -0.266111102796 0.03608573  0.00035193  0.1787457 0.7000
                               ***Turning on DIIS***
  2  -1270.4471588736  -0.165974682452 0.02583957  0.00023600  0.1096258 0.7000
  3  -1272.5929878067  -2.145828933159 0.06313581  0.00051085  0.0828836 0.0000
  4  -1270.7558293923   1.837158414434 0.00830983  0.00009622  0.0069557 0.0000
  5  -1270.8125733789  -0.056743986617 0.00439327  0.00005121  0.0048098 0.0000
                      *** Initiating the SOSCF procedure ***
                           *** Shutting down DIIS ***
                      *** Re-Reading the Fockian *** 
                      *** Removing any level shift *** 
ITER      Energy       Delta-E        Grad      Rot      Max-DP    RMS-DP
  6  -1270.79324838   0.0193249996  0.001645  0.001645  0.002006  0.000026
               *** Restarting incremental Fock matrix formation ***
  7  -1270.80798387  -0.0147354907  0.000973  0.002496  0.001231  0.000016
  8  -1270.80803003  -0.0000461602  0.000422  0.002821  0.001366  0.000017
  9  -1270.80804737  -0.0000173393  0.000164  0.000334  0.000348  0.000004
 10  -1270.80804960  -0.0000022262  0.000054  0.000146  0.000119  0.000001
 11  -1270.80804982  -0.0000002226  0.000026  0.000130  0.000058  0.000001
 12  -1270.80804989  -0.0000000694  0.000010  0.000043  0.000035  0.000000
 13  -1270.80804989  -0.0000000025  0.000003  0.000012  0.000006  0.000000
                  ***Gradient check signals convergence***
              ***Rediagonalizing the Fockian in SOSCF/NRSCF***

               *****************************************************
               *                     SUCCESS                       *
               *           SCF CONVERGED AFTER  14 CYCLES          *
               *****************************************************


----------------
TOTAL SCF ENERGY
----------------

Total Energy       :        -1270.80804988 Eh          -34580.44507 eV

Components:
Nuclear Repulsion  :         1725.00844211 Eh           46939.86609 eV
Electronic Energy  :        -2995.81649199 Eh          -81520.31116 eV
One Electron Energy:        -5171.19920219 Eh         -140715.48413 eV
Two Electron Energy:         2175.38271020 Eh           59195.17297 eV

Virial components:
Potential Energy   :        -2539.74245253 Eh          -69109.90561 eV
Kinetic Energy     :         1268.93440265 Eh           34529.46054 eV
Virial Ratio       :            2.00147655


---------------
SCF CONVERGENCE
---------------

  Last Energy change         ...    1.0964e-08  Tolerance :   1.0000e-08
  Last MAX-Density change    ...    1.7635e-06  Tolerance :   1.0000e-07
  Last RMS-Density change    ...    2.8512e-08  Tolerance :   5.0000e-09
  Last Orbital Gradient      ...    1.3294e-06  Tolerance :   1.0000e-05
  Last Orbital Rotation      ...    3.0477e-06  Tolerance :   1.0000e-05

             **** THE GBW FILE WAS UPDATED (CONFS/Conf430.orca.gbw) ****
             **** DENSITY CONFS/Conf430.orca.scfp WAS UPDATED ****
             **** ENERGY FILE WAS UPDATED (CONFS/Conf430.orca.en.tmp) ****
             **** THE GBW FILE WAS UPDATED (CONFS/Conf430.orca.gbw) ****
             **** DENSITY CONFS/Conf430.orca.scfp WAS UPDATED ****
----------------
ORBITAL ENERGIES
----------------

  NO   OCC          E(Eh)            E(eV) 
   0   2.0000     -91.889530     -2500.4412 
   1   2.0000     -20.599412      -560.5385 
   2   2.0000     -20.590535      -560.2970 
   3   2.0000     -20.542196      -558.9816 
   4   2.0000     -15.629730      -425.3066 
   5   2.0000     -15.608883      -424.7393 
   6   2.0000     -11.394270      -310.0538 
   7   2.0000     -11.384598      -309.7907 
   8   2.0000     -11.336372      -308.4784 
   9   2.0000     -11.316901      -307.9485 
  10   2.0000     -11.309742      -307.7537 
  11   2.0000     -11.299410      -307.4726 
  12   2.0000     -11.262381      -306.4650 
  13   2.0000     -11.258706      -306.3650 
  14   2.0000     -11.258614      -306.3625 
  15   2.0000     -11.252382      -306.1929 
  16   2.0000     -11.246315      -306.0278 
  17   2.0000     -11.241255      -305.8901 
  18   2.0000     -11.241157      -305.8874 
  19   2.0000     -11.222120      -305.3694 
  20   2.0000      -8.894586      -242.0340 
  21   2.0000      -6.576159      -178.9464 
  22   2.0000      -6.574156      -178.8919 
  23   2.0000      -6.573567      -178.8759 
  24   2.0000      -1.444719       -39.3128 
  25   2.0000      -1.419132       -38.6166 
  26   2.0000      -1.351573       -36.7782 
  27   2.0000      -1.340705       -36.4824 
  28   2.0000      -1.239270       -33.7222 
  29   2.0000      -1.160412       -31.5764 
  30   2.0000      -1.120985       -30.5035 
  31   2.0000      -1.044518       -28.4228 
  32   2.0000      -1.032675       -28.1005 
  33   2.0000      -1.018333       -27.7102 
  34   2.0000      -0.996587       -27.1185 
  35   2.0000      -0.985227       -26.8094 
  36   2.0000      -0.923835       -25.1388 
  37   2.0000      -0.897043       -24.4098 
  38   2.0000      -0.847940       -23.0736 
  39   2.0000      -0.840535       -22.8721 
  40   2.0000      -0.837027       -22.7767 
  41   2.0000      -0.817124       -22.2351 
  42   2.0000      -0.745817       -20.2947 
  43   2.0000      -0.733686       -19.9646 
  44   2.0000      -0.722127       -19.6501 
  45   2.0000      -0.698407       -19.0046 
  46   2.0000      -0.689863       -18.7721 
  47   2.0000      -0.674574       -18.3561 
  48   2.0000      -0.671033       -18.2597 
  49   2.0000      -0.660736       -17.9795 
  50   2.0000      -0.651371       -17.7247 
  51   2.0000      -0.641896       -17.4669 
  52   2.0000      -0.635479       -17.2923 
  53   2.0000      -0.620784       -16.8924 
  54   2.0000      -0.609727       -16.5915 
  55   2.0000      -0.602584       -16.3971 
  56   2.0000      -0.600083       -16.3291 
  57   2.0000      -0.579785       -15.7767 
  58   2.0000      -0.571239       -15.5442 
  59   2.0000      -0.566582       -15.4175 
  60   2.0000      -0.551975       -15.0200 
  61   2.0000      -0.543459       -14.7883 
  62   2.0000      -0.534459       -14.5434 
  63   2.0000      -0.527148       -14.3444 
  64   2.0000      -0.523752       -14.2520 
  65   2.0000      -0.514313       -13.9952 
  66   2.0000      -0.502374       -13.6703 
  67   2.0000      -0.499553       -13.5935 
  68   2.0000      -0.484396       -13.1811 
  69   2.0000      -0.464507       -12.6399 
  70   2.0000      -0.453982       -12.3535 
  71   2.0000      -0.442862       -12.0509 
  72   2.0000      -0.354915        -9.6577 
  73   2.0000      -0.352003        -9.5785 
  74   2.0000      -0.329191        -8.9577 
  75   2.0000      -0.324761        -8.8372 
  76   2.0000      -0.316856        -8.6221 
  77   0.0000       0.073626         2.0035 
  78   0.0000       0.102962         2.8017 
  79   0.0000       0.123763         3.3678 
  80   0.0000       0.130876         3.5613 
  81   0.0000       0.136353         3.7103 
  82   0.0000       0.139645         3.7999 
  83   0.0000       0.150833         4.1044 
  84   0.0000       0.158704         4.3185 
  85   0.0000       0.162803         4.4301 
  86   0.0000       0.169641         4.6162 
  87   0.0000       0.178631         4.8608 
  88   0.0000       0.191410         5.2085 
  89   0.0000       0.195245         5.3129 
  90   0.0000       0.197543         5.3754 
  91   0.0000       0.203626         5.5410 
  92   0.0000       0.219436         5.9712 
  93   0.0000       0.226913         6.1746 
  94   0.0000       0.232921         6.3381 
  95   0.0000       0.237871         6.4728 
  96   0.0000       0.246331         6.7030 
  97   0.0000       0.258744         7.0408 
  98   0.0000       0.263162         7.1610 
  99   0.0000       0.279449         7.6042 
 100   0.0000       0.292553         7.9608 
 101   0.0000       0.306687         8.3454 
 102   0.0000       0.315627         8.5887 
 103   0.0000       0.317975         8.6525 
 104   0.0000       0.324999         8.8437 
 105   0.0000       0.335147         9.1198 
 106   0.0000       0.341854         9.3023 
 107   0.0000       0.350601         9.5403 
 108   0.0000       0.360920         9.8211 
 109   0.0000       0.365893         9.9565 
 110   0.0000       0.369323        10.0498 
 111   0.0000       0.374104        10.1799 
 112   0.0000       0.379029        10.3139 
 113   0.0000       0.393151        10.6982 
 114   0.0000       0.396930        10.8010 
 115   0.0000       0.403236        10.9726 
 116   0.0000       0.419188        11.4067 
 117   0.0000       0.430008        11.7011 
 118   0.0000       0.431001        11.7281 
 119   0.0000       0.438709        11.9379 
 120   0.0000       0.444378        12.0921 
 121   0.0000       0.449963        12.2441 
 122   0.0000       0.455449        12.3934 
 123   0.0000       0.458092        12.4653 
 124   0.0000       0.464859        12.6495 
 125   0.0000       0.471026        12.8173 
 126   0.0000       0.479946        13.0600 
 127   0.0000       0.484974        13.1968 
 128   0.0000       0.494561        13.4577 
 129   0.0000       0.504881        13.7385 
 130   0.0000       0.508325        13.8322 
 131   0.0000       0.510647        13.8954 
 132   0.0000       0.513782        13.9807 
 133   0.0000       0.516221        14.0471 
 134   0.0000       0.530795        14.4437 
 135   0.0000       0.531914        14.4741 
 136   0.0000       0.538167        14.6443 
 137   0.0000       0.539981        14.6936 
 138   0.0000       0.545030        14.8310 
 139   0.0000       0.553825        15.0703 
 140   0.0000       0.560423        15.2499 
 141   0.0000       0.562787        15.3142 
 142   0.0000       0.565969        15.4008 
 143   0.0000       0.572365        15.5749 
 144   0.0000       0.576207        15.6794 
 145   0.0000       0.584426        15.9030 
 146   0.0000       0.591109        16.0849 
 147   0.0000       0.595629        16.2079 
 148   0.0000       0.597878        16.2691 
 149   0.0000       0.600099        16.3295 
 150   0.0000       0.606591        16.5062 
 151   0.0000       0.610275        16.6064 
 152   0.0000       0.613454        16.6929 
 153   0.0000       0.613733        16.7005 
 154   0.0000       0.622944        16.9512 
 155   0.0000       0.625933        17.0325 
 156   0.0000       0.627801        17.0833 
 157   0.0000       0.633282        17.2325 
 158   0.0000       0.637265        17.3409 
 159   0.0000       0.644719        17.5437 
 160   0.0000       0.650907        17.7121 
 161   0.0000       0.656216        17.8565 
 162   0.0000       0.661850        18.0098 
 163   0.0000       0.665991        18.1225 
 164   0.0000       0.673753        18.3337 
 165   0.0000       0.675742        18.3879 
 166   0.0000       0.678693        18.4682 
 167   0.0000       0.682088        18.5606 
 168   0.0000       0.691162        18.8075 
 169   0.0000       0.700035        19.0489 
 170   0.0000       0.702550        19.1174 
 171   0.0000       0.708817        19.2879 
 172   0.0000       0.716264        19.4905 
 173   0.0000       0.719667        19.5831 
 174   0.0000       0.727811        19.8047 
 175   0.0000       0.731882        19.9155 
 176   0.0000       0.741797        20.1853 
 177   0.0000       0.748682        20.3727 
 178   0.0000       0.751850        20.4589 
 179   0.0000       0.763017        20.7627 
 180   0.0000       0.773985        21.0612 
 181   0.0000       0.780254        21.2318 
 182   0.0000       0.785754        21.3814 
 183   0.0000       0.794466        21.6185 
 184   0.0000       0.808051        21.9882 
 185   0.0000       0.815237        22.1837 
 186   0.0000       0.819206        22.2917 
 187   0.0000       0.826477        22.4896 
 188   0.0000       0.836436        22.7606 
 189   0.0000       0.839097        22.8330 
 190   0.0000       0.847665        23.0661 
 191   0.0000       0.855443        23.2778 
 192   0.0000       0.862437        23.4681 
 193   0.0000       0.869954        23.6726 
 194   0.0000       0.870605        23.6904 
 195   0.0000       0.875921        23.8350 
 196   0.0000       0.883145        24.0316 
 197   0.0000       0.886952        24.1352 
 198   0.0000       0.895691        24.3730 
 199   0.0000       0.905228        24.6325 
 200   0.0000       0.919071        25.0092 
 201   0.0000       0.922951        25.1148 
 202   0.0000       0.929581        25.2952 
 203   0.0000       0.938719        25.5438 
 204   0.0000       0.942281        25.6408 
 205   0.0000       0.952204        25.9108 
 206   0.0000       0.960258        26.1300 
 207   0.0000       0.967357        26.3231 
 208   0.0000       0.970292        26.4030 
 209   0.0000       0.977602        26.6019 
 210   0.0000       0.983061        26.7505 
 211   0.0000       0.997338        27.1390 
 212   0.0000       1.007019        27.4024 
 213   0.0000       1.009998        27.4834 
 214   0.0000       1.022250        27.8168 
 215   0.0000       1.025971        27.9181 
 216   0.0000       1.029397        28.0113 
 217   0.0000       1.032899        28.1066 
 218   0.0000       1.040981        28.3265 
 219   0.0000       1.048769        28.5385 
 220   0.0000       1.052780        28.6476 
 221   0.0000       1.059757        28.8375 
 222   0.0000       1.067436        29.0464 
 223   0.0000       1.076269        29.2868 
 224   0.0000       1.081547        29.4304 
 225   0.0000       1.086709        29.5709 
 226   0.0000       1.099275        29.9128 
 227   0.0000       1.104083        30.0436 
 228   0.0000       1.119814        30.4717 
 229   0.0000       1.126970        30.6664 
 230   0.0000       1.131266        30.7833 
 231   0.0000       1.138001        30.9666 
 232   0.0000       1.144036        31.1308 
 233   0.0000       1.149604        31.2823 
 234   0.0000       1.159813        31.5601 
 235   0.0000       1.164056        31.6756 
 236   0.0000       1.173800        31.9407 
 237   0.0000       1.174156        31.9504 
 238   0.0000       1.182091        32.1663 
 239   0.0000       1.184009        32.2185 
 240   0.0000       1.189913        32.3792 
 241   0.0000       1.207984        32.8709 
 242   0.0000       1.208747        32.8917 
 243   0.0000       1.213407        33.0185 
 244   0.0000       1.221576        33.2408 
 245   0.0000       1.224125        33.3101 
 246   0.0000       1.234850        33.6020 
 247   0.0000       1.244620        33.8678 
 248   0.0000       1.254151        34.1272 
 249   0.0000       1.257995        34.2318 
 250   0.0000       1.267707        34.4961 
 251   0.0000       1.275624        34.7115 
 252   0.0000       1.280961        34.8567 
 253   0.0000       1.287833        35.0437 
 254   0.0000       1.296548        35.2809 
 255   0.0000       1.313113        35.7316 
 256   0.0000       1.320173        35.9237 
 257   0.0000       1.332683        36.2641 
 258   0.0000       1.337717        36.4011 
 259   0.0000       1.343288        36.5527 
 260   0.0000       1.355453        36.8837 
 261   0.0000       1.365830        37.1661 
 262   0.0000       1.370545        37.2944 
 263   0.0000       1.378828        37.5198 
 264   0.0000       1.387080        37.7444 
 265   0.0000       1.392732        37.8982 
 266   0.0000       1.402936        38.1758 
 267   0.0000       1.405375        38.2422 
 268   0.0000       1.418852        38.6089 
 269   0.0000       1.424845        38.7720 
 270   0.0000       1.428942        38.8835 
 271   0.0000       1.437297        39.1109 
 272   0.0000       1.441449        39.2238 
 273   0.0000       1.444633        39.3105 
 274   0.0000       1.454507        39.5791 
 275   0.0000       1.465344        39.8740 
 276   0.0000       1.467343        39.9284 
 277   0.0000       1.470929        40.0260 
 278   0.0000       1.487267        40.4706 
 279   0.0000       1.495138        40.6848 
 280   0.0000       1.496193        40.7135 
 281   0.0000       1.503767        40.9196 
 282   0.0000       1.510323        41.0980 
 283   0.0000       1.512123        41.1470 
 284   0.0000       1.522626        41.4327 
 285   0.0000       1.530557        41.6486 
 286   0.0000       1.531561        41.6759 
 287   0.0000       1.540428        41.9172 
 288   0.0000       1.548520        42.1374 
 289   0.0000       1.552287        42.2399 
 290   0.0000       1.554880        42.3104 
 291   0.0000       1.562286        42.5120 
 292   0.0000       1.572981        42.8030 
 293   0.0000       1.582184        43.0534 
 294   0.0000       1.588464        43.2243 
 295   0.0000       1.596397        43.4402 
 296   0.0000       1.604854        43.6703 
 297   0.0000       1.614822        43.9415 
 298   0.0000       1.625986        44.2453 
 299   0.0000       1.629600        44.3437 
 300   0.0000       1.637232        44.5513 
 301   0.0000       1.646816        44.8121 
 302   0.0000       1.651411        44.9372 
 303   0.0000       1.664221        45.2858 
 304   0.0000       1.673350        45.5342 
 305   0.0000       1.684106        45.8269 
 306   0.0000       1.689290        45.9679 
 307   0.0000       1.707330        46.4588 
 308   0.0000       1.709642        46.5217 
 309   0.0000       1.713428        46.6248 
 310   0.0000       1.726610        46.9834 
 311   0.0000       1.739840        47.3434 
 312   0.0000       1.742114        47.4053 
 313   0.0000       1.756307        47.7916 
 314   0.0000       1.767082        48.0847 
 315   0.0000       1.775568        48.3157 
 316   0.0000       1.778093        48.3844 
 317   0.0000       1.788779        48.6752 
 318   0.0000       1.797891        48.9231 
 319   0.0000       1.814273        49.3689 
 320   0.0000       1.820809        49.5467 
 321   0.0000       1.826233        49.6943 
 322   0.0000       1.836933        49.9855 
 323   0.0000       1.843722        50.1702 
 324   0.0000       1.864116        50.7252 
 325   0.0000       1.873209        50.9726 
 326   0.0000       1.881203        51.1901 
 327   0.0000       1.901014        51.7292 
 328   0.0000       1.902813        51.7782 
 329   0.0000       1.922061        52.3019 
 330   0.0000       1.924786        52.3761 
 331   0.0000       1.932910        52.5972 
 332   0.0000       1.940138        52.7938 
 333   0.0000       1.954708        53.1903 
 334   0.0000       1.967189        53.5299 
 335   0.0000       1.978187        53.8292 
 336   0.0000       1.995380        54.2971 
 337   0.0000       2.002397        54.4880 
 338   0.0000       2.020821        54.9893 
 339   0.0000       2.027241        55.1640 
 340   0.0000       2.037389        55.4402 
 341   0.0000       2.040454        55.5236 
 342   0.0000       2.050809        55.8054 
 343   0.0000       2.077296        56.5261 
 344   0.0000       2.094982        57.0074 
 345   0.0000       2.115984        57.5789 
 346   0.0000       2.125392        57.8349 
 347   0.0000       2.129341        57.9423 
 348   0.0000       2.155229        58.6468 
 349   0.0000       2.158595        58.7384 
 350   0.0000       2.178604        59.2828 
 351   0.0000       2.185058        59.4585 
 352   0.0000       2.212834        60.2143 
 353   0.0000       2.231660        60.7265 
 354   0.0000       2.244138        61.0661 
 355   0.0000       2.259091        61.4730 
 356   0.0000       2.265512        61.6477 
 357   0.0000       2.287053        62.2339 
 358   0.0000       2.301733        62.6333 
 359   0.0000       2.312694        62.9316 
 360   0.0000       2.323703        63.2312 
 361   0.0000       2.327239        63.3274 
 362   0.0000       2.345495        63.8242 
 363   0.0000       2.349897        63.9439 
 364   0.0000       2.369620        64.4806 
 365   0.0000       2.386080        64.9285 
 366   0.0000       2.397962        65.2519 
 367   0.0000       2.401867        65.3581 
 368   0.0000       2.421400        65.8896 
 369   0.0000       2.432238        66.1846 
 370   0.0000       2.456823        66.8536 
 371   0.0000       2.469324        67.1937 
 372   0.0000       2.479611        67.4737 
 373   0.0000       2.492985        67.8376 
 374   0.0000       2.494652        67.8829 
 375   0.0000       2.499341        68.0105 
 376   0.0000       2.511599        68.3441 
 377   0.0000       2.536061        69.0097 
 378   0.0000       2.552635        69.4607 
 379   0.0000       2.562455        69.7279 
 380   0.0000       2.575270        70.0767 
 381   0.0000       2.587245        70.4025 
 382   0.0000       2.605475        70.8986 
 383   0.0000       2.612901        71.1006 
 384   0.0000       2.627590        71.5004 
 385   0.0000       2.634967        71.7011 
 386   0.0000       2.639277        71.8184 
 387   0.0000       2.654265        72.2262 
 388   0.0000       2.658667        72.3460 
 389   0.0000       2.682053        72.9824 
 390   0.0000       2.695661        73.3527 
 391   0.0000       2.700316        73.4793 
 392   0.0000       2.714670        73.8699 
 393   0.0000       2.721724        74.0619 
 394   0.0000       2.727313        74.2140 
 395   0.0000       2.737011        74.4778 
 396   0.0000       2.750785        74.8527 
 397   0.0000       2.758357        75.0587 
 398   0.0000       2.769656        75.3662 
 399   0.0000       2.776999        75.5660 
 400   0.0000       2.789978        75.9192 
 401   0.0000       2.807295        76.3904 
 402   0.0000       2.811012        76.4915 
 403   0.0000       2.826237        76.9058 
 404   0.0000       2.827924        76.9517 
 405   0.0000       2.841873        77.3313 
 406   0.0000       2.846656        77.4615 
 407   0.0000       2.852997        77.6340 
 408   0.0000       2.858440        77.7821 
 409   0.0000       2.870940        78.1223 
 410   0.0000       2.884970        78.5040 
 411   0.0000       2.902416        78.9787 
 412   0.0000       2.904830        79.0444 
 413   0.0000       2.920690        79.4760 
 414   0.0000       2.922202        79.5172 
 415   0.0000       2.925065        79.5951 
 416   0.0000       2.932605        79.8002 
 417   0.0000       2.945263        80.1447 
 418   0.0000       2.953798        80.3769 
 419   0.0000       2.961612        80.5896 
 420   0.0000       2.976194        80.9864 
 421   0.0000       2.978859        81.0589 
 422   0.0000       2.990093        81.3646 
 423   0.0000       2.995968        81.5244 
 424   0.0000       3.001965        81.6876 
 425   0.0000       3.011367        81.9435 
 426   0.0000       3.018106        82.1268 
 427   0.0000       3.028037        82.3971 
 428   0.0000       3.030609        82.4671 
 429   0.0000       3.041843        82.7728 
 430   0.0000       3.049821        82.9899 
 431   0.0000       3.054093        83.1061 
 432   0.0000       3.066681        83.4486 
 433   0.0000       3.069458        83.5242 
 434   0.0000       3.077879        83.7533 
 435   0.0000       3.082378        83.8758 
 436   0.0000       3.089072        84.0579 
 437   0.0000       3.095945        84.2450 
 438   0.0000       3.097904        84.2983 
 439   0.0000       3.113148        84.7131 
 440   0.0000       3.115917        84.7884 
 441   0.0000       3.121458        84.9392 
 442   0.0000       3.126388        85.0733 
 443   0.0000       3.137188        85.3672 
 444   0.0000       3.138736        85.4093 
 445   0.0000       3.150168        85.7204 
 446   0.0000       3.161585        86.0311 
 447   0.0000       3.170340        86.2693 
 448   0.0000       3.175177        86.4009 
 449   0.0000       3.183210        86.6196 
 450   0.0000       3.197253        87.0017 
 451   0.0000       3.209290        87.3292 
 452   0.0000       3.211600        87.3921 
 453   0.0000       3.225837        87.7795 
 454   0.0000       3.230849        87.9159 
 455   0.0000       3.239292        88.1456 
 456   0.0000       3.244154        88.2779 
 457   0.0000       3.248118        88.3858 
 458   0.0000       3.254046        88.5471 
 459   0.0000       3.261311        88.7448 
 460   0.0000       3.267592        88.9157 
 461   0.0000       3.275285        89.1250 
 462   0.0000       3.283277        89.3425 
 463   0.0000       3.291668        89.5708 
 464   0.0000       3.297024        89.7166 
 465   0.0000       3.311282        90.1046 
 466   0.0000       3.313541        90.1660 
 467   0.0000       3.324764        90.4714 
 468   0.0000       3.329629        90.6038 
 469   0.0000       3.339141        90.8626 
 470   0.0000       3.341706        90.9324 
 471   0.0000       3.344748        91.0152 
 472   0.0000       3.349583        91.1468 
 473   0.0000       3.353640        91.2572 
 474   0.0000       3.358505        91.3896 
 475   0.0000       3.369546        91.6900 
 476   0.0000       3.372656        91.7746 
 477   0.0000       3.384286        92.0911 
 478   0.0000       3.388155        92.1964 
 479   0.0000       3.391558        92.2890 
 480   0.0000       3.399882        92.5155 
 481   0.0000       3.406730        92.7018 
 482   0.0000       3.414681        92.9182 
 483   0.0000       3.422336        93.1265 
 484   0.0000       3.423541        93.1593 
 485   0.0000       3.427826        93.2759 
 486   0.0000       3.430814        93.3572 
 487   0.0000       3.435735        93.4911 
 488   0.0000       3.439735        93.6000 
 489   0.0000       3.442576        93.6772 
 490   0.0000       3.451879        93.9304 
 491   0.0000       3.452317        93.9423 
 492   0.0000       3.458714        94.1164 
 493   0.0000       3.459740        94.1443 
 494   0.0000       3.470758        94.4441 
 495   0.0000       3.477170        94.6186 
 496   0.0000       3.484978        94.8311 
 497   0.0000       3.489591        94.9566 
 498   0.0000       3.498117        95.1886 
 499   0.0000       3.501057        95.2686 
 500   0.0000       3.509849        95.5078 
 501   0.0000       3.520735        95.8041 
 502   0.0000       3.530919        96.0812 
 503   0.0000       3.542021        96.3833 
 504   0.0000       3.552954        96.6808 
 505   0.0000       3.555345        96.7459 
 506   0.0000       3.565716        97.0281 
 507   0.0000       3.569239        97.1239 
 508   0.0000       3.583511        97.5123 
 509   0.0000       3.584707        97.5448 
 510   0.0000       3.591841        97.7390 
 511   0.0000       3.597994        97.9064 
 512   0.0000       3.603032        98.0435 
 513   0.0000       3.609082        98.2081 
 514   0.0000       3.624945        98.6398 
 515   0.0000       3.627050        98.6970 
 516   0.0000       3.632667        98.8499 
 517   0.0000       3.637395        98.9785 
 518   0.0000       3.643594        99.1472 
 519   0.0000       3.650340        99.3308 
 520   0.0000       3.652513        99.3899 
 521   0.0000       3.656522        99.4990 
 522   0.0000       3.664237        99.7090 
 523   0.0000       3.667450        99.7964 
 524   0.0000       3.670128        99.8693 
 525   0.0000       3.678072       100.0854 
 526   0.0000       3.692545       100.4793 
 527   0.0000       3.696420       100.5847 
 528   0.0000       3.705105       100.8210 
 529   0.0000       3.712324       101.0175 
 530   0.0000       3.715121       101.0936 
 531   0.0000       3.723722       101.3276 
 532   0.0000       3.731249       101.5324 
 533   0.0000       3.741740       101.8179 
 534   0.0000       3.745889       101.9308 
 535   0.0000       3.749163       102.0199 
 536   0.0000       3.757445       102.2453 
 537   0.0000       3.765924       102.4760 
 538   0.0000       3.772317       102.6500 
 539   0.0000       3.775850       102.7461 
 540   0.0000       3.784766       102.9887 
 541   0.0000       3.789774       103.1250 
 542   0.0000       3.791665       103.1765 
 543   0.0000       3.804753       103.5326 
 544   0.0000       3.809718       103.6677 
 545   0.0000       3.821052       103.9761 
 546   0.0000       3.825196       104.0889 
 547   0.0000       3.830532       104.2341 
 548   0.0000       3.835432       104.3674 
 549   0.0000       3.849085       104.7389 
 550   0.0000       3.851506       104.8048 
 551   0.0000       3.873889       105.4139 
 552   0.0000       3.874502       105.4306 
 553   0.0000       3.885284       105.7240 
 554   0.0000       3.892394       105.9174 
 555   0.0000       3.905809       106.2825 
 556   0.0000       3.908901       106.3666 
 557   0.0000       3.914061       106.5070 
 558   0.0000       3.923996       106.7774 
 559   0.0000       3.936697       107.1230 
 560   0.0000       3.946668       107.3943 
 561   0.0000       3.955428       107.6327 
 562   0.0000       3.958182       107.7076 
 563   0.0000       3.977794       108.2413 
 564   0.0000       3.981608       108.3451 
 565   0.0000       3.984007       108.4103 
 566   0.0000       3.996063       108.7384 
 567   0.0000       3.999110       108.8213 
 568   0.0000       4.012223       109.1781 
 569   0.0000       4.021464       109.4296 
 570   0.0000       4.038499       109.8931 
 571   0.0000       4.040950       109.9598 
 572   0.0000       4.050892       110.2304 
 573   0.0000       4.061076       110.5075 
 574   0.0000       4.065473       110.6272 
 575   0.0000       4.067425       110.6803 
 576   0.0000       4.072160       110.8091 
 577   0.0000       4.093081       111.3784 
 578   0.0000       4.109481       111.8247 
 579   0.0000       4.110308       111.8472 
 580   0.0000       4.114742       111.9678 
 581   0.0000       4.132961       112.4636 
 582   0.0000       4.134673       112.5102 
 583   0.0000       4.136304       112.5546 
 584   0.0000       4.149646       112.9176 
 585   0.0000       4.155317       113.0719 
 586   0.0000       4.159402       113.1831 
 587   0.0000       4.162218       113.2597 
 588   0.0000       4.171253       113.5056 
 589   0.0000       4.179095       113.7190 
 590   0.0000       4.187900       113.9585 
 591   0.0000       4.191694       114.0618 
 592   0.0000       4.196625       114.1960 
 593   0.0000       4.209232       114.5390 
 594   0.0000       4.215076       114.6981 
 595   0.0000       4.221261       114.8663 
 596   0.0000       4.224283       114.9486 
 597   0.0000       4.227649       115.0402 
 598   0.0000       4.239194       115.3543 
 599   0.0000       4.241214       115.4093 
 600   0.0000       4.254920       115.7823 
 601   0.0000       4.258459       115.8786 
 602   0.0000       4.266800       116.1055 
 603   0.0000       4.277372       116.3932 
 604   0.0000       4.301481       117.0493 
 605   0.0000       4.303957       117.1166 
 606   0.0000       4.308582       117.2425 
 607   0.0000       4.321048       117.5817 
 608   0.0000       4.328344       117.7802 
 609   0.0000       4.333250       117.9137 
 610   0.0000       4.341225       118.1307 
 611   0.0000       4.350122       118.3728 
 612   0.0000       4.355597       118.5218 
 613   0.0000       4.359837       118.6372 
 614   0.0000       4.368092       118.8618 
 615   0.0000       4.373170       119.0000 
 616   0.0000       4.380667       119.2040 
 617   0.0000       4.395749       119.6144 
 618   0.0000       4.403873       119.8355 
 619   0.0000       4.412898       120.0811 
 620   0.0000       4.416711       120.1848 
 621   0.0000       4.424131       120.3867 
 622   0.0000       4.431443       120.5857 
 623   0.0000       4.441670       120.8640 
 624   0.0000       4.445362       120.9645 
 625   0.0000       4.453873       121.1961 
 626   0.0000       4.459523       121.3498 
 627   0.0000       4.468522       121.5947 
 628   0.0000       4.485161       122.0474 
 629   0.0000       4.487722       122.1171 
 630   0.0000       4.499581       122.4398 
 631   0.0000       4.509882       122.7201 
 632   0.0000       4.520912       123.0203 
 633   0.0000       4.532636       123.3393 
 634   0.0000       4.538587       123.5012 
 635   0.0000       4.549614       123.8013 
 636   0.0000       4.557916       124.0272 
 637   0.0000       4.564224       124.1988 
 638   0.0000       4.573960       124.4638 
 639   0.0000       4.583927       124.7350 
 640   0.0000       4.591288       124.9353 
 641   0.0000       4.602048       125.2281 
 642   0.0000       4.605794       125.3300 
 643   0.0000       4.612555       125.5140 
 644   0.0000       4.623009       125.7985 
 645   0.0000       4.630997       126.0158 
 646   0.0000       4.634311       126.1060 
 647   0.0000       4.637630       126.1963 
 648   0.0000       4.647706       126.4705 
 649   0.0000       4.657044       126.7246 
 650   0.0000       4.661022       126.8328 
 651   0.0000       4.665190       126.9463 
 652   0.0000       4.674731       127.2059 
 653   0.0000       4.682797       127.4254 
 654   0.0000       4.694613       127.7469 
 655   0.0000       4.703661       127.9931 
 656   0.0000       4.716002       128.3289 
 657   0.0000       4.723596       128.5356 
 658   0.0000       4.736155       128.8773 
 659   0.0000       4.743484       129.0768 
 660   0.0000       4.760289       129.5340 
 661   0.0000       4.771172       129.8302 
 662   0.0000       4.787197       130.2663 
 663   0.0000       4.799218       130.5934 
 664   0.0000       4.808726       130.8521 
 665   0.0000       4.830650       131.4487 
 666   0.0000       4.836903       131.6188 
 667   0.0000       4.846396       131.8771 
 668   0.0000       4.864319       132.3649 
 669   0.0000       4.877924       132.7351 
 670   0.0000       4.910282       133.6156 
 671   0.0000       4.928022       134.0983 
 672   0.0000       4.947451       134.6270 
 673   0.0000       4.951315       134.7321 
 674   0.0000       4.968041       135.1873 
 675   0.0000       4.995944       135.9466 
 676   0.0000       5.013240       136.4172 
 677   0.0000       5.028559       136.8341 
 678   0.0000       5.032615       136.9444 
 679   0.0000       5.041102       137.1753 
 680   0.0000       5.052774       137.4930 
 681   0.0000       5.067778       137.9012 
 682   0.0000       5.082076       138.2903 
 683   0.0000       5.092977       138.5870 
 684   0.0000       5.111099       139.0801 
 685   0.0000       5.120753       139.3428 
 686   0.0000       5.124779       139.4523 
 687   0.0000       5.140932       139.8919 
 688   0.0000       5.151989       140.1927 
 689   0.0000       5.164886       140.5437 
 690   0.0000       5.168960       140.6545 
 691   0.0000       5.188515       141.1867 
 692   0.0000       5.192094       141.2841 
 693   0.0000       5.200535       141.5137 
 694   0.0000       5.207329       141.6986 
 695   0.0000       5.214263       141.8873 
 696   0.0000       5.220213       142.0492 
 697   0.0000       5.230240       142.3221 
 698   0.0000       5.238383       142.5436 
 699   0.0000       5.258523       143.0917 
 700   0.0000       5.264202       143.2462 
 701   0.0000       5.277842       143.6174 
 702   0.0000       5.310481       144.5055 
 703   0.0000       5.318873       144.7339 
 704   0.0000       5.325184       144.9056 
 705   0.0000       5.340396       145.3196 
 706   0.0000       5.348551       145.5415 
 707   0.0000       5.364434       145.9737 
 708   0.0000       5.378508       146.3566 
 709   0.0000       5.380066       146.3990 
 710   0.0000       5.399610       146.9309 
 711   0.0000       5.404531       147.0648 
 712   0.0000       5.429019       147.7311 
 713   0.0000       5.447045       148.2216 
 714   0.0000       5.468777       148.8130 
 715   0.0000       5.478470       149.0768 
 716   0.0000       5.488639       149.3535 
 717   0.0000       5.515323       150.0796 
 718   0.0000       5.521889       150.2582 
 719   0.0000       5.531408       150.5173 
 720   0.0000       5.543044       150.8339 
 721   0.0000       5.546066       150.9161 
 722   0.0000       5.552414       151.0889 
 723   0.0000       5.574446       151.6884 
 724   0.0000       5.584462       151.9609 
 725   0.0000       5.600797       152.4054 
 726   0.0000       5.608720       152.6210 
 727   0.0000       5.615036       152.7929 
 728   0.0000       5.627149       153.1225 
 729   0.0000       5.634414       153.3202 
 730   0.0000       5.647589       153.6787 
 731   0.0000       5.663618       154.1149 
 732   0.0000       5.687464       154.7638 
 733   0.0000       5.701023       155.1327 
 734   0.0000       5.707936       155.3208 
 735   0.0000       5.730494       155.9347 
 736   0.0000       5.731338       155.9576 
 737   0.0000       5.735133       156.0609 
 738   0.0000       5.749477       156.4512 
 739   0.0000       5.754659       156.5922 
 740   0.0000       5.772768       157.0850 
 741   0.0000       5.791872       157.6048 
 742   0.0000       5.798580       157.7874 
 743   0.0000       5.815242       158.2408 
 744   0.0000       5.824695       158.4980 
 745   0.0000       5.839751       158.9077 
 746   0.0000       5.860471       159.4715 
 747   0.0000       5.868589       159.6924 
 748   0.0000       5.909828       160.8146 
 749   0.0000       5.938357       161.5909 
 750   0.0000       5.956062       162.0727 
 751   0.0000       5.973428       162.5452 
 752   0.0000       5.985266       162.8674 
 753   0.0000       6.006057       163.4331 
 754   0.0000       6.013194       163.6273 
 755   0.0000       6.028746       164.0505 
 756   0.0000       6.055869       164.7886 
 757   0.0000       6.063518       164.9967 
 758   0.0000       6.080838       165.4680 
 759   0.0000       6.097053       165.9092 
 760   0.0000       6.117030       166.4528 
 761   0.0000       6.167634       167.8299 
 762   0.0000       6.218895       169.2247 
 763   0.0000       6.227231       169.4516 
 764   0.0000       6.262409       170.4088 
 765   0.0000       6.299461       171.4171 
 766   0.0000       6.302323       171.4949 
 767   0.0000       6.323988       172.0845 
 768   0.0000       6.348859       172.7612 
 769   0.0000       6.355625       172.9453 
 770   0.0000       6.371823       173.3861 
 771   0.0000       6.387674       173.8174 
 772   0.0000       6.407446       174.3555 
 773   0.0000       6.448499       175.4726 
 774   0.0000       6.461710       175.8321 
 775   0.0000       6.500147       176.8780 
 776   0.0000       6.509630       177.1360 
 777   0.0000       6.554862       178.3669 
 778   0.0000       6.564611       178.6322 
 779   0.0000       6.599034       179.5688 
 780   0.0000       6.641481       180.7239 
 781   0.0000       6.691889       182.0956 
 782   0.0000       6.723416       182.9535 
 783   0.0000       6.783300       184.5830 
 784   0.0000       6.819423       185.5659 
 785   0.0000       6.909192       188.0087 
 786   0.0000       6.916747       188.2143 
 787   0.0000       6.920465       188.3154 
 788   0.0000       6.943001       188.9287 
 789   0.0000       7.031366       191.3332 
 790   0.0000       7.052660       191.9126 
 791   0.0000       7.068267       192.3373 
 792   0.0000       7.080249       192.6634 
 793   0.0000       7.145423       194.4369 
 794   0.0000       7.226841       196.6523 
 795   0.0000       7.255624       197.4356 
 796   0.0000       7.259764       197.5482 
 797   0.0000       7.281012       198.1264 
 798   0.0000       7.346811       199.9169 
 799   0.0000       7.398784       201.3311 
 800   0.0000       7.441857       202.5032 
 801   0.0000       7.574840       206.1219 
 802   0.0000       7.586707       206.4448 
 803   0.0000       7.590064       206.5361 
 804   0.0000       7.715525       209.9501 
 805   0.0000       7.820748       212.8134 
 806   0.0000       7.822505       212.8612 
 807   0.0000       7.933769       215.8888 
 808   0.0000       7.956533       216.5083 
 809   0.0000       9.436514       256.7806 
 810   0.0000       9.553649       259.9680 
 811   0.0000      10.835444       294.8474 
 812   0.0000      11.410050       310.4833 
 813   0.0000      11.940462       324.9165 
 814   0.0000      12.574264       342.1631 
 815   0.0000      12.899614       351.0163 
 816   0.0000      12.934033       351.9529 
 817   0.0000      13.113882       356.8469 
 818   0.0000      13.195167       359.0587 
 819   0.0000      13.394282       364.4769 
 820   0.0000      13.536795       368.3549 
 821   0.0000      13.745896       374.0448 
 822   0.0000      13.944586       379.4515 
 823   0.0000      14.029849       381.7716 
 824   0.0000      14.110734       383.9726 
 825   0.0000      14.594300       397.1311 
 826   0.0000      14.880627       404.9225 
 827   0.0000      16.002622       435.4535 

                    ********************************
                    * MULLIKEN POPULATION ANALYSIS *
                    ********************************

-----------------------
MULLIKEN ATOMIC CHARGES
-----------------------
   0 C :   -0.327248
   1 C :    0.034547
   2 O :   -0.382126
   3 C :    0.483486
   4 O :   -0.427041
   5 C :   -0.244437
   6 C :    0.156617
   7 C :   -0.272067
   8 N :   -0.122010
   9 C :    0.210971
  10 S :   -0.439035
  11 N :   -0.205089
  12 C :    0.064424
  13 C :    0.041993
  14 C :   -0.184203
  15 C :   -0.131855
  16 C :   -0.272439
  17 C :    0.313796
  18 O :   -0.359387
  19 C :   -0.268331
  20 H :    0.108582
  21 H :    0.101314
  22 H :    0.127546
  23 H :    0.108471
  24 H :    0.119567
  25 H :    0.132466
  26 H :    0.095342
  27 H :    0.131250
  28 H :    0.197744
  29 H :    0.194511
  30 H :    0.151648
  31 H :    0.157085
  32 H :    0.163150
  33 H :    0.132361
  34 H :    0.241051
  35 H :    0.167346
Sum of atomic charges:    0.0000000

--------------------------------
MULLIKEN REDUCED ORBITAL CHARGES
--------------------------------
  0 C s       :     3.270709  s :     3.270709
      pz      :     1.011690  p :     2.980107
      px      :     0.941822
      py      :     1.026595
      dz2     :     0.014731  d :     0.072067
      dxz     :     0.013304
      dyz     :     0.015655
      dx2y2   :     0.010335
      dxy     :     0.018042
      f0      :     0.000449  f :     0.004364
      f+1     :     0.000447
      f-1     :     0.001016
      f+2     :     0.000494
      f-2     :     0.000552
      f+3     :     0.000861
      f-3     :     0.000545
  1 C s       :     3.157673  s :     3.157673
      pz      :     1.030294  p :     2.641261
      px      :     0.798834
      py      :     0.812132
      dz2     :     0.029306  d :     0.154990
      dxz     :     0.022904
      dyz     :     0.032083
      dx2y2   :     0.030660
      dxy     :     0.040036
      f0      :     0.002004  f :     0.011529
      f+1     :     0.000996
      f-1     :     0.001139
      f+2     :     0.000494
      f-2     :     0.002091
      f+3     :     0.002429
      f-3     :     0.002375
  2 O s       :     3.725488  s :     3.725488
      pz      :     1.831071  p :     4.622512
      px      :     1.601905
      py      :     1.189536
      dz2     :     0.003807  d :     0.031850
      dxz     :     0.002228
      dyz     :     0.005397
      dx2y2   :     0.008639
      dxy     :     0.011779
      f0      :     0.000252  f :     0.002276
      f+1     :     0.000180
      f-1     :     0.000550
      f+2     :     0.000161
      f-2     :     0.000141
[...]
 15 C s       :     2.705697  s :     2.705697
      pz      :     0.889855  p :     2.796117
      px      :     0.940151
      py      :     0.966110
      dz2     :     0.086795  d :     0.417490
      dxz     :     0.071873
      dyz     :     0.054636
      dx2y2   :     0.119129
      dxy     :     0.085058
      f0      :     0.003120  f :     0.041100
      f+1     :     0.005010
      f-1     :     0.005699
      f+2     :     0.007121
      f-2     :     0.006108
      f+3     :     0.007618
      f-3     :     0.006424
 16 C s       :     2.701569  s :     2.701569
      pz      :     0.933236  p :     2.869327
      px      :     0.960636
      py      :     0.975455
      dz2     :     0.039861  d :     0.390348
      dxz     :     0.057585
      dyz     :     0.083787
      dx2y2   :     0.098850
      dxy     :     0.110265
      f0      :     0.003890  f :     0.040304
      f+1     :     0.004109
      f-1     :     0.004285
      f+2     :     0.006372
      f-2     :     0.004688
      f+3     :     0.009854
      f-3     :     0.007106
 17 C s       :     2.701452  s :     2.701452
      pz      :     0.848436  p :     2.680869
      px      :     0.825211
      py      :     1.007222
      dz2     :     0.119171  d :     0.709201
      dxz     :     0.105821
      dyz     :     0.137342
      dx2y2   :     0.168927
      dxy     :     0.177940
      f0      :     0.008356  f :     0.099299
      f+1     :     0.014952
      f-1     :     0.009721
      f+2     :     0.016255
      f-2     :     0.013446
      f+3     :     0.020162
      f-3     :     0.016408
 18 O s       :     3.177033  s :     3.177033
      pz      :     1.452180  p :     4.346017
      px      :     1.386036
      py      :     1.507801
      dz2     :     0.007444  d :     0.075505
      dxz     :     0.016899
      dyz     :     0.016905
      dx2y2   :     0.014576
      dxy     :     0.019682
      f0      :     0.000569  f :     0.005061
      f+1     :     0.000701
      f-1     :     0.000389
      f+2     :     0.000581
      f-2     :     0.001009
      f+3     :     0.000869
      f-3     :     0.000944
 19 C s       :     2.695022  s :     2.695022
      pz      :     0.926520  p :     2.845103
      px      :     0.953697
      py      :     0.964886
      dz2     :     0.069944  d :     0.388020
      dxz     :     0.069756
      dyz     :     0.056594
      dx2y2   :     0.104175
      dxy     :     0.087551
      f0      :     0.003189  f :     0.040815
      f+1     :     0.005132
      f-1     :     0.005216
      f+2     :     0.007172
      f-2     :     0.006644
      f+3     :     0.007373
      f-3     :     0.006089
 20 H s       :     0.845296  s :     0.845296
      pz      :     0.069643  p :     0.155088
      px      :     0.037884
      py      :     0.047561
      dz2     :     0.009049  d :     0.027673
      dxz     :     0.007002
      dyz     :     0.007886
      dx2y2   :     0.001657
      dxy     :     0.002078
 21 H s       :     0.845654  s :     0.845654
      pz      :     0.041535  p :     0.152375
      px      :     0.050313
      py      :     0.060527
      dz2     :     0.002246  d :     0.027576
      dxz     :     0.003001
      dyz     :     0.006703
      dx2y2   :     0.008558
      dxy     :     0.007067
 22 H s       :     0.843071  s :     0.843071
      pz      :     0.054110  p :     0.155377
      px      :     0.045867
      py      :     0.055400
      dz2     :     0.006864  d :     0.027696
      dxz     :     0.004826
      dyz     :     0.005610
      dx2y2   :     0.005331
      dxy     :     0.005065
 23 H s       :     0.855629  s :     0.855629
      pz      :     0.052577  p :     0.144862
      px      :     0.036181
      py      :     0.056104
      dz2     :     0.006632  d :     0.026936
      dxz     :     0.002343
      dyz     :     0.006866
      dx2y2   :     0.005012
      dxy     :     0.006082
 24 H s       :     0.855033  s :     0.855033
      pz      :     0.076809  p :     0.146470
      px      :     0.034884
      py      :     0.034776
      dz2     :     0.009199  d :     0.027052
      dxz     :     0.007744
      dyz     :     0.008316
      dx2y2   :     0.000667
      dxy     :     0.001125
 25 H s       :     0.824660  s :     0.824660
      pz      :     0.070344  p :     0.151003
      px      :     0.042280
      py      :     0.038380
      dz2     :     0.009364  d :     0.027757
      dxz     :     0.008077
      dyz     :     0.007775
      dx2y2   :     0.001723
      dxy     :     0.000818
 26 H s       :     0.845312  s :     0.845312
      pz      :     0.039078  p :     0.150369
      px      :     0.039904
      py      :     0.071387
      dz2     :     0.002977  d :     0.027704
      dxz     :     0.000294
      dyz     :     0.008582
      dx2y2   :     0.006836
      dxy     :     0.009014
 27 H s       :     0.826017  s :     0.826017
      pz      :     0.038803  p :     0.151131
      px      :     0.071733
      py      :     0.040595
      dz2     :     0.002368  d :     0.027749
      dxz     :     0.008768
      dyz     :     0.000557
      dx2y2   :     0.008128
      dxy     :     0.007928
 28 H s       :     0.741970  s :     0.741970
      pz      :     0.061305  p :     0.253680
      px      :     0.071355
      py      :     0.121020
      dz2     :     0.005472  d :     0.061819
      dxz     :     0.000719
      dyz     :     0.018956
      dx2y2   :     0.016184
      dxy     :     0.020488
 29 H s       :     0.749070  s :     0.749070
      pz      :     0.107061  p :     0.254213
      px      :     0.099652
      py      :     0.047500
      dz2     :     0.018948  d :     0.061408
      dxz     :     0.013929
      dyz     :     0.010076
      dx2y2   :     0.010215
      dxy     :     0.008240
 30 H s       :     0.832534  s :     0.832534
      pz      :     0.045386  p :     0.148862
      px      :     0.053542
      py      :     0.049934
      dz2     :     0.004132  d :     0.028468
      dxz     :     0.006213
      dyz     :     0.005011
      dx2y2   :     0.005963
      dxy     :     0.007149
 31 H s       :     0.844360  s :     0.844360
      pz      :     0.051730  p :     0.157279
      px      :     0.065895
      py      :     0.039655
      dz2     :     0.004709  d :     0.027558
      dxz     :     0.006534
      dyz     :     0.003319
      dx2y2   :     0.006496
      dxy     :     0.006501
 32 H s       :     0.843039  s :     0.843039
      pz      :     0.037910  p :     0.151343
      px      :     0.037492
      py      :     0.075941
      dz2     :     0.002702  d :     0.026454
      dxz     :     0.000561
      dyz     :     0.007454
      dx2y2   :     0.007712
      dxy     :     0.008025
 33 H s       :     0.848217  s :     0.848217
      pz      :     0.058265  p :     0.159042
      px      :     0.052068
      py      :     0.048709
      dz2     :     0.006018  d :     0.027754
      dxz     :     0.005265
      dyz     :     0.005462
      dx2y2   :     0.005753
      dxy     :     0.005257
 34 H s       :     0.706163  s :     0.706163
      pz      :     0.116423  p :     0.347575
      px      :     0.089361
      py      :     0.141791
      dz2     :     0.023677  d :     0.099533
      dxz     :     0.012743
      dyz     :     0.023123
      dx2y2   :     0.020471
      dxy     :     0.019518
 35 H s       :     0.838461  s :     0.838461
      pz      :     0.040679  p :     0.157119
      px      :     0.039086
      py      :     0.077354
      dz2     :     0.002778  d :     0.028047
      dxz     :     0.000603
      dyz     :     0.008271
      dx2y2   :     0.007948
      dxy     :     0.008447


                      *****************************
                      * MAYER POPULATION ANALYSIS *
                      *****************************

  NA   - Mulliken gross atomic population
  ZA   - Total nuclear charge
  QA   - Mulliken gross atomic charge
  VA   - Mayer's total valence
  BVA  - Mayer's bonded valence
  FA   - Mayer's free valence

  ATOM       NA         ZA         QA         VA         BVA        FA
  0 C      6.3272     6.0000    -0.3272     3.8692     3.8692    -0.0000
  1 C      5.9655     6.0000     0.0345     3.8418     3.8418     0.0000
  2 O      8.3821     8.0000    -0.3821     2.0213     2.0213     0.0000
  3 C      5.5165     6.0000     0.4835     4.2326     4.2326     0.0000
  4 O      8.4270     8.0000    -0.4270     2.0875     2.0875     0.0000
  5 C      6.2444     6.0000    -0.2444     3.6353     3.6353    -0.0000
  6 C      5.8434     6.0000     0.1566     3.8823     3.8823    -0.0000
  7 C      6.2721     6.0000    -0.2721     3.9046     3.9046    -0.0000
  8 N      7.1220     7.0000    -0.1220     3.3087     3.3087     0.0000
  9 C      5.7890     6.0000     0.2110     4.1527     4.1527     0.0000
 10 S     16.4390    16.0000    -0.4390     1.7563     1.7563     0.0000
 11 N      7.2051     7.0000    -0.2051     3.2538     3.2538     0.0000
 12 C      5.9356     6.0000     0.0644     3.9385     3.9385     0.0000
 13 C      5.9580     6.0000     0.0420     3.7222     3.7222    -0.0000
 14 C      6.1842     6.0000    -0.1842     3.8347     3.8347    -0.0000
 15 C      6.1319     6.0000    -0.1319     3.7950     3.7950     0.0000
 16 C      6.2724     6.0000    -0.2724     3.7924     3.7924     0.0000
 17 C      5.6862     6.0000     0.3138     3.8733     3.8733     0.0000
 18 O      8.3594     8.0000    -0.3594     2.1168     2.1168     0.0000
 19 C      6.2683     6.0000    -0.2683     3.8468     3.8468    -0.0000
 20 H      0.8914     1.0000     0.1086     0.9740     0.9740    -0.0000
 21 H      0.8987     1.0000     0.1013     0.9853     0.9853    -0.0000
 22 H      0.8725     1.0000     0.1275     0.9857     0.9857     0.0000
 23 H      0.8915     1.0000     0.1085     0.9787     0.9787    -0.0000
 24 H      0.8804     1.0000     0.1196     0.9774     0.9774     0.0000
 25 H      0.8675     1.0000     0.1325     0.9801     0.9801     0.0000
 26 H      0.9047     1.0000     0.0953     0.9859     0.9859     0.0000
 27 H      0.8687     1.0000     0.1313     0.9808     0.9808    -0.0000
 28 H      0.8023     1.0000     0.1977     1.0226     1.0226     0.0000
 29 H      0.8055     1.0000     0.1945     1.0191     1.0191     0.0000
 30 H      0.8484     1.0000     0.1516     0.9938     0.9938    -0.0000
 31 H      0.8429     1.0000     0.1571     0.9824     0.9824    -0.0000
 32 H      0.8369     1.0000     0.1631     0.9763     0.9763    -0.0000
 33 H      0.8676     1.0000     0.1324     0.9907     0.9907     0.0000
 34 H      0.7589     1.0000     0.2411     1.0106     1.0106     0.0000
 35 H      0.8327     1.0000     0.1673     0.9864     0.9864    -0.0000

  Mayer bond orders larger than 0.100000
B(  0-C ,  1-C ) :   0.9565 B(  0-C , 20-H ) :   0.9696 B(  0-C , 21-H ) :   0.9775 
B(  0-C , 22-H ) :   0.9732 B(  1-C ,  2-O ) :   0.8849 B(  1-C , 23-H ) :   0.9800 
B(  1-C , 24-H ) :   0.9864 B(  2-O ,  3-C ) :   1.1357 B(  3-C ,  4-O ) :   1.9884 
B(  3-C ,  5-C ) :   1.0566 B(  5-C ,  6-C ) :   1.6519 B(  5-C , 12-C ) :   0.9691 
B(  6-C ,  7-C ) :   0.9660 B(  6-C ,  8-N ) :   1.1627 B(  7-C , 25-H ) :   0.9599 
B(  7-C , 26-H ) :   0.9902 B(  7-C , 27-H ) :   0.9607 B(  8-N ,  9-C ) :   1.1824 
B(  8-N , 28-H ) :   0.9478 B(  9-C , 10-S ) :   1.6086 B(  9-C , 11-N ) :   1.3051 
B( 11-N , 12-C ) :   0.9850 B( 11-N , 29-H ) :   0.9520 B( 12-C , 13-C ) :   0.9360 
B( 12-C , 30-H ) :   1.0016 B( 13-C , 14-C ) :   1.3547 B( 13-C , 19-C ) :   1.3819 
B( 14-C , 15-C ) :   1.3831 B( 14-C , 31-H ) :   0.9707 B( 15-C , 16-C ) :   1.3653 
B( 15-C , 32-H ) :   0.9702 B( 16-C , 17-C ) :   1.3309 B( 16-C , 33-H ) :   0.9841 
B( 17-C , 18-O ) :   1.1100 B( 17-C , 19-C ) :   1.3684 B( 18-O , 34-H ) :   0.9795 
B( 19-C , 35-H ) :   0.9590 

-------
TIMINGS
-------

Total SCF time: 0 days 2 hours 4 min 47 sec 

Total time                  ....    7487.714 sec
Sum of individual times     ....    7479.856 sec  ( 99.9%)

Fock matrix formation       ....    7448.636 sec  ( 99.5%)
Diagonalization             ....       2.121 sec  (  0.0%)
Density matrix formation    ....       0.229 sec  (  0.0%)
Population analysis         ....       0.257 sec  (  0.0%)
Initial guess               ....       6.845 sec  (  0.1%)
Orbital Transformation      ....       0.000 sec  (  0.0%)
Orbital Orthonormalization  ....       0.000 sec  (  0.0%)
DIIS solution               ....      17.008 sec  (  0.2%)
SOSCF solution              ....       3.268 sec  (  0.0%)

Maximum memory used throughout the entire SCF-calculation: 751.5 MB

------------------------------------------------------------------------------
                                ORCA  MP2 
------------------------------------------------------------------------------

Freezing NCore=48 chemical core electrons

-------------
RI-MP2 ENERGY
-------------
Dimension of the basis                    ...  828
Memory devoted to MP2                     ...  256 MB   
Data format for buffers                   ... DOUBLE
Compression type for matrix containers    ... UNCOMPRESSED
Overall scaling of the MP2 energy         ...   1.000e+00
Calculating two index integrals           ... done (    0.043 sec)
Cholesky decomposition of V**-1           ... done (    0.642 sec)

-----------------
RI-TRANSFORMATION (AUX index driven)
-----------------

Dimension of the orbital-basis         ... 828
Dimension of the aux-basis             ... 2141
Transformation of internal/external MOs...   24-  76 to   77- 827
Number Format for Storage              ... Double (8 Byte)
Integral mode                          ... Direct

First Phase: integral generation and transformation of MO indices
  Aux angular momentum 0               ... done (    4.882 sec)
  Aux angular momentum 1               ... done (    8.174 sec)
  Aux angular momentum 2               ... done (   10.945 sec)
  Aux angular momentum 3               ... done (    8.540 sec)
  Aux angular momentum 4               ... done (    2.953 sec)
Closing buffer VIA ( 0.63 GB; CompressionRatio= 1.00)
  Phase 1 completed in    35.731 sec
Second Phase: sorting and transformation of aux index

IA-Transformation
Memory available                       ... 157 MB 
Max. # MO pairs treated in a batch     ... 11    
# of internal orbitals                 ... 53
# batches for internal orbitals        ... 5
Closing buffer IAV ( 0.63 GB; CompressionRatio= 1.00)
(ia|v) transformation done in    21.003 sec

  Phase 2 completed in    21.014 sec
RI-Integral transformation completed in    56.754 sec
Opening buffers                              ... done

Starting loop over batches of integrals:

Operator 0  - window                       ... ( 24- 76)x( 77-827)
Operator 0  - Memory available             ...   256 MB
Operator 0  - Memory needed per MO         ...  12.3 MB
Operator 0  - Number of orbitals per batch ... 13
Operator 0  - Number of batches            ... 5

OPERATOR  0   PASS   0:  MOs    24 ...   36
  Reading integrals       ... ok
  Internal MO  26
  Internal MO  29
  Internal MO  32
  Internal MO  35
OPERATOR  0   PASS   1:  MOs    37 ...   49
  Reading integrals       ... ok
  Internal MO  38
  Internal MO  41
  Internal MO  44
  Internal MO  47
OPERATOR  0   PASS   2:  MOs    50 ...   62
  Reading integrals       ... ok
  Internal MO  50
  Internal MO  53
  Internal MO  56
  Internal MO  59
  Internal MO  62
OPERATOR  0   PASS   3:  MOs    63 ...   75
  Reading integrals       ... ok
  Internal MO  65
  Internal MO  68
  Internal MO  71
  Internal MO  74
OPERATOR  0   PASS   4:  MOs    76 ...   76
  Reading integrals       ... ok
Time spent in pair loops =   101.413 sec
Deleting buffer (Ka|jb)[aa] ...done

-----------------------------------------------
 RI-MP2 CORRELATION ENERGY:     -3.534475704 Eh
-----------------------------------------------


-------
TIMINGS
-------

Total time                :  158.985 sec
Integral trafo            :   56.774 sec ( 35.7%)
I/O of integrals          :    1.690 sec (  1.1%)
K(i,j) Operators          :   66.980 sec ( 42.1%)
T(i,j) pair energies      :    9.626 sec (  6.1%)
V-calculation             :    0.043 sec (  0.0%)
V**(-1/2)                 :    0.642 sec (  0.4%)
Gamma(ia|P)               :    0.000 sec (  0.0%)
Gamma-Trafo               :    0.000 sec (  0.0%)
D(virtual)                :    0.000 sec (  0.0%)
D(internal)               :    0.000 sec (  0.0%)
W(virtual)                :    0.000 sec (  0.0%)
W(internal)               :    0.000 sec (  0.0%)
L(virtual)                :    0.000 sec (  0.0%)
L(internal)               :    0.000 sec (  0.0%)
G(D)                      :    0.000 sec (  0.0%)
G(Z)                      :    0.000 sec (  0.0%)
Z-Vector Solution         :    0.000 sec (  0.0%)
3-Index Derivative        :    0.000 sec (  0.0%)
2-Index Derivative        :    0.000 sec (  0.0%)
Separable Gradient        :    0.000 sec (  0.0%)


---------------------------------------
MP2 TOTAL ENERGY:    -1274.342525583 Eh
---------------------------------------

Maximum memory used throughout the entire MP2-calculation: 305.3 MB

-------------------------   --------------------
FINAL SINGLE POINT ENERGY     -1274.342525583379
-------------------------   --------------------


                            ***************************************
                            *     ORCA property calculations      *
                            ***************************************


  WARNING: The energy has been calculated at the MP2 level but the densities
           used in the property calculations are still SCF densities
           MP2 response densities have not been calculated 
           use %mp2 Density relaxed end
           or  %mp2 Density unrelaxed end

                                    ---------------------
                                    Active property flags
                                    ---------------------
   (+) Dipole Moment


------------------------------------------------------------------------------
                       ORCA ELECTRIC PROPERTIES CALCULATION
------------------------------------------------------------------------------

Dipole Moment Calculation                       ... on
Quadrupole Moment Calculation                   ... off
Polarizability Calculation                      ... off
GBWName                                         ... CONFS/Conf430.orca.gbw
Electron density file                           ... CONFS/Conf430.orca.scfp
The origin for moment calculation is the CENTER OF MASS  = (32.865427, 31.490854 35.223168)

-------------
DIPOLE MOMENT
-------------
                                X             Y             Z
Electronic contribution:      9.98590       9.56490       6.24809
Nuclear contribution   :    -10.99465     -11.28366      -6.37640
                        -----------------------------------------
Total Dipole Moment    :     -1.00875      -1.71876      -0.12832
                        -----------------------------------------
Magnitude (a.u.)       :      1.99704
Magnitude (Debye)      :      5.07608



--------------------
Rotational spectrum 
--------------------
 
Rotational constants in cm-1:     0.012595     0.008898     0.006485 
Rotational constants in MHz :   377.595993   266.759832   194.424184 

 Dipole components along the rotational axes: 
x,y,z [a.u.] :    -1.996919    -0.016108     0.015303 
x,y,z [Debye]:    -5.075765    -0.040944     0.038897 

 

Timings for individual modules:

Sum of individual times         ...     7651.456 sec (= 127.524 min)
GTO integral calculation        ...        3.829 sec (=   0.064 min)   0.1 %
SCF iterations                  ...     7487.985 sec (= 124.800 min)  97.9 %
MP2 module                      ...      159.642 sec (=   2.661 min)   2.1 %
                             ****ORCA TERMINATED NORMALLY****
TOTAL RUN TIME: 0 days 2 hours 7 minutes 33 seconds 147 msec
