
                                        *****************
                                        * O   R   C   A *
                                        *****************

                                            #,                                       
                                            ###                                      
                                            ####                                     
                                            #####                                    
                                            ######                                   
                                           ########,                                 
                                     ,,################,,,,,                         
                               ,,#################################,,                 
                          ,,##########################################,,             
                       ,#########################################, ''#####,          
                    ,#############################################,,   '####,        
                  ,##################################################,,,,####,       
                ,###########''''           ''''###############################       
              ,#####''   ,,,,##########,,,,          '''####'''          '####       
            ,##' ,,,,###########################,,,                        '##       
           ' ,,###''''                  '''############,,,                           
         ,,##''                                '''############,,,,        ,,,,,,###''
      ,#''                                            '''#######################'''  
     '                                                          ''''####''''         
             ,#######,   #######,   ,#######,      ##                                
            ,#'     '#,  ##    ##  ,#'     '#,    #''#        ######   ,####,        
            ##       ##  ##   ,#'  ##            #'  '#       #        #'  '#        
            ##       ##  #######   ##           ,######,      #####,   #    #        
            '#,     ,#'  ##    ##  '#,     ,#' ,#      #,         ##   #,  ,#        
             '#######'   ##     ##  '#######'  #'      '#     #####' # '####'        



                  #######################################################
                  #                        -***-                        #
                  #          Department of theory and spectroscopy      #
                  #    Directorship and core code : Frank Neese         #
                  #        Max Planck Institute fuer Kohlenforschung    #
                  #                Kaiser Wilhelm Platz 1               #
                  #                 D-45470 Muelheim/Ruhr               #
                  #                      Germany                        #
                  #                                                     #
                  #                  All rights reserved                #
                  #                        -***-                        #
                  #######################################################


                         Program Version 5.0.0 -  RELEASE  -
                                (SVN: $Rev: 19529$)
                ($Date: 2021-06-28 11:36:33 +0200 (Mo, 28 Jun 2021) $)


 With contributions from (in alphabetic order):
   Daniel Aravena         : Magnetic Suceptibility
   Michael Atanasov       : Ab Initio Ligand Field Theory (pilot matlab implementation)
   Alexander A. Auer      : GIAO ZORA, VPT2 properties, NMR spectrum
   Ute Becker             : Parallelization
   Giovanni Bistoni       : ED, misc. LED, open-shell LED, HFLD
   Martin Brehm           : Molecular dynamics
   Dmytro Bykov           : SCF Hessian
   Vijay G. Chilkuri      : MRCI spin determinant printing, contributions to CSF-ICE
   Dipayan Datta          : RHF DLPNO-CCSD density
   Achintya Kumar Dutta   : EOM-CC, STEOM-CC
   Dmitry Ganyushin       : Spin-Orbit,Spin-Spin,Magnetic field MRCI
   Miquel Garcia          : C-PCM Hessian, Gaussian charge scheme
   Yang Guo               : DLPNO-NEVPT2, F12-NEVPT2, CIM, IAO-localization
   Andreas Hansen         : Spin unrestricted coupled pair/coupled cluster methods
   Benjamin Helmich-Paris : MC-RPA, TRAH-SCF, COSX integrals
   Lee Huntington         : MR-EOM, pCC
   Robert Izsak           : Overlap fitted RIJCOSX, COSX-SCS-MP3, EOM
   Marcus Kettner         : VPT2
   Christian Kollmar      : KDIIS, OOCD, Brueckner-CCSD(T), CCSD density, CASPT2, CASPT2-K
   Simone Kossmann        : Meta GGA functionals, TD-DFT gradient, OOMP2, MP2 Hessian
   Martin Krupicka        : Initial AUTO-CI
   Lucas Lang             : DCDCAS
   Marvin Lechner         : AUTO-CI (C++ implementation), FIC-MRCC
   Dagmar Lenk            : GEPOL surface, SMD
   Dimitrios Liakos       : Extrapolation schemes; Compound Job, initial MDCI parallelization
   Dimitrios Manganas     : Further ROCIS development; embedding schemes
   Dimitrios Pantazis     : SARC Basis sets
   Anastasios Papadopoulos: AUTO-CI, single reference methods and gradients
   Taras Petrenko         : DFT Hessian,TD-DFT gradient, ASA, ECA, R-Raman, ABS, FL, XAS/XES, NRVS
   Peter Pinski           : DLPNO-MP2, DLPNO-MP2 Gradient
   Christoph Reimann      : Effective Core Potentials
   Marius Retegan         : Local ZFS, SOC
   Christoph Riplinger    : Optimizer, TS searches, QM/MM, DLPNO-CCSD(T), (RO)-DLPNO pert. Triples
   Tobias Risthaus        : Range-separated hybrids, TD-DFT gradient, RPA, STAB
   Michael Roemelt        : Original ROCIS implementation
   Masaaki Saitow         : Open-shell DLPNO-CCSD energy and density
   Barbara Sandhoefer     : DKH picture change effects
   Avijit Sen             : IP-ROCIS
   Kantharuban Sivalingam : CASSCF convergence, NEVPT2, FIC-MRCI
   Bernardo de Souza      : ESD, SOC TD-DFT
   Georgi Stoychev        : AutoAux, RI-MP2 NMR
   Willem Van den Heuvel  : Paramagnetic NMR
   Boris Wezisla          : Elementary symmetry handling
   Frank Wennmohs         : Technical directorship


 We gratefully acknowledge several colleagues who have allowed us to
 interface, adapt or use parts of their codes:
   Stefan Grimme, W. Hujo, H. Kruse, P. Pracht,  : VdW corrections, initial TS optimization,
                  C. Bannwarth, S. Ehlert          DFT functionals, gCP, sTDA/sTD-DF
   Ed Valeev, F. Pavosevic, A. Kumar             : LibInt (2-el integral package), F12 methods
   Garnet Chan, S. Sharma, J. Yang, R. Olivares  : DMRG
   Ulf Ekstrom                                   : XCFun DFT Library
   Mihaly Kallay                                 : mrcc  (arbitrary order and MRCC methods)
   Jiri Pittner, Ondrej Demel                    : Mk-CCSD
   Frank Weinhold                                : gennbo (NPA and NBO analysis)
   Christopher J. Cramer and Donald G. Truhlar   : smd solvation model
   Lars Goerigk                                  : TD-DFT with DH, B97 family of functionals
   V. Asgeirsson, H. Jonsson                     : NEB implementation
   FAccTs GmbH                                   : IRC, NEB, NEB-TS, DLPNO-Multilevel, CI-OPT
                                                   MM, QMMM, 2- and 3-layer-ONIOM, Crystal-QMMM,
                                                   LR-CPCM, SF, NACMEs, symmetry and pop. for TD-DFT,
                                                   nearIR, NL-DFT gradient (VV10), updates on ESD,
                                                   ML-optimized integration grids
   S Lehtola, MJT Oliveira, MAL Marques          : LibXC Library
   Liviu Ungur et al                             : ANISO software


 Your calculation uses the libint2 library for the computation of 2-el integrals
 For citations please refer to: http://libint.valeyev.net

 Your ORCA version has been built with support for libXC version: 5.1.0
 For citations please refer to: https://tddft.org/programs/libxc/

 This ORCA versions uses:
   CBLAS   interface :  Fast vector & matrix operations
   LAPACKE interface :  Fast linear algebra routines
   SCALAPACK package :  Parallel linear algebra routines
   Shared memory     :  Shared parallel matrices
   BLAS/LAPACK       :  OpenBLAS 0.3.15  USE64BITINT DYNAMIC_ARCH NO_AFFINITY Zen SINGLE_THREADED
        Core in use  :  Zen
   Copyright (c) 2011-2014, The OpenBLAS Project


================================================================================

----- Orbital basis set information -----
Your calculation utilizes the basis: cc-pVTZ 
       H, B-Ne : Obtained from the ccRepo (grant-hill.group.shef.ac.uk/ccrepo) Feb. 2017
                 T. H. Dunning, Jr., J. Chem. Phys. 90, 1007 (1989)
            He : Obtained from the ccRepo (grant-hill.group.shef.ac.uk/ccrepo) Feb. 2017
                 D. E. Woon, T. H. Dunning, Jr., J. Chem. Phys. 100, 2975 (1994)
  Li-Be, Na-Mg : Obtained from the ccRepo (grant-hill.group.shef.ac.uk/ccrepo) Feb. 2017
                 B. P. Prascher, D. E. Woon, K. A. Peterson, T. H. Dunning, Jr., A. K. Wilson, Theor. Chem. Acc. 128, 69 (2011)
         Al-Ar : Obtained from the ccRepo (grant-hill.group.shef.ac.uk/ccrepo) Feb. 2017
                 D. E. Woon, T. H. Dunning, Jr., J. Chem. Phys. 98, 1358 (1993)
            Ca : Obtained from the Peterson Research Group Website (tyr0.chem.wsu.edu/~kipeters) Feb. 2017
                 J. Koput, K. A. Peterson, J. Phys. Chem. 106, 9595 (2002)
         Sc-Zn : Obtained from the ccRepo (grant-hill.group.shef.ac.uk/ccrepo) Feb. 2017
                 N. B. Balabanov, K. A. Peterson, J. Chem. Phys. 123, 064107 (2005)
                 N. B. Balabanov, K. A. Peterson, J. Chem. Phys. 125, 074110 (2006)
         Ga-Kr : Obtained from the ccRepo (grant-hill.group.shef.ac.uk/ccrepo) Feb. 2017
                 A. K. Wilson, D. E. Woon, K. A. Peterson, T. H. Dunning, Jr., J. Chem. Phys. 110, 7667 (1999)
             Y : Obtained from the ccRepo (grant-hill.group.shef.ac.uk/ccrepo) Feb. 2017
                 K. A. Peterson, D. Figgen, M. Dolg, H. Stoll, J. Chem. Phys. 126, 124101 (2007)
        Ag, Au : Obtained from the Peterson Research Group Website (tyr0.chem.wsu.edu/~kipeters) Feb. 2017
                 K. A. Peterson, C. Puzzarini, Theor. Chem. Acc. 114, 283 (2005)

----- AuxC basis set information -----
Your calculation utilizes the auxiliary basis: cc-pVTZ/C 
  Obtained from the EMSL Basis Set Exchange (bse.pnl.gov) Feb. 2017
  H-He, B-F, Al-Ar, Ga-Kr : F. Weigend, A. Kohn, C. Hattig, J. Chem. Phys. 116, 3175 (2002)
             Li-Be, Na-Mg : C. Haettig, Phys. Chem. Chem. Phys. 7, 59 (2005)
                       Ne : C. Haettig, Phys. Chem. Chem. Phys. 7, 59 (2005)
                            F. Weigend, A. Kohn, C. Hattig, J. Chem. Phys. 116, 3175 (2002)
                    Sc-Zn : J. G. Hill, J. A. Platts, J. Chem. Phys. 128, 044104 (2008)

================================================================================
                                        WARNINGS
                       Please study these warnings very carefully!
================================================================================


WARNING: No MP2 level density has been requested!
         To caclulate MP2 level properties use
         %mp2 Density relaxed end
         or
         %mp2 Density unrelaxed end

WARNING: Post HF methods need fully converged wavefunctions
  ===> : Setting SCFConvForced true
         You can overwrite this default with %scf ConvForced false 


INFO   : the flag for use of the SHARK integral package has been found!

================================================================================
                                       INPUT FILE
================================================================================
NAME = CONFS/Conf875.orca
|  1> ! ri-mp2 cc-pvtz cc-pvtz/c TightSCF NoKeepInts
|  2> 
|  3> %scf
|  4>   MaxCore 4096
|  5> end
|  6> *xyz  0  1
|  7>     C       14.2115560   15.1390048   16.3186075
|  8>     C       15.6829621   14.6988112   16.3930510
|  9>     O       16.4894026   15.8188796   15.9948276
| 10>     C       17.7596884   15.8774827   16.4841286
| 11>     O       18.4447375   14.8711596   16.5631827
| 12>     C       17.9305971   17.0141064   17.4449042
| 13>     C       17.3472388   18.2284643   17.2865821
| 14>     C       16.4772354   18.6862683   16.1345970
| 15>     N       17.5891199   19.2424898   18.2181964
| 16>     C       18.4899160   19.1598646   19.2476319
| 17>     S       18.7939474   20.4446966   20.2437158
| 18>     N       19.1272776   17.9551143   19.4101633
| 19>     C       18.8134857   16.7231275   18.6614305
| 20>     C       18.1461025   15.6971775   19.5733121
| 21>     C       18.6927028   14.4088944   19.7187263
| 22>     C       18.0711449   13.4560211   20.5430994
| 23>     C       16.8911197   13.7927213   21.2278637
| 24>     C       16.3410193   15.0733924   21.0822874
| 25>     O       15.1963926   15.3987693   21.7342092
| 26>     C       16.9618130   16.0195318   20.2609597
| 27>     H       14.0260016   15.9832873   16.9941273
| 28>     H       13.5494577   14.3147628   16.6105505
| 29>     H       13.9503939   15.4448430   15.2979000
| 30>     H       15.9155383   14.4048014   17.4267364
| 31>     H       15.8702506   13.8392600   15.7358418
| 32>     H       16.8710128   18.3244817   15.1765360
| 33>     H       16.4166627   19.7790847   16.0634642
| 34>     H       15.4563992   18.2994224   16.2437784
| 35>     H       17.1314628   20.1342854   18.1157376
| 36>     H       19.7632735   17.9127508   20.1961193
| 37>     H       19.7608781   16.3005194   18.2966469
| 38>     H       19.5943160   14.1397781   19.1737898
| 39>     H       18.5013785   12.4610181   20.6425827
| 40>     H       16.4067746   13.0589251   21.8635055
| 41>     H       14.9550641   14.6432122   22.2909646
| 42>     H       16.5206763   17.0055899   20.1642426
| 43> *
| 44> 
| 45>                          ****END OF INPUT****
================================================================================

                       ****************************
                       * Single Point Calculation *
                       ****************************

---------------------------------
CARTESIAN COORDINATES (ANGSTROEM)
---------------------------------
  C     14.211556   15.139005   16.318607
  C     15.682962   14.698811   16.393051
  O     16.489403   15.818880   15.994828
  C     17.759688   15.877483   16.484129
  O     18.444737   14.871160   16.563183
  C     17.930597   17.014106   17.444904
  C     17.347239   18.228464   17.286582
  C     16.477235   18.686268   16.134597
  N     17.589120   19.242490   18.218196
  C     18.489916   19.159865   19.247632
  S     18.793947   20.444697   20.243716
  N     19.127278   17.955114   19.410163
  C     18.813486   16.723128   18.661430
  C     18.146103   15.697178   19.573312
  C     18.692703   14.408894   19.718726
  C     18.071145   13.456021   20.543099
  C     16.891120   13.792721   21.227864
  C     16.341019   15.073392   21.082287
  O     15.196393   15.398769   21.734209
  C     16.961813   16.019532   20.260960
  H     14.026002   15.983287   16.994127
  H     13.549458   14.314763   16.610550
  H     13.950394   15.444843   15.297900
  H     15.915538   14.404801   17.426736
  H     15.870251   13.839260   15.735842
  H     16.871013   18.324482   15.176536
  H     16.416663   19.779085   16.063464
  H     15.456399   18.299422   16.243778
  H     17.131463   20.134285   18.115738
  H     19.763274   17.912751   20.196119
  H     19.760878   16.300519   18.296647
  H     19.594316   14.139778   19.173790
  H     18.501379   12.461018   20.642583
  H     16.406775   13.058925   21.863505
  H     14.955064   14.643212   22.290965
  H     16.520676   17.005590   20.164243

----------------------------
CARTESIAN COORDINATES (A.U.)
----------------------------
  NO LB      ZA    FRAG     MASS         X           Y           Z
   0 C     6.0000    0    12.011   26.855949   28.608573   30.837699
   1 C     6.0000    0    12.011   29.636503   27.776728   30.978377
   2 O     8.0000    0    15.999   31.160455   29.893350   30.225844
   3 C     6.0000    0    12.011   33.560947   30.004094   31.150489
   4 O     8.0000    0    15.999   34.855502   28.102419   31.299879
   5 C     6.0000    0    12.011   33.883918   32.152002   32.966091
   6 C     6.0000    0    12.011   32.781531   34.446805   32.666906
   7 C     6.0000    0    12.011   31.137462   35.311930   30.489970
   8 N     7.0000    0    14.007   33.238620   36.363036   34.427402
   9 C     6.0000    0    12.011   34.940877   36.206897   36.372753
  10 S    16.0000    0    32.060   35.515414   38.634877   38.255079
  11 N     7.0000    0    14.007   36.145316   33.930249   36.679893
  12 C     6.0000    0    12.011   35.552336   31.602131   35.264993
  13 C     6.0000    0    12.011   34.291164   29.663367   36.988199
  14 C     6.0000    0    12.011   35.324089   27.228864   37.262992
  15 C     6.0000    0    12.011   34.149515   25.428195   38.820832
  16 C     6.0000    0    12.011   31.919590   26.064466   40.114849
  17 C     6.0000    0    12.011   30.880051   28.484584   39.839749
  18 O     8.0000    0    15.999   28.717020   29.099457   41.071703
  19 C     6.0000    0    12.011   32.053181   30.272528   38.287665
  20 H     1.0000    0     1.008   26.505302   30.204036   32.114246
  21 H     1.0000    0     1.008   25.604764   27.050981   31.389391
  22 H     1.0000    0     1.008   26.362424   29.186523   28.908841
  23 H     1.0000    0     1.008   30.076009   27.221130   32.931759
  24 H     1.0000    0     1.008   29.990427   26.152411   29.736431
  25 H     1.0000    0     1.008   31.881594   34.628252   28.679497
  26 H     1.0000    0     1.008   31.022997   37.377053   30.355548
  27 H     1.0000    0     1.008   29.208362   34.580897   30.696293
  28 H     1.0000    0     1.008   32.373773   38.048285   34.233783
  29 H     1.0000    0     1.008   37.347174   33.850193   38.165134
  30 H     1.0000    0     1.008   37.342648   30.803518   34.575652
  31 H     1.0000    0     1.008   37.027891   26.720308   36.233212
  32 H     1.0000    0     1.008   34.962538   23.547912   39.008828
  33 H     1.0000    0     1.008   31.004311   24.677792   41.316038
  34 H     1.0000    0     1.008   28.260975   27.671661   42.123818
  35 H     1.0000    0     1.008   31.219554   32.135908   38.104896

--------------------------------
INTERNAL COORDINATES (ANGSTROEM)
--------------------------------
 C      0   0   0     0.000000000000     0.00000000     0.00000000
 C      1   0   0     1.537643701021     0.00000000     0.00000000
 O      2   1   0     1.436482292625   107.49214066     0.00000000
 C      3   2   1     1.362525524756   117.21797905   153.60595832
 O      4   3   2     1.219929506870   120.75208554    40.65492539
 C      4   3   2     1.498069748941   111.67309571   248.04757740
 C      6   4   3     1.356479967718   123.73236130   322.05053893
 C      7   6   4     1.514450424758   127.33335811   357.87358858
 N      7   6   4     1.398091336484   119.81005459   181.55321570
 C      9   7   6     1.370400666269   124.78843250     6.53048893
 S     10   9   7     1.653907946728   121.76315133   175.61144533
 N     10   9   7     1.372614130224   116.55716402   355.59571171
 C     12  10   9     1.475417784113   125.03281211   353.22512600
 C     13  12  10     1.526270549595   110.55415459   250.48245922
 C     14  13  12     1.406979219202   120.48820692   235.98607853
 C     15  14  13     1.404952937614   120.64917954   180.86581930
 C     16  15  14     1.405250384761   119.66436809     0.07141675
 C     17  16  15     1.401399791486   119.86538477     0.13872946
 O     18  17  16     1.356850191702   120.02474984   179.51502098
 C     18  17  16     1.398264557578   120.33809076   359.86974279
 H      1   2   3     1.097073550569   110.63124452   299.55802651
 H      1   2   3     1.096804334727   110.46494599   179.77447331
 H      1   2   3     1.097080875602   110.64935632    59.89588610
 H      2   1   3     1.099563075715   108.93322615   119.76594963
 H      2   1   3     1.098102536295   110.99711281   239.16693700
 H      8   7   6     1.097192355246   110.99915860   319.55767758
 H      8   7   6     1.096802904505   112.47313578   199.75940681
 H      8   7   6     1.097122087866   110.62424565    79.09843372
 H      9   7   6     1.007594769268   119.70915217   181.99031132
 H     12  10   9     1.011934921270   114.86917943   181.96322554
 H     13  12  10     1.099644051770   107.81922898   132.07947060
 H     15  14  13     1.087329634643   119.79925800   359.68171575
 H     16  15  14     1.088590302895   119.91347785   179.66072743
 H     17  16  15     1.084936651116   119.88858590   179.85005374
 H     19  18  17     0.969062718147   107.40687523     4.01969424
 H     20  18  17     1.084558141408   119.14336762   180.14824552

---------------------------
INTERNAL COORDINATES (A.U.)
---------------------------
 C      0   0   0     0.000000000000     0.00000000     0.00000000
 C      1   0   0     2.905725486479     0.00000000     0.00000000
 O      2   1   0     2.714558129289   107.49214066     0.00000000
 C      3   2   1     2.574800092267   117.21797905   153.60595832
 O      4   3   2     2.305332670673   120.75208554    40.65492539
 C      4   3   2     2.830941555011   111.67309571   248.04757740
 C      6   4   3     2.563375645137   123.73236130   322.05053893
 C      7   6   4     2.861896546193   127.33335811   357.87358858
 N      7   6   4     2.642009736163   119.81005459   181.55321570
 C      9   7   6     2.589681952992   124.78843250     6.53048893
 S     10   9   7     3.125433070031   121.76315133   175.61144533
 N     10   9   7     2.593864793674   116.55716402   355.59571171
 C     12  10   9     2.788135545090   125.03281211   353.22512600
 C     13  12  10     2.884233345004   110.55415459   250.48245922
 C     14  13  12     2.658805400411   120.48820692   235.98607853
 C     15  14  13     2.654976283138   120.64917954   180.86581930
 C     16  15  14     2.655538376785   119.66436809     0.07141675
 C     17  16  15     2.648261810043   119.86538477     0.13872946
 O     18  17  16     2.564075267075   120.02474984   179.51502098
 C     18  17  16     2.642337076591   120.33809076   359.86974279
 H      1   2   3     2.073168559344   110.63124452   299.55802651
 H      1   2   3     2.072659815132   110.46494599   179.77447331
 H      1   2   3     2.073182401651   110.64935632    59.89588610
 H      2   1   3     2.077873080073   108.93322615   119.76594963
 H      2   1   3     2.075113060563   110.99711281   239.16693700
 H      8   7   6     2.073393067648   110.99915860   319.55767758
 H      8   7   6     2.072657112403   112.47313578   199.75940681
 H      8   7   6     2.073260281542   110.62424565    79.09843372
 H      9   7   6     1.904078167889   119.70915217   181.99031132
 H     12  10   9     1.912279866551   114.86917943   181.96322554
 H     13  12  10     2.078026102640   107.81922898   132.07947060
 H     15  14  13     2.054755226771   119.79925800   359.68171575
 H     16  15  14     2.057137544514   119.91347785   179.66072743
 H     17  16  15     2.050233143264   119.88858590   179.85005374
 H     19  18  17     1.831263143891   107.40687523     4.01969424
 H     20  18  17     2.049517863576   119.14336762   180.14824552

---------------------
BASIS SET INFORMATION
---------------------
There are 5 groups of distinct atoms

 Group   1 Type C   : 18s5p2d1f contracted to 4s3p2d1f pattern {8811/311/11/1}
 Group   2 Type O   : 18s5p2d1f contracted to 4s3p2d1f pattern {8811/311/11/1}
 Group   3 Type N   : 18s5p2d1f contracted to 4s3p2d1f pattern {8811/311/11/1}
 Group   4 Type S   : 41s16p2d1f contracted to 5s4p2d1f pattern {13131311/7711/11/1}
 Group   5 Type H   : 5s2p1d contracted to 3s2p1d pattern {311/11/1}

Atom   0C    basis set group =>   1
Atom   1C    basis set group =>   1
Atom   2O    basis set group =>   2
Atom   3C    basis set group =>   1
Atom   4O    basis set group =>   2
Atom   5C    basis set group =>   1
Atom   6C    basis set group =>   1
Atom   7C    basis set group =>   1
Atom   8N    basis set group =>   3
Atom   9C    basis set group =>   1
Atom  10S    basis set group =>   4
Atom  11N    basis set group =>   3
Atom  12C    basis set group =>   1
Atom  13C    basis set group =>   1
Atom  14C    basis set group =>   1
Atom  15C    basis set group =>   1
Atom  16C    basis set group =>   1
Atom  17C    basis set group =>   1
Atom  18O    basis set group =>   2
Atom  19C    basis set group =>   1
Atom  20H    basis set group =>   5
Atom  21H    basis set group =>   5
Atom  22H    basis set group =>   5
Atom  23H    basis set group =>   5
Atom  24H    basis set group =>   5
Atom  25H    basis set group =>   5
Atom  26H    basis set group =>   5
Atom  27H    basis set group =>   5
Atom  28H    basis set group =>   5
Atom  29H    basis set group =>   5
Atom  30H    basis set group =>   5
Atom  31H    basis set group =>   5
Atom  32H    basis set group =>   5
Atom  33H    basis set group =>   5
Atom  34H    basis set group =>   5
Atom  35H    basis set group =>   5
---------------------------------
AUXILIARY/C BASIS SET INFORMATION
---------------------------------
There are 5 groups of distinct atoms

 Group   1 Type C   : 8s6p5d3f1g contracted to 8s6p5d3f1g pattern {11111111/111111/11111/111/1}
 Group   2 Type O   : 8s6p5d3f1g contracted to 8s6p5d3f1g pattern {11111111/111111/11111/111/1}
 Group   3 Type N   : 8s6p5d3f1g contracted to 8s6p5d3f1g pattern {11111111/111111/11111/111/1}
 Group   4 Type S   : 10s8p7d5f2g contracted to 10s8p7d5f2g pattern {1111111111/11111111/1111111/11111/11}
 Group   5 Type H   : 4s3p2d1f contracted to 4s3p2d1f pattern {1111/111/11/1}

Atom   0C    basis set group =>   1
Atom   1C    basis set group =>   1
Atom   2O    basis set group =>   2
Atom   3C    basis set group =>   1
Atom   4O    basis set group =>   2
Atom   5C    basis set group =>   1
Atom   6C    basis set group =>   1
Atom   7C    basis set group =>   1
Atom   8N    basis set group =>   3
Atom   9C    basis set group =>   1
Atom  10S    basis set group =>   4
Atom  11N    basis set group =>   3
Atom  12C    basis set group =>   1
Atom  13C    basis set group =>   1
Atom  14C    basis set group =>   1
Atom  15C    basis set group =>   1
Atom  16C    basis set group =>   1
Atom  17C    basis set group =>   1
Atom  18O    basis set group =>   2
Atom  19C    basis set group =>   1
Atom  20H    basis set group =>   5
Atom  21H    basis set group =>   5
Atom  22H    basis set group =>   5
Atom  23H    basis set group =>   5
Atom  24H    basis set group =>   5
Atom  25H    basis set group =>   5
Atom  26H    basis set group =>   5
Atom  27H    basis set group =>   5
Atom  28H    basis set group =>   5
Atom  29H    basis set group =>   5
Atom  30H    basis set group =>   5
Atom  31H    basis set group =>   5
Atom  32H    basis set group =>   5
Atom  33H    basis set group =>   5
Atom  34H    basis set group =>   5
Atom  35H    basis set group =>   5
------------------------------------------------------------------------------
                           ORCA GTO INTEGRAL CALCULATION
------------------------------------------------------------------------------
------------------------------------------------------------------------------
                   ___                                                        
                  /   \      - P O W E R E D   B Y -                         
                 /     \                                                     
                 |  |  |   _    _      __       _____    __    __             
                 |  |  |  | |  | |    /  \     |  _  \  |  |  /  |          
                  \  \/   | |  | |   /    \    | | | |  |  | /  /          
                 / \  \   | |__| |  /  /\  \   | |_| |  |  |/  /          
                |  |  |   |  __  | /  /__\  \  |    /   |      \           
                |  |  |   | |  | | |   __   |  |    \   |  |\   \          
                \     /   | |  | | |  |  |  |  | |\  \  |  | \   \       
                 \___/    |_|  |_| |__|  |__|  |_| \__\ |__|  \__/        
                                                                              
                      - O R C A' S   B I G   F R I E N D -                    
                                      &                                       
                       - I N T E G R A L  F E E D E R -                       
                                                                              
 v1 FN, 2020, v2 2021                                                         
------------------------------------------------------------------------------


Reading SHARK input file CONFS/Conf875.orca.SHARKINP.tmp ... ok
----------------------
SHARK INTEGRAL PACKAGE
----------------------

Number of atoms                             ...     36
Number of basis functions                   ...    828
Number of shells                            ...    298
Maximum angular momentum                    ...      3
Integral batch strategy                     ... SHARK/LIBINT Hybrid
RI-J (if used) integral strategy            ... SPLIT-RIJ (Revised 2003 algorithm where possible)
Printlevel                                  ...      1
Contraction scheme used                     ... SEGMENTED contraction
Coulomb Range Separation                    ... NOT USED
Exchange Range Separation                   ... NOT USED
Finite Nucleus Model                        ... NOT USED
Auxiliary Coulomb fitting basis             ... NOT available
Auxiliary J/K fitting basis                 ... NOT available
Auxiliary Correlation fitting basis         ... AVAILABLE
   # of basis functions in Aux-C            ...   2141
   # of shells in Aux-C                     ...    629
   Maximum angular momentum in Aux-C        ...      4
Auxiliary 'external' fitting basis          ... NOT available
Integral threshold                          ...     2.500000e-11
Primitive cut-off                           ...     2.500000e-12
Primitive pair pre-selection threshold      ...     2.500000e-12

Calculating pre-screening integrals         ... done (  0.5 sec) Dimension = 298
Organizing shell pair data                  ... done (  1.3 sec)
Shell pair information
Total number of shell pairs                 ...     44551
Shell pairs after pre-screening             ...     33744
Total number of primitive shell pairs       ...    234348
Primitive shell pairs kept                  ...     96521
          la=0 lb=0:   6727 shell pairs
          la=1 lb=0:   9373 shell pairs
          la=1 lb=1:   3312 shell pairs
          la=2 lb=0:   5387 shell pairs
          la=2 lb=1:   3700 shell pairs
          la=2 lb=2:   1066 shell pairs
          la=3 lb=0:   1952 shell pairs
          la=3 lb=1:   1335 shell pairs
          la=3 lb=2:    742 shell pairs
          la=3 lb=3:    150 shell pairs

Calculating one electron integrals          ... done (  0.3 sec)
Calculating RI/C V-Matrix + Cholesky decomp.... done (  1.0 sec)
Calculating Nuclear repulsion               ... done (  0.2 sec) ENN=   1715.982785510583 Eh

SHARK setup successfully completed in   4.2 seconds

Maximum memory used throughout the entire GTOINT-calculation: 500.9 MB
-------------------------------------------------------------------------------
                                 ORCA SCF
-------------------------------------------------------------------------------

------------
SCF SETTINGS
------------
Hamiltonian:
 Ab initio Hamiltonian  Method          .... Hartree-Fock(GTOs)


General Settings:
 Integral files         IntName         .... CONFS/Conf875.orca
 Hartree-Fock type      HFTyp           .... RHF
 Total Charge           Charge          ....    0
 Multiplicity           Mult            ....    1
 Number of Electrons    NEL             ....  154
 Basis Dimension        Dim             ....  828
 Nuclear Repulsion      ENuc            ....   1715.9827855106 Eh

Convergence Acceleration:
 DIIS                   CNVDIIS         .... on
   Start iteration      DIISMaxIt       ....    12
   Startup error        DIISStart       ....  0.200000
   # of expansion vecs  DIISMaxEq       ....     5
   Bias factor          DIISBfac        ....   1.050
   Max. coefficient     DIISMaxC        ....  10.000
 Trust-Rad. Augm. Hess. CNVTRAH         .... auto
   Auto Start mean grad. ratio tolernc. ....  1.125000
   Auto Start start iteration           ....    20
   Auto Start num. interpolation iter.  ....    10
   Max. Number of Micro iterations      ....    16
   Max. Number of Macro iterations      .... Maxiter - #DIIS iter
   Number of Davidson start vectors     ....     2
   Converg. threshold I  (grad. norm)   ....   1.000e-05
   Converg. threshold II (energy diff.) ....   1.000e-08
   Grad. Scal. Fac. for Micro threshold ....   0.100
   Minimum threshold for Micro iter.    ....   0.010
   NR start threshold (gradient norm)   ....   0.001
   Initial trust radius                 ....   0.400
   Minimum AH scaling param. (alpha)    ....   1.000
   Maximum AH scaling param. (alpha)    .... 1000.000
   Orbital update algorithm             .... Taylor
   White noise on init. David. guess    .... on
   Maximum white noise                  ....   0.010
   Quad. conv. algorithm                .... NR
 SOSCF                  CNVSOSCF        .... on
   Start iteration      SOSCFMaxIt      ....   150
   Startup grad/error   SOSCFStart      ....  0.003300
 Level Shifting         CNVShift        .... on
   Level shift para.    LevelShift      ....    0.2500
   Turn off err/grad.   ShiftErr        ....    0.0010
 Zerner damping         CNVZerner       .... off
 Static damping         CNVDamp         .... on
   Fraction old density DampFac         ....    0.7000
   Max. Damping (<1)    DampMax         ....    0.9800
   Min. Damping (>=0)   DampMin         ....    0.0000
   Turn off err/grad.   DampErr         ....    0.1000
 Fernandez-Rico         CNVRico         .... off

SCF Procedure:
 Maximum # iterations   MaxIter         ....   125
 SCF integral mode      SCFMode         .... Direct
   Integral package                     .... SHARK and LIBINT hybrid scheme
 Reset frequency        DirectResetFreq ....    20
 Integral Threshold     Thresh          ....  2.500e-11 Eh
 Primitive CutOff       TCut            ....  2.500e-12 Eh

Convergence Tolerance:
 Convergence Check Mode ConvCheckMode   .... Total+1el-Energy
 Convergence forced     ConvForced      .... 1
 Energy Change          TolE            ....  1.000e-08 Eh
 1-El. energy change                    ....  1.000e-05 Eh
 Orbital Gradient       TolG            ....  1.000e-05
 Orbital Rotation angle TolX            ....  1.000e-05
 DIIS Error             TolErr          ....  5.000e-07


Diagonalization of the overlap matrix:
Smallest eigenvalue                        ... 3.422e-05
Time for diagonalization                   ...    0.112 sec
Threshold for overlap eigenvalues          ... 1.000e-08
Number of eigenvalues below threshold      ... 0
Time for construction of square roots      ...    0.498 sec
Total time needed                          ...    0.611 sec

Time for model grid setup =    1.528 sec

------------------------------
INITIAL GUESS: MODEL POTENTIAL
------------------------------
Loading Hartree-Fock densities                     ... done
Calculating cut-offs                               ... done
Initializing the effective Hamiltonian             ... done
Setting up the integral package (SHARK)            ... done
Starting the Coulomb interaction                   ... done (   4.4 sec)
Reading the grid                                   ... done
Mapping shells                                     ... done
Starting the XC term evaluation                    ... done (   1.2 sec)
Transforming the Hamiltonian                       ... done (   0.1 sec)
Diagonalizing the Hamiltonian                      ... done (   0.1 sec)
Back transforming the eigenvectors                 ... done (   0.0 sec)
Now organizing SCF variables                       ... done
                      ------------------
                      INITIAL GUESS DONE (   8.0 sec)
                      ------------------
--------------
SCF ITERATIONS
--------------
ITER       Energy         Delta-E        Max-DP      RMS-DP      [F,P]     Damp
               ***  Starting incremental Fock matrix formation  ***
  0  -1269.9962932119   0.000000000000 0.04929223  0.00043695  0.3097016 0.7000
  1  -1270.2652412566  -0.268948044613 0.03606706  0.00035231  0.1825344 0.7000
                               ***Turning on DIIS***
  2  -1270.4326051423  -0.167363885766 0.02583015  0.00023528  0.1097425 0.7000
  3  -1272.5885796949  -2.155974552563 0.06312549  0.00050791  0.0828711 0.0000
  4  -1270.7405964260   1.847983268916 0.01168272  0.00010068  0.0070535 0.0000
  5  -1270.8039827309  -0.063386304922 0.00504947  0.00005377  0.0036579 0.0000
                      *** Initiating the SOSCF procedure ***
                           *** Shutting down DIIS ***
                      *** Re-Reading the Fockian *** 
                      *** Removing any level shift *** 
ITER      Energy       Delta-E        Grad      Rot      Max-DP    RMS-DP
  6  -1270.78152953   0.0224532035  0.001807  0.001807  0.002669  0.000027
               *** Restarting incremental Fock matrix formation ***
  7  -1270.79597473  -0.0144452050  0.001033  0.002668  0.001830  0.000017
  8  -1270.79602638  -0.0000516449  0.000480  0.003222  0.002043  0.000019
  9  -1270.79604646  -0.0000200809  0.000196  0.000389  0.000381  0.000005
 10  -1270.79604911  -0.0000026536  0.000057  0.000154  0.000125  0.000001
 11  -1270.79604936  -0.0000002506  0.000022  0.000130  0.000074  0.000001
 12  -1270.79604943  -0.0000000693  0.000011  0.000042  0.000029  0.000000
 13  -1270.79604943  -0.0000000033  0.000003  0.000009  0.000006  0.000000
                  ***Gradient check signals convergence***
              ***Rediagonalizing the Fockian in SOSCF/NRSCF***

               *****************************************************
               *                     SUCCESS                       *
               *           SCF CONVERGED AFTER  14 CYCLES          *
               *****************************************************


----------------
TOTAL SCF ENERGY
----------------

Total Energy       :        -1270.79604943 Eh          -34580.11852 eV

Components:
Nuclear Repulsion  :         1715.98278551 Eh           46694.26548 eV
Electronic Energy  :        -2986.77883494 Eh          -81274.38401 eV
One Electron Energy:        -5153.16321100 Eh         -140224.69986 eV
Two Electron Energy:         2166.38437606 Eh           58950.31585 eV

Virial components:
Potential Energy   :        -2539.82009032 Eh          -69112.01824 eV
Kinetic Energy     :         1269.02404089 Eh           34531.89972 eV
Virial Ratio       :            2.00139636


---------------
SCF CONVERGENCE
---------------

  Last Energy change         ...    7.8876e-09  Tolerance :   1.0000e-08
  Last MAX-Density change    ...    2.1962e-06  Tolerance :   1.0000e-07
  Last RMS-Density change    ...    3.3054e-08  Tolerance :   5.0000e-09
  Last Orbital Gradient      ...    1.3237e-06  Tolerance :   1.0000e-05
  Last Orbital Rotation      ...    3.0976e-06  Tolerance :   1.0000e-05

             **** THE GBW FILE WAS UPDATED (CONFS/Conf875.orca.gbw) ****
             **** DENSITY CONFS/Conf875.orca.scfp WAS UPDATED ****
             **** ENERGY FILE WAS UPDATED (CONFS/Conf875.orca.en.tmp) ****
             **** THE GBW FILE WAS UPDATED (CONFS/Conf875.orca.gbw) ****
             **** DENSITY CONFS/Conf875.orca.scfp WAS UPDATED ****
----------------
ORBITAL ENERGIES
----------------

  NO   OCC          E(Eh)            E(eV) 
   0   2.0000     -91.888531     -2500.4141 
   1   2.0000     -20.595847      -560.4415 
   2   2.0000     -20.588581      -560.2438 
   3   2.0000     -20.553522      -559.2898 
   4   2.0000     -15.628033      -425.2604 
   5   2.0000     -15.608147      -424.7193 
   6   2.0000     -11.393883      -310.0433 
   7   2.0000     -11.384050      -309.7757 
   8   2.0000     -11.332725      -308.3791 
   9   2.0000     -11.312025      -307.8159 
  10   2.0000     -11.308530      -307.7207 
  11   2.0000     -11.298089      -307.4366 
  12   2.0000     -11.259815      -306.3951 
  13   2.0000     -11.259636      -306.3903 
  14   2.0000     -11.257417      -306.3299 
  15   2.0000     -11.252056      -306.1840 
  16   2.0000     -11.241747      -305.9035 
  17   2.0000     -11.237630      -305.7915 
  18   2.0000     -11.234822      -305.7151 
  19   2.0000     -11.232800      -305.6600 
  20   2.0000      -8.893611      -242.0074 
  21   2.0000      -6.575190      -178.9200 
  22   2.0000      -6.573179      -178.8653 
  23   2.0000      -6.572596      -178.8494 
  24   2.0000      -1.454261       -39.5724 
  25   2.0000      -1.415623       -38.5211 
  26   2.0000      -1.356690       -36.9174 
  27   2.0000      -1.339243       -36.4427 
  28   2.0000      -1.237607       -33.6770 
  29   2.0000      -1.156122       -31.4597 
  30   2.0000      -1.121225       -30.5101 
  31   2.0000      -1.044953       -28.4346 
  32   2.0000      -1.036200       -28.1964 
  33   2.0000      -1.013518       -27.5792 
  34   2.0000      -0.999128       -27.1876 
  35   2.0000      -0.984807       -26.7980 
  36   2.0000      -0.923112       -25.1192 
  37   2.0000      -0.884263       -24.0620 
  38   2.0000      -0.847573       -23.0636 
  39   2.0000      -0.837959       -22.8020 
  40   2.0000      -0.832066       -22.6417 
  41   2.0000      -0.822865       -22.3913 
  42   2.0000      -0.758318       -20.6349 
  43   2.0000      -0.736014       -20.0280 
  44   2.0000      -0.727959       -19.8088 
  45   2.0000      -0.693954       -18.8834 
  46   2.0000      -0.684704       -18.6318 
  47   2.0000      -0.681618       -18.5478 
  48   2.0000      -0.676444       -18.4070 
  49   2.0000      -0.657142       -17.8817 
  50   2.0000      -0.652955       -17.7678 
  51   2.0000      -0.644153       -17.5283 
  52   2.0000      -0.636125       -17.3098 
  53   2.0000      -0.605521       -16.4771 
  54   2.0000      -0.604136       -16.4394 
  55   2.0000      -0.602162       -16.3857 
  56   2.0000      -0.599301       -16.3078 
  57   2.0000      -0.576840       -15.6966 
  58   2.0000      -0.575178       -15.6514 
  59   2.0000      -0.566019       -15.4022 
  60   2.0000      -0.558453       -15.1963 
  61   2.0000      -0.551653       -15.0112 
  62   2.0000      -0.544369       -14.8130 
  63   2.0000      -0.521369       -14.1872 
  64   2.0000      -0.513970       -13.9858 
  65   2.0000      -0.510136       -13.8815 
  66   2.0000      -0.507186       -13.8012 
  67   2.0000      -0.498054       -13.5527 
  68   2.0000      -0.482688       -13.1346 
  69   2.0000      -0.464971       -12.6525 
  70   2.0000      -0.457940       -12.4612 
  71   2.0000      -0.454166       -12.3585 
  72   2.0000      -0.353833        -9.6283 
  73   2.0000      -0.347850        -9.4655 
  74   2.0000      -0.327883        -8.9221 
  75   2.0000      -0.319105        -8.6833 
  76   2.0000      -0.315377        -8.5818 
  77   0.0000       0.072466         1.9719 
  78   0.0000       0.105367         2.8672 
  79   0.0000       0.118710         3.2303 
  80   0.0000       0.132379         3.6022 
  81   0.0000       0.137555         3.7431 
  82   0.0000       0.143730         3.9111 
  83   0.0000       0.151133         4.1126 
  84   0.0000       0.153881         4.1873 
  85   0.0000       0.161724         4.4007 
  86   0.0000       0.169953         4.6247 
  87   0.0000       0.177361         4.8262 
  88   0.0000       0.189272         5.1503 
  89   0.0000       0.193777         5.2729 
  90   0.0000       0.202874         5.5205 
  91   0.0000       0.205796         5.6000 
  92   0.0000       0.210997         5.7415 
  93   0.0000       0.216165         5.8822 
  94   0.0000       0.223789         6.0896 
  95   0.0000       0.227541         6.1917 
  96   0.0000       0.237622         6.4660 
  97   0.0000       0.246141         6.6978 
  98   0.0000       0.252558         6.8724 
  99   0.0000       0.284093         7.7306 
 100   0.0000       0.296740         8.0747 
 101   0.0000       0.308763         8.4019 
 102   0.0000       0.314868         8.5680 
 103   0.0000       0.323660         8.8072 
 104   0.0000       0.327173         8.9028 
 105   0.0000       0.334338         9.0978 
 106   0.0000       0.343860         9.3569 
 107   0.0000       0.349835         9.5195 
 108   0.0000       0.354054         9.6343 
 109   0.0000       0.359247         9.7756 
 110   0.0000       0.373466        10.1625 
 111   0.0000       0.379098        10.3158 
 112   0.0000       0.384501        10.4628 
 113   0.0000       0.394100        10.7240 
 114   0.0000       0.396485        10.7889 
 115   0.0000       0.409773        11.1505 
 116   0.0000       0.411864        11.2074 
 117   0.0000       0.424605        11.5541 
 118   0.0000       0.433312        11.7910 
 119   0.0000       0.438697        11.9376 
 120   0.0000       0.442560        12.0427 
 121   0.0000       0.450049        12.2464 
 122   0.0000       0.456843        12.4313 
 123   0.0000       0.458663        12.4809 
 124   0.0000       0.460593        12.5334 
 125   0.0000       0.476132        12.9562 
 126   0.0000       0.481190        13.0938 
 127   0.0000       0.489425        13.3179 
 128   0.0000       0.492739        13.4081 
 129   0.0000       0.496457        13.5093 
 130   0.0000       0.503815        13.7095 
 131   0.0000       0.509407        13.8617 
 132   0.0000       0.512115        13.9354 
 133   0.0000       0.517042        14.0694 
 134   0.0000       0.524498        14.2723 
 135   0.0000       0.529064        14.3966 
 136   0.0000       0.535910        14.5829 
 137   0.0000       0.540409        14.7053 
 138   0.0000       0.543919        14.8008 
 139   0.0000       0.550225        14.9724 
 140   0.0000       0.553854        15.0711 
 141   0.0000       0.558256        15.1909 
 142   0.0000       0.562811        15.3149 
 143   0.0000       0.566756        15.4222 
 144   0.0000       0.570461        15.5230 
 145   0.0000       0.576555        15.6889 
 146   0.0000       0.581258        15.8168 
 147   0.0000       0.592177        16.1140 
 148   0.0000       0.594782        16.1848 
 149   0.0000       0.596673        16.2363 
 150   0.0000       0.601486        16.3673 
 151   0.0000       0.609230        16.5780 
 152   0.0000       0.613432        16.6923 
 153   0.0000       0.619437        16.8557 
 154   0.0000       0.623719        16.9723 
 155   0.0000       0.626374        17.0445 
 156   0.0000       0.633260        17.2319 
 157   0.0000       0.637009        17.3339 
 158   0.0000       0.638644        17.3784 
 159   0.0000       0.643385        17.5074 
 160   0.0000       0.645719        17.5709 
 161   0.0000       0.651936        17.7401 
 162   0.0000       0.655391        17.8341 
 163   0.0000       0.663970        18.0676 
 164   0.0000       0.669155        18.2086 
 165   0.0000       0.674000        18.3405 
 166   0.0000       0.677867        18.4457 
 167   0.0000       0.681149        18.5350 
 168   0.0000       0.687530        18.7087 
 169   0.0000       0.689784        18.7700 
 170   0.0000       0.697062        18.9680 
 171   0.0000       0.705036        19.1850 
 172   0.0000       0.710376        19.3303 
 173   0.0000       0.715945        19.4819 
 174   0.0000       0.726832        19.7781 
 175   0.0000       0.731845        19.9145 
 176   0.0000       0.737625        20.0718 
 177   0.0000       0.744017        20.2457 
 178   0.0000       0.748008        20.3543 
 179   0.0000       0.754651        20.5351 
 180   0.0000       0.758618        20.6430 
 181   0.0000       0.765840        20.8396 
 182   0.0000       0.785761        21.3816 
 183   0.0000       0.789365        21.4797 
 184   0.0000       0.797638        21.7048 
 185   0.0000       0.808861        22.0102 
 186   0.0000       0.811907        22.0931 
 187   0.0000       0.814784        22.1714 
 188   0.0000       0.826363        22.4865 
 189   0.0000       0.830920        22.6105 
 190   0.0000       0.841495        22.8983 
 191   0.0000       0.847079        23.0502 
 192   0.0000       0.849157        23.1067 
 193   0.0000       0.856251        23.2998 
 194   0.0000       0.867321        23.6010 
 195   0.0000       0.872033        23.7292 
 196   0.0000       0.883458        24.0401 
 197   0.0000       0.890228        24.2243 
 198   0.0000       0.897401        24.4195 
 199   0.0000       0.901385        24.5279 
 200   0.0000       0.911538        24.8042 
 201   0.0000       0.921337        25.0708 
 202   0.0000       0.930412        25.3178 
 203   0.0000       0.936795        25.4915 
 204   0.0000       0.940156        25.5829 
 205   0.0000       0.956535        26.0286 
 206   0.0000       0.959595        26.1119 
 207   0.0000       0.965854        26.2822 
 208   0.0000       0.973517        26.4907 
 209   0.0000       0.979343        26.6493 
 210   0.0000       0.980395        26.6779 
 211   0.0000       0.983075        26.7508 
 212   0.0000       0.998855        27.1802 
 213   0.0000       1.008383        27.4395 
 214   0.0000       1.012943        27.5636 
 215   0.0000       1.018656        27.7190 
 216   0.0000       1.024784        27.8858 
 217   0.0000       1.035104        28.1666 
 218   0.0000       1.040858        28.3232 
 219   0.0000       1.041893        28.3514 
 220   0.0000       1.049358        28.5545 
 221   0.0000       1.056805        28.7571 
 222   0.0000       1.061188        28.8764 
 223   0.0000       1.065062        28.9818 
 224   0.0000       1.073332        29.2068 
 225   0.0000       1.088339        29.6152 
 226   0.0000       1.095929        29.8217 
 227   0.0000       1.102304        29.9952 
 228   0.0000       1.109369        30.1875 
 229   0.0000       1.119500        30.4631 
 230   0.0000       1.129221        30.7277 
 231   0.0000       1.130557        30.7640 
 232   0.0000       1.141410        31.0593 
 233   0.0000       1.144700        31.1489 
 234   0.0000       1.147771        31.2324 
 235   0.0000       1.162596        31.6358 
 236   0.0000       1.174455        31.9585 
 237   0.0000       1.176553        32.0156 
 238   0.0000       1.184071        32.2202 
 239   0.0000       1.186309        32.2811 
 240   0.0000       1.193402        32.4741 
 241   0.0000       1.203503        32.7490 
 242   0.0000       1.214082        33.0368 
 243   0.0000       1.217578        33.1320 
 244   0.0000       1.221891        33.2493 
 245   0.0000       1.227455        33.4008 
 246   0.0000       1.236122        33.6366 
 247   0.0000       1.243857        33.8471 
 248   0.0000       1.244117        33.8542 
 249   0.0000       1.252636        34.0860 
 250   0.0000       1.259003        34.2592 
 251   0.0000       1.269881        34.5552 
 252   0.0000       1.274586        34.6832 
 253   0.0000       1.280900        34.8550 
 254   0.0000       1.284241        34.9460 
 255   0.0000       1.291976        35.1564 
 256   0.0000       1.309687        35.6384 
 257   0.0000       1.312286        35.7091 
 258   0.0000       1.320338        35.9282 
 259   0.0000       1.331504        36.2321 
 260   0.0000       1.342281        36.5253 
 261   0.0000       1.345625        36.6163 
 262   0.0000       1.352895        36.8141 
 263   0.0000       1.360284        37.0152 
 264   0.0000       1.371023        37.3074 
 265   0.0000       1.383611        37.6500 
 266   0.0000       1.389815        37.8188 
 267   0.0000       1.392571        37.8938 
 268   0.0000       1.400461        38.1085 
 269   0.0000       1.404081        38.2070 
 270   0.0000       1.407757        38.3070 
 271   0.0000       1.428178        38.8627 
 272   0.0000       1.430180        38.9172 
 273   0.0000       1.443704        39.2852 
 274   0.0000       1.452424        39.5225 
 275   0.0000       1.453975        39.5647 
 276   0.0000       1.470194        40.0060 
 277   0.0000       1.475949        40.1626 
 278   0.0000       1.482349        40.3368 
 279   0.0000       1.487148        40.4674 
 280   0.0000       1.491875        40.5960 
 281   0.0000       1.497081        40.7376 
 282   0.0000       1.505173        40.9578 
 283   0.0000       1.509718        41.0815 
 284   0.0000       1.516838        41.2753 
 285   0.0000       1.523614        41.4596 
 286   0.0000       1.535628        41.7866 
 287   0.0000       1.542558        41.9751 
 288   0.0000       1.548695        42.1421 
 289   0.0000       1.553499        42.2729 
 290   0.0000       1.557874        42.3919 
 291   0.0000       1.562548        42.5191 
 292   0.0000       1.564224        42.5647 
 293   0.0000       1.580787        43.0154 
 294   0.0000       1.589640        43.2563 
 295   0.0000       1.596720        43.4489 
 296   0.0000       1.604274        43.6545 
 297   0.0000       1.607273        43.7361 
 298   0.0000       1.619549        44.0702 
 299   0.0000       1.625334        44.2276 
 300   0.0000       1.631246        44.3885 
 301   0.0000       1.637404        44.5560 
 302   0.0000       1.647160        44.8215 
 303   0.0000       1.648149        44.8484 
 304   0.0000       1.667226        45.3675 
 305   0.0000       1.669455        45.4282 
 306   0.0000       1.676481        45.6194 
 307   0.0000       1.689793        45.9816 
 308   0.0000       1.696325        46.1594 
 309   0.0000       1.704450        46.3804 
 310   0.0000       1.718663        46.7672 
 311   0.0000       1.726894        46.9912 
 312   0.0000       1.727708        47.0133 
 313   0.0000       1.737699        47.2852 
 314   0.0000       1.752046        47.6756 
 315   0.0000       1.759501        47.8784 
 316   0.0000       1.760573        47.9076 
 317   0.0000       1.771353        48.2010 
 318   0.0000       1.781785        48.4848 
 319   0.0000       1.796886        48.8957 
 320   0.0000       1.799116        48.9564 
 321   0.0000       1.824302        49.6418 
 322   0.0000       1.831548        49.8390 
 323   0.0000       1.845879        50.2289 
 324   0.0000       1.860395        50.6239 
 325   0.0000       1.868738        50.8509 
 326   0.0000       1.882808        51.2338 
 327   0.0000       1.902238        51.7625 
 328   0.0000       1.909237        51.9530 
 329   0.0000       1.915263        52.1170 
 330   0.0000       1.932594        52.5886 
 331   0.0000       1.936712        52.7006 
 332   0.0000       1.948198        53.0132 
 333   0.0000       1.960755        53.3549 
 334   0.0000       1.964604        53.4596 
 335   0.0000       1.984776        54.0085 
 336   0.0000       1.987922        54.0941 
 337   0.0000       2.004674        54.5499 
 338   0.0000       2.018657        54.9305 
 339   0.0000       2.025172        55.1077 
 340   0.0000       2.030638        55.2565 
 341   0.0000       2.031568        55.2818 
 342   0.0000       2.054545        55.9070 
 343   0.0000       2.073369        56.4192 
 344   0.0000       2.089807        56.8665 
 345   0.0000       2.099855        57.1400 
 346   0.0000       2.125841        57.8471 
 347   0.0000       2.131484        58.0006 
 348   0.0000       2.155652        58.6583 
 349   0.0000       2.159107        58.7523 
 350   0.0000       2.194741        59.7219 
 351   0.0000       2.199793        59.8594 
 352   0.0000       2.219632        60.3993 
 353   0.0000       2.227201        60.6052 
 354   0.0000       2.240341        60.9628 
 355   0.0000       2.254879        61.3584 
 356   0.0000       2.280850        62.0651 
 357   0.0000       2.290162        62.3185 
 358   0.0000       2.292026        62.3692 
 359   0.0000       2.300154        62.5904 
 360   0.0000       2.311175        62.8903 
 361   0.0000       2.320979        63.1571 
 362   0.0000       2.342581        63.7449 
 363   0.0000       2.360645        64.2364 
 364   0.0000       2.367105        64.4122 
 365   0.0000       2.375161        64.6314 
 366   0.0000       2.385372        64.9093 
 367   0.0000       2.393372        65.1270 
 368   0.0000       2.410166        65.5839 
 369   0.0000       2.415015        65.7159 
 370   0.0000       2.447085        66.5886 
 371   0.0000       2.454155        66.7810 
 372   0.0000       2.460384        66.9504 
 373   0.0000       2.475879        67.3721 
 374   0.0000       2.485388        67.6309 
 375   0.0000       2.492229        67.8170 
 376   0.0000       2.512439        68.3670 
 377   0.0000       2.527811        68.7852 
 378   0.0000       2.538662        69.0805 
 379   0.0000       2.554243        69.5045 
 380   0.0000       2.575578        70.0850 
 381   0.0000       2.585788        70.3629 
 382   0.0000       2.589573        70.4659 
 383   0.0000       2.606451        70.9251 
 384   0.0000       2.610640        71.0391 
 385   0.0000       2.623434        71.3873 
 386   0.0000       2.629444        71.5508 
 387   0.0000       2.640418        71.8494 
 388   0.0000       2.649812        72.1051 
 389   0.0000       2.663273        72.4713 
 390   0.0000       2.680522        72.9407 
 391   0.0000       2.688003        73.1443 
 392   0.0000       2.696243        73.3685 
 393   0.0000       2.708040        73.6895 
 394   0.0000       2.725829        74.1736 
 395   0.0000       2.729746        74.2802 
 396   0.0000       2.743634        74.6581 
 397   0.0000       2.745217        74.7011 
 398   0.0000       2.756935        75.0200 
 399   0.0000       2.768005        75.3213 
 400   0.0000       2.769574        75.3639 
 401   0.0000       2.774939        75.5099 
 402   0.0000       2.795440        76.0678 
 403   0.0000       2.804672        76.3190 
 404   0.0000       2.819438        76.7208 
 405   0.0000       2.825409        76.8833 
 406   0.0000       2.831957        77.0615 
 407   0.0000       2.845006        77.4166 
 408   0.0000       2.850449        77.5647 
 409   0.0000       2.856152        77.7198 
 410   0.0000       2.867409        78.0262 
 411   0.0000       2.875454        78.2451 
 412   0.0000       2.883446        78.4626 
 413   0.0000       2.899915        78.9107 
 414   0.0000       2.907640        79.1209 
 415   0.0000       2.917845        79.3986 
 416   0.0000       2.923524        79.5531 
 417   0.0000       2.937460        79.9324 
 418   0.0000       2.942092        80.0584 
 419   0.0000       2.953691        80.3740 
 420   0.0000       2.960515        80.5597 
 421   0.0000       2.974028        80.9274 
 422   0.0000       2.983994        81.1986 
 423   0.0000       2.994025        81.4715 
 424   0.0000       2.998531        81.5942 
 425   0.0000       3.010621        81.9232 
 426   0.0000       3.020059        82.1800 
 427   0.0000       3.023771        82.2810 
 428   0.0000       3.032749        82.5253 
 429   0.0000       3.046261        82.8930 
 430   0.0000       3.048923        82.9654 
 431   0.0000       3.052427        83.0608 
 432   0.0000       3.060911        83.2916 
 433   0.0000       3.072280        83.6010 
 434   0.0000       3.080162        83.8155 
 435   0.0000       3.084456        83.9323 
 436   0.0000       3.092026        84.1383 
 437   0.0000       3.096982        84.2732 
 438   0.0000       3.100394        84.3660 
 439   0.0000       3.109032        84.6011 
 440   0.0000       3.114339        84.7455 
 441   0.0000       3.118457        84.8575 
 442   0.0000       3.126907        85.0875 
 443   0.0000       3.132889        85.2503 
 444   0.0000       3.143120        85.5286 
 445   0.0000       3.143948        85.5512 
 446   0.0000       3.161686        86.0339 
 447   0.0000       3.178037        86.4788 
 448   0.0000       3.182919        86.6116 
 449   0.0000       3.188338        86.7591 
 450   0.0000       3.192200        86.8642 
 451   0.0000       3.197814        87.0169 
 452   0.0000       3.206969        87.2661 
 453   0.0000       3.219761        87.6142 
 454   0.0000       3.225522        87.7709 
 455   0.0000       3.229663        87.8836 
 456   0.0000       3.238456        88.1229 
 457   0.0000       3.240002        88.1649 
 458   0.0000       3.244770        88.2947 
 459   0.0000       3.257593        88.6436 
 460   0.0000       3.268737        88.9469 
 461   0.0000       3.272372        89.0458 
 462   0.0000       3.274194        89.0953 
 463   0.0000       3.287282        89.4515 
 464   0.0000       3.303124        89.8826 
 465   0.0000       3.309120        90.0457 
 466   0.0000       3.311835        90.1196 
 467   0.0000       3.315597        90.2220 
 468   0.0000       3.323989        90.4503 
 469   0.0000       3.326803        90.5269 
 470   0.0000       3.331711        90.6605 
 471   0.0000       3.338667        90.8498 
 472   0.0000       3.340188        90.8911 
 473   0.0000       3.347911        91.1013 
 474   0.0000       3.356971        91.3478 
 475   0.0000       3.363760        91.5326 
 476   0.0000       3.371419        91.7410 
 477   0.0000       3.380485        91.9877 
 478   0.0000       3.383058        92.0577 
 479   0.0000       3.387165        92.1694 
 480   0.0000       3.393709        92.3475 
 481   0.0000       3.395345        92.3920 
 482   0.0000       3.400791        92.5402 
 483   0.0000       3.408484        92.7496 
 484   0.0000       3.412679        92.8637 
 485   0.0000       3.418733        93.0285 
 486   0.0000       3.419106        93.0386 
 487   0.0000       3.431138        93.3660 
 488   0.0000       3.435229        93.4773 
 489   0.0000       3.444040        93.7171 
 490   0.0000       3.445787        93.7646 
 491   0.0000       3.450112        93.8823 
 492   0.0000       3.458310        94.1054 
 493   0.0000       3.460957        94.1774 
 494   0.0000       3.471411        94.4619 
 495   0.0000       3.473625        94.5221 
 496   0.0000       3.476295        94.5948 
 497   0.0000       3.483735        94.7972 
 498   0.0000       3.491937        95.0204 
 499   0.0000       3.505137        95.3796 
 500   0.0000       3.507953        95.4563 
 501   0.0000       3.511958        95.5652 
 502   0.0000       3.522580        95.8543 
 503   0.0000       3.534636        96.1823 
 504   0.0000       3.538050        96.2752 
 505   0.0000       3.548139        96.5498 
 506   0.0000       3.559435        96.8571 
 507   0.0000       3.572729        97.2189 
 508   0.0000       3.576625        97.3249 
 509   0.0000       3.588923        97.6596 
 510   0.0000       3.595735        97.8449 
 511   0.0000       3.602405        98.0264 
 512   0.0000       3.607635        98.1687 
 513   0.0000       3.616629        98.4135 
 514   0.0000       3.620469        98.5180 
 515   0.0000       3.624759        98.6347 
 516   0.0000       3.629797        98.7718 
 517   0.0000       3.632093        98.8343 
 518   0.0000       3.637264        98.9750 
 519   0.0000       3.645006        99.1856 
 520   0.0000       3.650710        99.3409 
 521   0.0000       3.661543        99.6357 
 522   0.0000       3.661940        99.6465 
 523   0.0000       3.670688        99.8845 
 524   0.0000       3.674705        99.9938 
 525   0.0000       3.681442       100.1771 
 526   0.0000       3.691866       100.4608 
 527   0.0000       3.698227       100.6339 
 528   0.0000       3.701633       100.7265 
 529   0.0000       3.709606       100.9435 
 530   0.0000       3.718088       101.1743 
 531   0.0000       3.723029       101.3088 
 532   0.0000       3.733475       101.5930 
 533   0.0000       3.741746       101.8181 
 534   0.0000       3.743609       101.8688 
 535   0.0000       3.751351       102.0795 
 536   0.0000       3.756883       102.2300 
 537   0.0000       3.760658       102.3327 
 538   0.0000       3.765033       102.4518 
 539   0.0000       3.773185       102.6736 
 540   0.0000       3.778648       102.8222 
 541   0.0000       3.790983       103.1579 
 542   0.0000       3.799630       103.3932 
 543   0.0000       3.804816       103.5343 
 544   0.0000       3.806339       103.5757 
 545   0.0000       3.816924       103.8638 
 546   0.0000       3.818516       103.9071 
 547   0.0000       3.826094       104.1133 
 548   0.0000       3.838323       104.4461 
 549   0.0000       3.841757       104.5395 
 550   0.0000       3.854357       104.8824 
 551   0.0000       3.870689       105.3268 
 552   0.0000       3.871553       105.3503 
 553   0.0000       3.873261       105.3968 
 554   0.0000       3.893116       105.9371 
 555   0.0000       3.901653       106.1694 
 556   0.0000       3.909223       106.3754 
 557   0.0000       3.918595       106.6304 
 558   0.0000       3.928583       106.9022 
 559   0.0000       3.931176       106.9728 
 560   0.0000       3.944501       107.3353 
 561   0.0000       3.957377       107.6857 
 562   0.0000       3.959536       107.7445 
 563   0.0000       3.971936       108.0819 
 564   0.0000       3.975283       108.1730 
 565   0.0000       3.981098       108.3312 
 566   0.0000       3.986738       108.4847 
 567   0.0000       3.990798       108.5951 
 568   0.0000       3.997752       108.7844 
 569   0.0000       4.019959       109.3887 
 570   0.0000       4.021178       109.4218 
 571   0.0000       4.036756       109.8457 
 572   0.0000       4.040505       109.9477 
 573   0.0000       4.049745       110.1992 
 574   0.0000       4.058321       110.4325 
 575   0.0000       4.073419       110.8434 
 576   0.0000       4.082859       111.1003 
 577   0.0000       4.085344       111.1679 
 578   0.0000       4.101888       111.6181 
 579   0.0000       4.109261       111.8187 
 580   0.0000       4.116557       112.0172 
 581   0.0000       4.121155       112.1423 
 582   0.0000       4.129154       112.3600 
 583   0.0000       4.132360       112.4472 
 584   0.0000       4.138201       112.6062 
 585   0.0000       4.141686       112.7010 
 586   0.0000       4.146754       112.8389 
 587   0.0000       4.156666       113.1086 
 588   0.0000       4.158779       113.1661 
 589   0.0000       4.173079       113.5552 
 590   0.0000       4.177505       113.6757 
 591   0.0000       4.183012       113.8256 
 592   0.0000       4.188440       113.9733 
 593   0.0000       4.195118       114.1550 
 594   0.0000       4.202286       114.3500 
 595   0.0000       4.209261       114.5398 
 596   0.0000       4.223773       114.9347 
 597   0.0000       4.230058       115.1057 
 598   0.0000       4.234715       115.2325 
 599   0.0000       4.244054       115.4866 
 600   0.0000       4.251503       115.6893 
 601   0.0000       4.258596       115.8823 
 602   0.0000       4.268981       116.1649 
 603   0.0000       4.272066       116.2488 
 604   0.0000       4.281595       116.5081 
 605   0.0000       4.292986       116.8181 
 606   0.0000       4.301112       117.0392 
 607   0.0000       4.308530       117.2411 
 608   0.0000       4.315416       117.4284 
 609   0.0000       4.317249       117.4783 
 610   0.0000       4.334279       117.9417 
 611   0.0000       4.342071       118.1538 
 612   0.0000       4.343940       118.2046 
 613   0.0000       4.353048       118.4525 
 614   0.0000       4.356196       118.5381 
 615   0.0000       4.371438       118.9529 
 616   0.0000       4.372259       118.9752 
 617   0.0000       4.379223       119.1647 
 618   0.0000       4.388978       119.4302 
 619   0.0000       4.391021       119.4858 
 620   0.0000       4.401521       119.7715 
 621   0.0000       4.406013       119.8937 
 622   0.0000       4.424954       120.4091 
 623   0.0000       4.431227       120.5798 
 624   0.0000       4.444194       120.9327 
 625   0.0000       4.447790       121.0305 
 626   0.0000       4.454315       121.2081 
 627   0.0000       4.466722       121.5457 
 628   0.0000       4.478820       121.8749 
 629   0.0000       4.490981       122.2058 
 630   0.0000       4.502433       122.5174 
 631   0.0000       4.511313       122.7591 
 632   0.0000       4.516319       122.8953 
 633   0.0000       4.522369       123.0599 
 634   0.0000       4.532206       123.3276 
 635   0.0000       4.543826       123.6438 
 636   0.0000       4.549630       123.8017 
 637   0.0000       4.558971       124.0559 
 638   0.0000       4.561668       124.1293 
 639   0.0000       4.566497       124.2607 
 640   0.0000       4.576719       124.5389 
 641   0.0000       4.584069       124.7389 
 642   0.0000       4.591044       124.9287 
 643   0.0000       4.606855       125.3589 
 644   0.0000       4.609996       125.4444 
 645   0.0000       4.624452       125.8377 
 646   0.0000       4.626061       125.8815 
 647   0.0000       4.639635       126.2509 
 648   0.0000       4.644257       126.3767 
 649   0.0000       4.645694       126.4157 
 650   0.0000       4.646783       126.4454 
 651   0.0000       4.663940       126.9123 
 652   0.0000       4.670577       127.0928 
 653   0.0000       4.680743       127.3695 
 654   0.0000       4.686818       127.5348 
 655   0.0000       4.700396       127.9043 
 656   0.0000       4.709850       128.1615 
 657   0.0000       4.727002       128.6283 
 658   0.0000       4.728973       128.6819 
 659   0.0000       4.739675       128.9731 
 660   0.0000       4.746860       129.1686 
 661   0.0000       4.771843       129.8484 
 662   0.0000       4.776786       129.9829 
 663   0.0000       4.780679       130.0889 
 664   0.0000       4.810321       130.8955 
 665   0.0000       4.828274       131.3840 
 666   0.0000       4.843980       131.8114 
 667   0.0000       4.850632       131.9924 
 668   0.0000       4.873660       132.6190 
 669   0.0000       4.880992       132.8185 
 670   0.0000       4.906208       133.5047 
 671   0.0000       4.921045       133.9084 
 672   0.0000       4.927285       134.0782 
 673   0.0000       4.937091       134.3451 
 674   0.0000       4.965357       135.1142 
 675   0.0000       4.988873       135.7541 
 676   0.0000       5.010687       136.3477 
 677   0.0000       5.021999       136.6556 
 678   0.0000       5.028005       136.8190 
 679   0.0000       5.051609       137.4613 
 680   0.0000       5.058430       137.6469 
 681   0.0000       5.065244       137.8323 
 682   0.0000       5.090644       138.5235 
 683   0.0000       5.094572       138.6304 
 684   0.0000       5.108207       139.0014 
 685   0.0000       5.117606       139.2571 
 686   0.0000       5.126027       139.4863 
 687   0.0000       5.142254       139.9278 
 688   0.0000       5.145136       140.0063 
 689   0.0000       5.163006       140.4925 
 690   0.0000       5.168696       140.6474 
 691   0.0000       5.174516       140.8057 
 692   0.0000       5.184339       141.0730 
 693   0.0000       5.199169       141.4766 
 694   0.0000       5.201295       141.5344 
 695   0.0000       5.214791       141.9017 
 696   0.0000       5.219666       142.0343 
 697   0.0000       5.229694       142.3072 
 698   0.0000       5.238102       142.5360 
 699   0.0000       5.246825       142.7734 
 700   0.0000       5.260178       143.1367 
 701   0.0000       5.270419       143.4154 
 702   0.0000       5.299002       144.1932 
 703   0.0000       5.322319       144.8277 
 704   0.0000       5.336312       145.2084 
 705   0.0000       5.337083       145.2294 
 706   0.0000       5.345944       145.4705 
 707   0.0000       5.346384       145.4825 
 708   0.0000       5.365182       145.9940 
 709   0.0000       5.381000       146.4244 
 710   0.0000       5.392266       146.7310 
 711   0.0000       5.401900       146.9932 
 712   0.0000       5.431918       147.8100 
 713   0.0000       5.453090       148.3861 
 714   0.0000       5.466587       148.7534 
 715   0.0000       5.480963       149.1446 
 716   0.0000       5.504789       149.7929 
 717   0.0000       5.506957       149.8519 
 718   0.0000       5.514175       150.0483 
 719   0.0000       5.525865       150.3664 
 720   0.0000       5.535064       150.6168 
 721   0.0000       5.542564       150.8208 
 722   0.0000       5.556531       151.2009 
 723   0.0000       5.568215       151.5188 
 724   0.0000       5.583826       151.9436 
 725   0.0000       5.601027       152.4117 
 726   0.0000       5.614126       152.7681 
 727   0.0000       5.624381       153.0472 
 728   0.0000       5.639963       153.4712 
 729   0.0000       5.641857       153.5227 
 730   0.0000       5.649092       153.7196 
 731   0.0000       5.659332       153.9982 
 732   0.0000       5.667162       154.2113 
 733   0.0000       5.682252       154.6219 
 734   0.0000       5.697969       155.0496 
 735   0.0000       5.717303       155.5757 
 736   0.0000       5.726147       155.8164 
 737   0.0000       5.735291       156.0652 
 738   0.0000       5.738081       156.1411 
 739   0.0000       5.751739       156.5128 
 740   0.0000       5.761884       156.7888 
 741   0.0000       5.782896       157.3606 
 742   0.0000       5.789617       157.5435 
 743   0.0000       5.804311       157.9433 
 744   0.0000       5.815437       158.2461 
 745   0.0000       5.838680       158.8786 
 746   0.0000       5.866943       159.6476 
 747   0.0000       5.879114       159.9788 
 748   0.0000       5.905630       160.7004 
 749   0.0000       5.927488       161.2951 
 750   0.0000       5.933686       161.4638 
 751   0.0000       5.970906       162.4766 
 752   0.0000       5.979856       162.7202 
 753   0.0000       5.997388       163.1972 
 754   0.0000       6.012892       163.6191 
 755   0.0000       6.030178       164.0895 
 756   0.0000       6.050599       164.6452 
 757   0.0000       6.058115       164.8497 
 758   0.0000       6.079977       165.4446 
 759   0.0000       6.091254       165.7515 
 760   0.0000       6.097776       165.9289 
 761   0.0000       6.170094       167.8968 
 762   0.0000       6.218329       169.2093 
 763   0.0000       6.229636       169.5170 
 764   0.0000       6.240505       169.8128 
 765   0.0000       6.274766       170.7451 
 766   0.0000       6.288419       171.1166 
 767   0.0000       6.323685       172.0762 
 768   0.0000       6.343954       172.6278 
 769   0.0000       6.348379       172.7482 
 770   0.0000       6.366688       173.2464 
 771   0.0000       6.381475       173.6488 
 772   0.0000       6.405097       174.2915 
 773   0.0000       6.437417       175.1710 
 774   0.0000       6.453301       175.6033 
 775   0.0000       6.460663       175.8036 
 776   0.0000       6.501709       176.9205 
 777   0.0000       6.557685       178.4437 
 778   0.0000       6.591116       179.3534 
 779   0.0000       6.629805       180.4062 
 780   0.0000       6.640118       180.6868 
 781   0.0000       6.677421       181.7019 
 782   0.0000       6.729954       183.1314 
 783   0.0000       6.754839       183.8085 
 784   0.0000       6.800359       185.0472 
 785   0.0000       6.884879       187.3471 
 786   0.0000       6.912078       188.0872 
 787   0.0000       6.924551       188.4266 
 788   0.0000       6.976117       189.8298 
 789   0.0000       7.012198       190.8116 
 790   0.0000       7.054307       191.9574 
 791   0.0000       7.062285       192.1745 
 792   0.0000       7.083813       192.7603 
 793   0.0000       7.137175       194.2124 
 794   0.0000       7.237973       196.9553 
 795   0.0000       7.260664       197.5727 
 796   0.0000       7.283090       198.1829 
 797   0.0000       7.286001       198.2622 
 798   0.0000       7.337676       199.6683 
 799   0.0000       7.343826       199.8357 
 800   0.0000       7.393266       201.1810 
 801   0.0000       7.581968       206.3158 
 802   0.0000       7.584611       206.3878 
 803   0.0000       7.591499       206.5752 
 804   0.0000       7.627324       207.5500 
 805   0.0000       7.818341       212.7479 
 806   0.0000       7.837623       213.2726 
 807   0.0000       7.889320       214.6793 
 808   0.0000       7.935382       215.9327 
 809   0.0000       9.378932       255.2137 
 810   0.0000       9.586785       260.8697 
 811   0.0000      10.832624       294.7707 
 812   0.0000      11.328391       308.2612 
 813   0.0000      11.872914       323.0784 
 814   0.0000      12.595552       342.7424 
 815   0.0000      12.924477       351.6929 
 816   0.0000      13.070045       355.6540 
 817   0.0000      13.189703       358.9101 
 818   0.0000      13.230905       360.0312 
 819   0.0000      13.405134       364.7723 
 820   0.0000      13.485572       366.9611 
 821   0.0000      13.843644       376.7047 
 822   0.0000      13.902259       378.2997 
 823   0.0000      13.961595       379.9143 
 824   0.0000      14.079323       383.1179 
 825   0.0000      14.558929       396.1686 
 826   0.0000      14.692315       399.7982 
 827   0.0000      15.964980       434.4292 

                    ********************************
                    * MULLIKEN POPULATION ANALYSIS *
                    ********************************

-----------------------
MULLIKEN ATOMIC CHARGES
-----------------------
   0 C :   -0.283091
   1 C :    0.053927
   2 O :   -0.363593
   3 C :    0.432272
   4 O :   -0.400890
   5 C :   -0.181487
   6 C :    0.137180
   7 C :   -0.283194
   8 N :   -0.125478
   9 C :    0.204450
  10 S :   -0.440363
  11 N :   -0.201188
  12 C :    0.057424
  13 C :    0.039514
  14 C :   -0.155714
  15 C :   -0.133738
  16 C :   -0.281053
  17 C :    0.312348
  18 O :   -0.358988
  19 C :   -0.279254
  20 H :    0.093943
  21 H :    0.102850
  22 H :    0.097995
  23 H :    0.095458
  24 H :    0.104620
  25 H :    0.123749
  26 H :    0.105394
  27 H :    0.125382
  28 H :    0.197164
  29 H :    0.194292
  30 H :    0.154591
  31 H :    0.155230
  32 H :    0.160781
  33 H :    0.130655
  34 H :    0.240866
  35 H :    0.167946
Sum of atomic charges:   -0.0000000

--------------------------------
MULLIKEN REDUCED ORBITAL CHARGES
--------------------------------
  0 C s       :     3.257893  s :     3.257893
      pz      :     1.016116  p :     2.946646
      px      :     0.918974
      py      :     1.011557
      dz2     :     0.015311  d :     0.074077
      dxz     :     0.013996
      dyz     :     0.016583
      dx2y2   :     0.013184
      dxy     :     0.015003
      f0      :     0.000788  f :     0.004474
      f+1     :     0.000607
      f-1     :     0.000650
      f+2     :     0.000464
      f-2     :     0.000234
      f+3     :     0.000903
      f-3     :     0.000828
  1 C s       :     3.170117  s :     3.170117
      pz      :     0.976816  p :     2.610440
      px      :     0.833932
      py      :     0.799692
      dz2     :     0.025086  d :     0.153606
      dxz     :     0.024325
      dyz     :     0.031265
      dx2y2   :     0.037249
      dxy     :     0.035681
      f0      :     0.001436  f :     0.011910
      f+1     :     0.001121
      f-1     :     0.001723
      f+2     :     0.000916
      f-2     :     0.001728
      f+3     :     0.002297
      f-3     :     0.002690
  2 O s       :     3.718227  s :     3.718227
      pz      :     1.735450  p :     4.609702
      px      :     1.289957
      py      :     1.584296
      dz2     :     0.003585  d :     0.033352
      dxz     :     0.007577
      dyz     :     0.004566
      dx2y2   :     0.012232
      dxy     :     0.005392
      f0      :     0.000269  f :     0.002311
      f+1     :     0.000309
      f-1     :     0.000147
      f+2     :     0.000402
      f-2     :     0.000235
[...]
 15 C s       :     2.705749  s :     2.705749
      pz      :     0.890455  p :     2.795929
      px      :     0.944003
      py      :     0.961471
      dz2     :     0.086449  d :     0.415612
      dxz     :     0.071745
      dyz     :     0.053777
      dx2y2   :     0.102341
      dxy     :     0.101299
      f0      :     0.002993  f :     0.041002
      f+1     :     0.005265
      f-1     :     0.005538
      f+2     :     0.007147
      f-2     :     0.006106
      f+3     :     0.007112
      f-3     :     0.006841
 16 C s       :     2.701841  s :     2.701841
      pz      :     0.934105  p :     2.869215
      px      :     0.968952
      py      :     0.966158
      dz2     :     0.040375  d :     0.390990
      dxz     :     0.061626
      dyz     :     0.080179
      dx2y2   :     0.096583
      dxy     :     0.112226
      f0      :     0.004035  f :     0.040327
      f+1     :     0.005062
      f-1     :     0.003207
      f+2     :     0.005660
      f-2     :     0.005531
      f+3     :     0.007933
      f-3     :     0.008897
 17 C s       :     2.701451  s :     2.701451
      pz      :     0.848349  p :     2.684966
      px      :     0.820490
      py      :     1.016126
      dz2     :     0.119389  d :     0.708570
      dxz     :     0.118403
      dyz     :     0.124783
      dx2y2   :     0.175087
      dxy     :     0.170908
      f0      :     0.008463  f :     0.099270
      f+1     :     0.016929
      f-1     :     0.007680
      f+2     :     0.015271
      f-2     :     0.014625
      f+3     :     0.015716
      f-3     :     0.020585
 18 O s       :     3.177277  s :     3.177277
      pz      :     1.450570  p :     4.348650
      px      :     1.404599
      py      :     1.493481
      dz2     :     0.007603  d :     0.075561
      dxz     :     0.017514
      dyz     :     0.016582
      dx2y2   :     0.018876
      dxy     :     0.014986
      f0      :     0.000573  f :     0.005074
      f+1     :     0.000769
      f-1     :     0.000326
      f+2     :     0.000770
      f-2     :     0.000851
      f+3     :     0.000776
      f-3     :     0.001010
 19 C s       :     2.695264  s :     2.695264
      pz      :     0.928621  p :     2.847598
      px      :     0.958613
      py      :     0.960364
      dz2     :     0.070532  d :     0.388688
      dxz     :     0.068213
      dyz     :     0.056760
      dx2y2   :     0.090767
      dxy     :     0.102416
      f0      :     0.003123  f :     0.040833
      f+1     :     0.005233
      f-1     :     0.005142
      f+2     :     0.007215
      f-2     :     0.006600
      f+3     :     0.007091
      f-3     :     0.006427
 20 H s       :     0.850809  s :     0.850809
      pz      :     0.052035  p :     0.150470
      px      :     0.038727
      py      :     0.059708
      dz2     :     0.007033  d :     0.027520
      dxz     :     0.003140
      dyz     :     0.006557
      dx2y2   :     0.004947
      dxy     :     0.005843
 21 H s       :     0.845099  s :     0.845099
      pz      :     0.042067  p :     0.150452
      px      :     0.051090
      py      :     0.057294
      dz2     :     0.003509  d :     0.027376
      dxz     :     0.003233
      dyz     :     0.005780
      dx2y2   :     0.008349
      dxy     :     0.006506
 22 H s       :     0.849084  s :     0.849084
      pz      :     0.068577  p :     0.150973
      px      :     0.040383
      py      :     0.042012
      dz2     :     0.008749  d :     0.027462
      dxz     :     0.007722
      dyz     :     0.008438
      dx2y2   :     0.001271
      dxy     :     0.001283
 23 H s       :     0.853328  s :     0.853328
      pz      :     0.076635  p :     0.145692
      px      :     0.035396
      py      :     0.033661
      dz2     :     0.009947  d :     0.027013
      dxz     :     0.006835
      dyz     :     0.008027
      dx2y2   :     0.000965
      dxy     :     0.001239
 24 H s       :     0.857258  s :     0.857258
      pz      :     0.050947  p :     0.144712
      px      :     0.035039
      py      :     0.058725
      dz2     :     0.006437  d :     0.026768
      dxz     :     0.002361
      dyz     :     0.007435
      dx2y2   :     0.004842
      dxy     :     0.005693
 25 H s       :     0.830696  s :     0.830696
      pz      :     0.064557  p :     0.149752
      px      :     0.042326
      py      :     0.042869
      dz2     :     0.008966  d :     0.027661
      dxz     :     0.007377
      dyz     :     0.006897
      dx2y2   :     0.002804
      dxy     :     0.001616
 26 H s       :     0.841911  s :     0.841911
      pz      :     0.037265  p :     0.149983
      px      :     0.039591
      py      :     0.073126
      dz2     :     0.002294  d :     0.027680
      dxz     :     0.000201
      dyz     :     0.009135
      dx2y2   :     0.006759
      dxy     :     0.009291
 27 H s       :     0.830921  s :     0.830921
      pz      :     0.038446  p :     0.151979
      px      :     0.069333
      py      :     0.044201
      dz2     :     0.002504  d :     0.027710
      dxz     :     0.008184
      dyz     :     0.000806
      dx2y2   :     0.008514
      dxy     :     0.007702
 28 H s       :     0.743112  s :     0.743112
      pz      :     0.058713  p :     0.253898
      px      :     0.084498
      py      :     0.110688
      dz2     :     0.005809  d :     0.061805
      dxz     :     0.003891
      dyz     :     0.015365
      dx2y2   :     0.018753
      dxy     :     0.017988
 29 H s       :     0.748575  s :     0.748575
      pz      :     0.111572  p :     0.254159
      px      :     0.097945
      py      :     0.044642
      dz2     :     0.020772  d :     0.061348
      dxz     :     0.015596
      dyz     :     0.009934
      dx2y2   :     0.008823
      dxy     :     0.006222
 30 H s       :     0.828194  s :     0.828194
      pz      :     0.041394  p :     0.148251
      px      :     0.068098
      py      :     0.038760
      dz2     :     0.003288  d :     0.028306
      dxz     :     0.007927
      dyz     :     0.002637
      dx2y2   :     0.007228
      dxy     :     0.007227
 31 H s       :     0.841406  s :     0.841406
      pz      :     0.052389  p :     0.155858
      px      :     0.068108
      py      :     0.035361
      dz2     :     0.004913  d :     0.027449
      dxz     :     0.007260
      dyz     :     0.002795
      dx2y2   :     0.006067
      dxy     :     0.006414
 32 H s       :     0.842684  s :     0.842684
      pz      :     0.037399  p :     0.151193
      px      :     0.041926
      py      :     0.071868
      dz2     :     0.002648  d :     0.026461
      dxz     :     0.001316
      dyz     :     0.006648
      dx2y2   :     0.007909
      dxy     :     0.007940
 33 H s       :     0.848841  s :     0.848841
      pz      :     0.057679  p :     0.159074
      px      :     0.045813
      py      :     0.055582
      dz2     :     0.005899  d :     0.027758
      dxz     :     0.004375
      dyz     :     0.006258
      dx2y2   :     0.005836
      dxy     :     0.005391
 34 H s       :     0.706666  s :     0.706666
      pz      :     0.115762  p :     0.347922
      px      :     0.080988
      py      :     0.151173
      dz2     :     0.023525  d :     0.099575
      dxz     :     0.011063
      dyz     :     0.024758
      dx2y2   :     0.020494
      dxy     :     0.019735
 35 H s       :     0.839507  s :     0.839507
      pz      :     0.040814  p :     0.157002
      px      :     0.043457
      py      :     0.072731
      dz2     :     0.002681  d :     0.028038
      dxz     :     0.001559
      dyz     :     0.007319
      dx2y2   :     0.008277
      dxy     :     0.008203


                      *****************************
                      * MAYER POPULATION ANALYSIS *
                      *****************************

  NA   - Mulliken gross atomic population
  ZA   - Total nuclear charge
  QA   - Mulliken gross atomic charge
  VA   - Mayer's total valence
  BVA  - Mayer's bonded valence
  FA   - Mayer's free valence

  ATOM       NA         ZA         QA         VA         BVA        FA
  0 C      6.2831     6.0000    -0.2831     3.8930     3.8930     0.0000
  1 C      5.9461     6.0000     0.0539     3.8717     3.8717    -0.0000
  2 O      8.3636     8.0000    -0.3636     1.9986     1.9986     0.0000
  3 C      5.5677     6.0000     0.4323     4.2040     4.2040     0.0000
  4 O      8.4009     8.0000    -0.4009     2.1028     2.1028     0.0000
  5 C      6.1815     6.0000    -0.1815     3.6368     3.6368     0.0000
  6 C      5.8628     6.0000     0.1372     3.8314     3.8314     0.0000
  7 C      6.2832     6.0000    -0.2832     3.8943     3.8943     0.0000
  8 N      7.1255     7.0000    -0.1255     3.2865     3.2865    -0.0000
  9 C      5.7956     6.0000     0.2044     4.1545     4.1545     0.0000
 10 S     16.4404    16.0000    -0.4404     1.7548     1.7548    -0.0000
 11 N      7.2012     7.0000    -0.2012     3.2594     3.2594    -0.0000
 12 C      5.9426     6.0000     0.0574     3.9583     3.9583    -0.0000
 13 C      5.9605     6.0000     0.0395     3.7422     3.7422     0.0000
 14 C      6.1557     6.0000    -0.1557     3.8610     3.8610    -0.0000
 15 C      6.1337     6.0000    -0.1337     3.8089     3.8089     0.0000
 16 C      6.2811     6.0000    -0.2811     3.7922     3.7922     0.0000
 17 C      5.6877     6.0000     0.3123     3.8730     3.8730    -0.0000
 18 O      8.3590     8.0000    -0.3590     2.1153     2.1153    -0.0000
 19 C      6.2793     6.0000    -0.2793     3.8444     3.8444     0.0000
 20 H      0.9061     1.0000     0.0939     0.9819     0.9819     0.0000
 21 H      0.8971     1.0000     0.1029     0.9839     0.9839    -0.0000
 22 H      0.9020     1.0000     0.0980     0.9825     0.9825     0.0000
 23 H      0.9045     1.0000     0.0955     0.9734     0.9734    -0.0000
 24 H      0.8954     1.0000     0.1046     0.9790     0.9790    -0.0000
 25 H      0.8763     1.0000     0.1237     0.9832     0.9832     0.0000
 26 H      0.8946     1.0000     0.1054     0.9859     0.9859    -0.0000
 27 H      0.8746     1.0000     0.1254     0.9752     0.9752     0.0000
 28 H      0.8028     1.0000     0.1972     1.0225     1.0225    -0.0000
 29 H      0.8057     1.0000     0.1943     1.0182     1.0182     0.0000
 30 H      0.8454     1.0000     0.1546     0.9957     0.9957    -0.0000
 31 H      0.8448     1.0000     0.1552     0.9875     0.9875     0.0000
 32 H      0.8392     1.0000     0.1608     0.9772     0.9772    -0.0000
 33 H      0.8693     1.0000     0.1307     0.9914     0.9914     0.0000
 34 H      0.7591     1.0000     0.2409     1.0105     1.0105     0.0000
 35 H      0.8321     1.0000     0.1679     0.9867     0.9867     0.0000

  Mayer bond orders larger than 0.100000
B(  0-C ,  1-C ) :   0.9708 B(  0-C , 20-H ) :   0.9775 B(  0-C , 21-H ) :   0.9783 
B(  0-C , 22-H ) :   0.9768 B(  1-C ,  2-O ) :   0.8994 B(  1-C , 23-H ) :   0.9684 
B(  1-C , 24-H ) :   0.9835 B(  2-O ,  3-C ) :   1.1001 B(  3-C ,  4-O ) :   2.0218 
B(  3-C ,  5-C ) :   1.0292 B(  5-C ,  6-C ) :   1.6677 B(  5-C , 12-C ) :   0.9647 
B(  6-C ,  7-C ) :   0.9523 B(  6-C ,  8-N ) :   1.1378 B(  7-C , 25-H ) :   0.9704 
B(  7-C , 26-H ) :   0.9885 B(  7-C , 27-H ) :   0.9628 B(  8-N ,  9-C ) :   1.1850 
B(  8-N , 28-H ) :   0.9499 B(  9-C , 10-S ) :   1.6099 B(  9-C , 11-N ) :   1.3001 
B( 11-N , 12-C ) :   0.9927 B( 11-N , 29-H ) :   0.9516 B( 12-C , 13-C ) :   0.9438 
B( 12-C , 30-H ) :   0.9983 B( 13-C , 14-C ) :   1.3774 B( 13-C , 19-C ) :   1.3696 
B( 14-C , 15-C ) :   1.3944 B( 14-C , 31-H ) :   0.9643 B( 15-C , 16-C ) :   1.3636 
B( 15-C , 32-H ) :   0.9711 B( 16-C , 17-C ) :   1.3301 B( 16-C , 33-H ) :   0.9851 
B( 17-C , 18-O ) :   1.1097 B( 17-C , 19-C ) :   1.3749 B( 18-O , 34-H ) :   0.9799 
B( 19-C , 35-H ) :   0.9580 

-------
TIMINGS
-------

Total SCF time: 0 days 1 hours 40 min 26 sec 

Total time                  ....    6026.200 sec
Sum of individual times     ....    6014.882 sec  ( 99.8%)

Fock matrix formation       ....    5983.045 sec  ( 99.3%)
Diagonalization             ....       1.894 sec  (  0.0%)
Density matrix formation    ....       0.220 sec  (  0.0%)
Population analysis         ....       0.416 sec  (  0.0%)
Initial guess               ....       6.435 sec  (  0.1%)
Orbital Transformation      ....       0.000 sec  (  0.0%)
Orbital Orthonormalization  ....       0.000 sec  (  0.0%)
DIIS solution               ....      14.770 sec  (  0.2%)
SOSCF solution              ....       6.574 sec  (  0.1%)

Maximum memory used throughout the entire SCF-calculation: 743.3 MB

------------------------------------------------------------------------------
                                ORCA  MP2 
------------------------------------------------------------------------------

Freezing NCore=48 chemical core electrons

-------------
RI-MP2 ENERGY
-------------
Dimension of the basis                    ...  828
Memory devoted to MP2                     ...  256 MB   
Data format for buffers                   ... DOUBLE
Compression type for matrix containers    ... UNCOMPRESSED
Overall scaling of the MP2 energy         ...   1.000e+00
Calculating two index integrals           ... done (    0.033 sec)
Cholesky decomposition of V**-1           ... done (    0.915 sec)

-----------------
RI-TRANSFORMATION (AUX index driven)
-----------------

Dimension of the orbital-basis         ... 828
Dimension of the aux-basis             ... 2141
Transformation of internal/external MOs...   24-  76 to   77- 827
Number Format for Storage              ... Double (8 Byte)
Integral mode                          ... Direct

First Phase: integral generation and transformation of MO indices
  Aux angular momentum 0               ... done (    4.515 sec)
  Aux angular momentum 1               ... done (    9.710 sec)
  Aux angular momentum 2               ... done (   12.747 sec)
  Aux angular momentum 3               ... done (    9.514 sec)
  Aux angular momentum 4               ... done (    3.407 sec)
Closing buffer VIA ( 0.63 GB; CompressionRatio= 1.00)
  Phase 1 completed in    40.547 sec
Second Phase: sorting and transformation of aux index

IA-Transformation
Memory available                       ... 157 MB 
Max. # MO pairs treated in a batch     ... 11    
# of internal orbitals                 ... 53
# batches for internal orbitals        ... 5
Closing buffer IAV ( 0.63 GB; CompressionRatio= 1.00)
(ia|v) transformation done in    50.089 sec

  Phase 2 completed in    50.101 sec
RI-Integral transformation completed in    90.748 sec
Opening buffers                              ... done

Starting loop over batches of integrals:

Operator 0  - window                       ... ( 24- 76)x( 77-827)
Operator 0  - Memory available             ...   256 MB
Operator 0  - Memory needed per MO         ...  12.3 MB
Operator 0  - Number of orbitals per batch ... 13
Operator 0  - Number of batches            ... 5

OPERATOR  0   PASS   0:  MOs    24 ...   36
  Reading integrals       ... ok
  Internal MO  26
  Internal MO  29
  Internal MO  32
  Internal MO  35
OPERATOR  0   PASS   1:  MOs    37 ...   49
  Reading integrals       ... ok
  Internal MO  38
  Internal MO  41
  Internal MO  44
  Internal MO  47
OPERATOR  0   PASS   2:  MOs    50 ...   62
  Reading integrals       ... ok
  Internal MO  50
  Internal MO  53
  Internal MO  56
  Internal MO  59
  Internal MO  62
OPERATOR  0   PASS   3:  MOs    63 ...   75
  Reading integrals       ... ok
  Internal MO  65
  Internal MO  68
  Internal MO  71
  Internal MO  74
OPERATOR  0   PASS   4:  MOs    76 ...   76
  Reading integrals       ... ok
Time spent in pair loops =   138.483 sec
Deleting buffer (Ka|jb)[aa] ...done

-----------------------------------------------
 RI-MP2 CORRELATION ENERGY:     -3.533127978 Eh
-----------------------------------------------


-------
TIMINGS
-------

Total time                :  230.351 sec
Integral trafo            :   90.774 sec ( 39.4%)
I/O of integrals          :    3.498 sec (  1.5%)
K(i,j) Operators          :   81.757 sec ( 35.5%)
T(i,j) pair energies      :    3.132 sec (  1.4%)
V-calculation             :    0.033 sec (  0.0%)
V**(-1/2)                 :    0.915 sec (  0.4%)
Gamma(ia|P)               :    0.000 sec (  0.0%)
Gamma-Trafo               :    0.000 sec (  0.0%)
D(virtual)                :    0.000 sec (  0.0%)
D(internal)               :    0.000 sec (  0.0%)
W(virtual)                :    0.000 sec (  0.0%)
W(internal)               :    0.000 sec (  0.0%)
L(virtual)                :    0.000 sec (  0.0%)
L(internal)               :    0.000 sec (  0.0%)
G(D)                      :    0.000 sec (  0.0%)
G(Z)                      :    0.000 sec (  0.0%)
Z-Vector Solution         :    0.000 sec (  0.0%)
3-Index Derivative        :    0.000 sec (  0.0%)
2-Index Derivative        :    0.000 sec (  0.0%)
Separable Gradient        :    0.000 sec (  0.0%)


---------------------------------------
MP2 TOTAL ENERGY:    -1274.329177405 Eh
---------------------------------------

Maximum memory used throughout the entire MP2-calculation: 304.8 MB

-------------------------   --------------------
FINAL SINGLE POINT ENERGY     -1274.329177405441
-------------------------   --------------------


                            ***************************************
                            *     ORCA property calculations      *
                            ***************************************


  WARNING: The energy has been calculated at the MP2 level but the densities
           used in the property calculations are still SCF densities
           MP2 response densities have not been calculated 
           use %mp2 Density relaxed end
           or  %mp2 Density unrelaxed end

                                    ---------------------
                                    Active property flags
                                    ---------------------
   (+) Dipole Moment


------------------------------------------------------------------------------
                       ORCA ELECTRIC PROPERTIES CALCULATION
------------------------------------------------------------------------------

Dipole Moment Calculation                       ... on
Quadrupole Moment Calculation                   ... off
Polarizability Calculation                      ... off
GBWName                                         ... CONFS/Conf875.orca.gbw
Electron density file                           ... CONFS/Conf875.orca.scfp
The origin for moment calculation is the CENTER OF MASS  = (32.901808, 31.427987 35.323007)

-------------
DIPOLE MOMENT
-------------
                                X             Y             Z
Electronic contribution:     11.76466       8.25232       7.63804
Nuclear contribution   :    -13.08694      -9.57326      -8.30861
                        -----------------------------------------
Total Dipole Moment    :     -1.32229      -1.32093      -0.67057
                        -----------------------------------------
Magnitude (a.u.)       :      1.98569
Magnitude (Debye)      :      5.04722



--------------------
Rotational spectrum 
--------------------
 
Rotational constants in cm-1:     0.011333     0.009171     0.006631 
Rotational constants in MHz :   339.741215   274.936975   198.805226 

 Dipole components along the rotational axes: 
x,y,z [a.u.] :    -1.769525     0.645563     0.628487 
x,y,z [Debye]:    -4.497776     1.640891     1.597486 

 

Timings for individual modules:

Sum of individual times         ...     6261.760 sec (= 104.363 min)
GTO integral calculation        ...        4.304 sec (=   0.072 min)   0.1 %
SCF iterations                  ...     6026.246 sec (= 100.437 min)  96.2 %
MP2 module                      ...      231.211 sec (=   3.854 min)   3.7 %
                             ****ORCA TERMINATED NORMALLY****
TOTAL RUN TIME: 0 days 1 hours 44 minutes 23 seconds 421 msec
