
                                        *****************
                                        * O   R   C   A *
                                        *****************

                                            #,                                       
                                            ###                                      
                                            ####                                     
                                            #####                                    
                                            ######                                   
                                           ########,                                 
                                     ,,################,,,,,                         
                               ,,#################################,,                 
                          ,,##########################################,,             
                       ,#########################################, ''#####,          
                    ,#############################################,,   '####,        
                  ,##################################################,,,,####,       
                ,###########''''           ''''###############################       
              ,#####''   ,,,,##########,,,,          '''####'''          '####       
            ,##' ,,,,###########################,,,                        '##       
           ' ,,###''''                  '''############,,,                           
         ,,##''                                '''############,,,,        ,,,,,,###''
      ,#''                                            '''#######################'''  
     '                                                          ''''####''''         
             ,#######,   #######,   ,#######,      ##                                
            ,#'     '#,  ##    ##  ,#'     '#,    #''#        ######   ,####,        
            ##       ##  ##   ,#'  ##            #'  '#       #        #'  '#        
            ##       ##  #######   ##           ,######,      #####,   #    #        
            '#,     ,#'  ##    ##  '#,     ,#' ,#      #,         ##   #,  ,#        
             '#######'   ##     ##  '#######'  #'      '#     #####' # '####'        



                  #######################################################
                  #                        -***-                        #
                  #          Department of theory and spectroscopy      #
                  #    Directorship and core code : Frank Neese         #
                  #        Max Planck Institute fuer Kohlenforschung    #
                  #                Kaiser Wilhelm Platz 1               #
                  #                 D-45470 Muelheim/Ruhr               #
                  #                      Germany                        #
                  #                                                     #
                  #                  All rights reserved                #
                  #                        -***-                        #
                  #######################################################


                         Program Version 5.0.0 -  RELEASE  -
                                (SVN: $Rev: 19529$)
                ($Date: 2021-06-28 11:36:33 +0200 (Mo, 28 Jun 2021) $)


 With contributions from (in alphabetic order):
   Daniel Aravena         : Magnetic Suceptibility
   Michael Atanasov       : Ab Initio Ligand Field Theory (pilot matlab implementation)
   Alexander A. Auer      : GIAO ZORA, VPT2 properties, NMR spectrum
   Ute Becker             : Parallelization
   Giovanni Bistoni       : ED, misc. LED, open-shell LED, HFLD
   Martin Brehm           : Molecular dynamics
   Dmytro Bykov           : SCF Hessian
   Vijay G. Chilkuri      : MRCI spin determinant printing, contributions to CSF-ICE
   Dipayan Datta          : RHF DLPNO-CCSD density
   Achintya Kumar Dutta   : EOM-CC, STEOM-CC
   Dmitry Ganyushin       : Spin-Orbit,Spin-Spin,Magnetic field MRCI
   Miquel Garcia          : C-PCM Hessian, Gaussian charge scheme
   Yang Guo               : DLPNO-NEVPT2, F12-NEVPT2, CIM, IAO-localization
   Andreas Hansen         : Spin unrestricted coupled pair/coupled cluster methods
   Benjamin Helmich-Paris : MC-RPA, TRAH-SCF, COSX integrals
   Lee Huntington         : MR-EOM, pCC
   Robert Izsak           : Overlap fitted RIJCOSX, COSX-SCS-MP3, EOM
   Marcus Kettner         : VPT2
   Christian Kollmar      : KDIIS, OOCD, Brueckner-CCSD(T), CCSD density, CASPT2, CASPT2-K
   Simone Kossmann        : Meta GGA functionals, TD-DFT gradient, OOMP2, MP2 Hessian
   Martin Krupicka        : Initial AUTO-CI
   Lucas Lang             : DCDCAS
   Marvin Lechner         : AUTO-CI (C++ implementation), FIC-MRCC
   Dagmar Lenk            : GEPOL surface, SMD
   Dimitrios Liakos       : Extrapolation schemes; Compound Job, initial MDCI parallelization
   Dimitrios Manganas     : Further ROCIS development; embedding schemes
   Dimitrios Pantazis     : SARC Basis sets
   Anastasios Papadopoulos: AUTO-CI, single reference methods and gradients
   Taras Petrenko         : DFT Hessian,TD-DFT gradient, ASA, ECA, R-Raman, ABS, FL, XAS/XES, NRVS
   Peter Pinski           : DLPNO-MP2, DLPNO-MP2 Gradient
   Christoph Reimann      : Effective Core Potentials
   Marius Retegan         : Local ZFS, SOC
   Christoph Riplinger    : Optimizer, TS searches, QM/MM, DLPNO-CCSD(T), (RO)-DLPNO pert. Triples
   Tobias Risthaus        : Range-separated hybrids, TD-DFT gradient, RPA, STAB
   Michael Roemelt        : Original ROCIS implementation
   Masaaki Saitow         : Open-shell DLPNO-CCSD energy and density
   Barbara Sandhoefer     : DKH picture change effects
   Avijit Sen             : IP-ROCIS
   Kantharuban Sivalingam : CASSCF convergence, NEVPT2, FIC-MRCI
   Bernardo de Souza      : ESD, SOC TD-DFT
   Georgi Stoychev        : AutoAux, RI-MP2 NMR
   Willem Van den Heuvel  : Paramagnetic NMR
   Boris Wezisla          : Elementary symmetry handling
   Frank Wennmohs         : Technical directorship


 We gratefully acknowledge several colleagues who have allowed us to
 interface, adapt or use parts of their codes:
   Stefan Grimme, W. Hujo, H. Kruse, P. Pracht,  : VdW corrections, initial TS optimization,
                  C. Bannwarth, S. Ehlert          DFT functionals, gCP, sTDA/sTD-DF
   Ed Valeev, F. Pavosevic, A. Kumar             : LibInt (2-el integral package), F12 methods
   Garnet Chan, S. Sharma, J. Yang, R. Olivares  : DMRG
   Ulf Ekstrom                                   : XCFun DFT Library
   Mihaly Kallay                                 : mrcc  (arbitrary order and MRCC methods)
   Jiri Pittner, Ondrej Demel                    : Mk-CCSD
   Frank Weinhold                                : gennbo (NPA and NBO analysis)
   Christopher J. Cramer and Donald G. Truhlar   : smd solvation model
   Lars Goerigk                                  : TD-DFT with DH, B97 family of functionals
   V. Asgeirsson, H. Jonsson                     : NEB implementation
   FAccTs GmbH                                   : IRC, NEB, NEB-TS, DLPNO-Multilevel, CI-OPT
                                                   MM, QMMM, 2- and 3-layer-ONIOM, Crystal-QMMM,
                                                   LR-CPCM, SF, NACMEs, symmetry and pop. for TD-DFT,
                                                   nearIR, NL-DFT gradient (VV10), updates on ESD,
                                                   ML-optimized integration grids
   S Lehtola, MJT Oliveira, MAL Marques          : LibXC Library
   Liviu Ungur et al                             : ANISO software


 Your calculation uses the libint2 library for the computation of 2-el integrals
 For citations please refer to: http://libint.valeyev.net

 Your ORCA version has been built with support for libXC version: 5.1.0
 For citations please refer to: https://tddft.org/programs/libxc/

 This ORCA versions uses:
   CBLAS   interface :  Fast vector & matrix operations
   LAPACKE interface :  Fast linear algebra routines
   SCALAPACK package :  Parallel linear algebra routines
   Shared memory     :  Shared parallel matrices
   BLAS/LAPACK       :  OpenBLAS 0.3.15  USE64BITINT DYNAMIC_ARCH NO_AFFINITY Zen SINGLE_THREADED
        Core in use  :  Zen
   Copyright (c) 2011-2014, The OpenBLAS Project


================================================================================

----- Orbital basis set information -----
Your calculation utilizes the basis: cc-pVTZ 
       H, B-Ne : Obtained from the ccRepo (grant-hill.group.shef.ac.uk/ccrepo) Feb. 2017
                 T. H. Dunning, Jr., J. Chem. Phys. 90, 1007 (1989)
            He : Obtained from the ccRepo (grant-hill.group.shef.ac.uk/ccrepo) Feb. 2017
                 D. E. Woon, T. H. Dunning, Jr., J. Chem. Phys. 100, 2975 (1994)
  Li-Be, Na-Mg : Obtained from the ccRepo (grant-hill.group.shef.ac.uk/ccrepo) Feb. 2017
                 B. P. Prascher, D. E. Woon, K. A. Peterson, T. H. Dunning, Jr., A. K. Wilson, Theor. Chem. Acc. 128, 69 (2011)
         Al-Ar : Obtained from the ccRepo (grant-hill.group.shef.ac.uk/ccrepo) Feb. 2017
                 D. E. Woon, T. H. Dunning, Jr., J. Chem. Phys. 98, 1358 (1993)
            Ca : Obtained from the Peterson Research Group Website (tyr0.chem.wsu.edu/~kipeters) Feb. 2017
                 J. Koput, K. A. Peterson, J. Phys. Chem. 106, 9595 (2002)
         Sc-Zn : Obtained from the ccRepo (grant-hill.group.shef.ac.uk/ccrepo) Feb. 2017
                 N. B. Balabanov, K. A. Peterson, J. Chem. Phys. 123, 064107 (2005)
                 N. B. Balabanov, K. A. Peterson, J. Chem. Phys. 125, 074110 (2006)
         Ga-Kr : Obtained from the ccRepo (grant-hill.group.shef.ac.uk/ccrepo) Feb. 2017
                 A. K. Wilson, D. E. Woon, K. A. Peterson, T. H. Dunning, Jr., J. Chem. Phys. 110, 7667 (1999)
             Y : Obtained from the ccRepo (grant-hill.group.shef.ac.uk/ccrepo) Feb. 2017
                 K. A. Peterson, D. Figgen, M. Dolg, H. Stoll, J. Chem. Phys. 126, 124101 (2007)
        Ag, Au : Obtained from the Peterson Research Group Website (tyr0.chem.wsu.edu/~kipeters) Feb. 2017
                 K. A. Peterson, C. Puzzarini, Theor. Chem. Acc. 114, 283 (2005)

----- AuxC basis set information -----
Your calculation utilizes the auxiliary basis: cc-pVTZ/C 
  Obtained from the EMSL Basis Set Exchange (bse.pnl.gov) Feb. 2017
  H-He, B-F, Al-Ar, Ga-Kr : F. Weigend, A. Kohn, C. Hattig, J. Chem. Phys. 116, 3175 (2002)
             Li-Be, Na-Mg : C. Haettig, Phys. Chem. Chem. Phys. 7, 59 (2005)
                       Ne : C. Haettig, Phys. Chem. Chem. Phys. 7, 59 (2005)
                            F. Weigend, A. Kohn, C. Hattig, J. Chem. Phys. 116, 3175 (2002)
                    Sc-Zn : J. G. Hill, J. A. Platts, J. Chem. Phys. 128, 044104 (2008)

================================================================================
                                        WARNINGS
                       Please study these warnings very carefully!
================================================================================


WARNING: No MP2 level density has been requested!
         To caclulate MP2 level properties use
         %mp2 Density relaxed end
         or
         %mp2 Density unrelaxed end

WARNING: Post HF methods need fully converged wavefunctions
  ===> : Setting SCFConvForced true
         You can overwrite this default with %scf ConvForced false 


INFO   : the flag for use of the SHARK integral package has been found!

================================================================================
                                       INPUT FILE
================================================================================
NAME = CONFS/Conf715.orca
|  1> ! ri-mp2 cc-pvtz cc-pvtz/c TightSCF NoKeepInts
|  2> 
|  3> %scf
|  4>   MaxCore 4096
|  5> end
|  6> *xyz  0  1
|  7>     C       14.6514212   14.3243907   16.1000667
|  8>     C       15.7597519   14.8661012   15.1790147
|  9>     O       16.3736476   15.9892381   15.8372417
| 10>     C       17.4325675   15.7903673   16.6766443
| 11>     O       17.9907650   14.7099510   16.7808526
| 12>     C       17.7693098   16.9596030   17.5592142
| 13>     C       17.3110369   18.2290301   17.3937828
| 14>     C       16.3895294   18.7606943   16.3148868
| 15>     N       17.7489438   19.2421360   18.2537379
| 16>     C       18.7393688   19.1038236   19.1897747
| 17>     S       19.2886795   20.3886841   20.0746949
| 18>     N       19.2514916   17.8423246   19.3542391
| 19>     C       18.7080819   16.6246594   18.7243734
| 20>     C       18.0034656   15.7550726   19.7627160
| 21>     C       18.3726902   14.4078509   19.9324736
| 22>     C       17.7244973   13.6012468   20.8828095
| 23>     C       16.6969491   14.1454377   21.6718303
| 24>     C       16.3234060   15.4856642   21.5036067
| 25>     O       15.3271835   16.0124129   22.2595711
| 26>     C       16.9701603   16.2858832   20.5566078
| 27>     H       15.0786576   13.9483409   17.0386938
| 28>     H       14.1173894   13.4988139   15.6142992
| 29>     H       13.9253458   15.1109695   16.3398756
| 30>     H       16.4903088   14.0819506   14.9367026
| 31>     H       15.3029357   15.2039851   14.2400630
| 32>     H       16.7687282   18.5041488   15.3178951
| 33>     H       16.2826605   19.8516911   16.3473756
| 34>     H       15.3855782   18.3299156   16.4170275
| 35>     H       17.3849589   20.1756337   18.1490623
| 36>     H       19.9580378   17.7594827   20.0738314
| 37>     H       19.5567081   16.0555103   18.3180190
| 38>     H       19.1549012   13.9795405   19.3104293
| 39>     H       18.0155385   12.5588925   20.9992692
| 40>     H       16.1923317   13.5255203   22.4052691
| 41>     H       15.0328528   15.3218245   22.8720865
| 42>     H       16.6671201   17.3212081   20.4459621
| 43> *
| 44> 
| 45>                          ****END OF INPUT****
================================================================================

                       ****************************
                       * Single Point Calculation *
                       ****************************

---------------------------------
CARTESIAN COORDINATES (ANGSTROEM)
---------------------------------
  C     14.651421   14.324391   16.100067
  C     15.759752   14.866101   15.179015
  O     16.373648   15.989238   15.837242
  C     17.432568   15.790367   16.676644
  O     17.990765   14.709951   16.780853
  C     17.769310   16.959603   17.559214
  C     17.311037   18.229030   17.393783
  C     16.389529   18.760694   16.314887
  N     17.748944   19.242136   18.253738
  C     18.739369   19.103824   19.189775
  S     19.288679   20.388684   20.074695
  N     19.251492   17.842325   19.354239
  C     18.708082   16.624659   18.724373
  C     18.003466   15.755073   19.762716
  C     18.372690   14.407851   19.932474
  C     17.724497   13.601247   20.882810
  C     16.696949   14.145438   21.671830
  C     16.323406   15.485664   21.503607
  O     15.327183   16.012413   22.259571
  C     16.970160   16.285883   20.556608
  H     15.078658   13.948341   17.038694
  H     14.117389   13.498814   15.614299
  H     13.925346   15.110969   16.339876
  H     16.490309   14.081951   14.936703
  H     15.302936   15.203985   14.240063
  H     16.768728   18.504149   15.317895
  H     16.282660   19.851691   16.347376
  H     15.385578   18.329916   16.417027
  H     17.384959   20.175634   18.149062
  H     19.958038   17.759483   20.073831
  H     19.556708   16.055510   18.318019
  H     19.154901   13.979540   19.310429
  H     18.015539   12.558892   20.999269
  H     16.192332   13.525520   22.405269
  H     15.032853   15.321824   22.872087
  H     16.667120   17.321208   20.445962

----------------------------
CARTESIAN COORDINATES (A.U.)
----------------------------
  NO LB      ZA    FRAG     MASS         X           Y           Z
   0 C     6.0000    0    12.011   27.687174   27.069175   30.424717
   1 C     6.0000    0    12.011   29.781615   28.092860   28.684181
   2 O     8.0000    0    15.999   30.941710   30.215281   29.928050
   3 C     6.0000    0    12.011   32.942778   29.839470   31.514291
   4 O     8.0000    0    15.999   33.997619   27.797779   31.711216
   5 C     6.0000    0    12.011   33.579129   32.049005   33.182106
   6 C     6.0000    0    12.011   32.713119   34.447875   32.869486
   7 C     6.0000    0    12.011   30.971722   35.452574   30.830668
   8 N     7.0000    0    14.007   33.540643   36.362367   34.494566
   9 C     6.0000    0    12.011   35.412275   36.100995   36.263419
  10 S    16.0000    0    32.060   36.450322   38.529029   37.935676
  11 N     7.0000    0    14.007   36.380047   33.717107   36.574211
  12 C     6.0000    0    12.011   35.353151   31.416053   35.383938
  13 C     6.0000    0    12.011   34.021619   29.772772   37.346121
  14 C     6.0000    0    12.011   34.719353   27.226892   37.666916
  15 C     6.0000    0    12.011   33.494446   25.702632   39.462791
  16 C     6.0000    0    12.011   31.552661   26.731003   40.953824
  17 C     6.0000    0    12.011   30.846767   29.263664   40.635928
  18 O     8.0000    0    15.999   28.964179   30.259075   42.064493
  19 C     6.0000    0    12.011   32.068955   30.775859   38.846359
  20 H     1.0000    0     1.008   28.494533   26.358544   32.198465
  21 H     1.0000    0     1.008   26.678000   25.509061   29.506749
  22 H     1.0000    0     1.008   26.315090   28.555594   30.877890
  23 H     1.0000    0     1.008   31.162167   26.611030   28.226277
  24 H     1.0000    0     1.008   28.918358   28.731368   26.909819
  25 H     1.0000    0     1.008   31.688304   34.967774   28.946627
  26 H     1.0000    0     1.008   30.769769   37.514259   30.892063
  27 H     1.0000    0     1.008   29.074529   34.638521   31.023686
  28 H     1.0000    0     1.008   32.852811   38.126422   34.296757
  29 H     1.0000    0     1.008   37.715226   33.560559   37.934044
  30 H     1.0000    0     1.008   36.956822   30.340517   34.616039
  31 H     1.0000    0     1.008   36.197517   26.417503   36.491423
  32 H     1.0000    0     1.008   34.044434   23.732867   39.682868
  33 H     1.0000    0     1.008   30.599072   25.559529   42.339823
  34 H     1.0000    0     1.008   28.407975   28.954052   43.221980
  35 H     1.0000    0     1.008   31.496292   32.732340   38.637269

--------------------------------
INTERNAL COORDINATES (ANGSTROEM)
--------------------------------
 C      0   0   0     0.000000000000     0.00000000     0.00000000
 C      1   0   0     1.539540188848     0.00000000     0.00000000
 O      2   1   0     1.439293997121   107.94067526     0.00000000
 C      3   2   1     1.365817584671   119.87616510    89.01327577
 O      4   3   2     1.220550367703   122.40703463     8.72160342
 C      4   3   2     1.503142417454   114.91518512   194.54017722
 C      6   4   3     1.359715691310   125.39907627   345.59938179
 C      7   6   4     1.515209382539   128.25720202   359.59379391
 N      7   6   4     1.399167177895   119.71819036   182.83824430
 C      9   7   6     1.369757968246   124.97327170     7.67853605
 S     10   9   7     1.653992899006   121.82385484   174.47736558
 N     10   9   7     1.371385441132   116.41405719   354.47271054
 C     12  10   9     1.474697745771   124.80004505   352.31845930
 C     13  12  10     1.526702553851   110.48041059   252.33150404
 C     14  13  12     1.407178296078   120.41537329   234.84390428
 C     15  14  13     1.404956416611   120.67697698   180.24362032
 C     16  15  14     1.405187838618   119.65956128     0.00000000
 C     17  16  15     1.401442363587   119.85885771     0.17512413
 O     18  17  16     1.356984022207   120.00195192   179.68694340
 C     18  17  16     1.398373515600   120.34907040   359.84287938
 H      1   2   3     1.097709080959   110.60414403   296.55621379
 H      1   2   3     1.096693703896   110.51444808   176.90502502
 H      1   2   3     1.096995899543   110.79204856    56.83656226
 H      2   1   3     1.098781462086   111.06808857   123.10537360
 H      2   1   3     1.097486612854   108.69425544   241.69663898
 H      8   7   6     1.097086948861   110.78228922   307.20765932
 H      8   7   6     1.096699822888   112.78227913   187.23619360
 H      8   7   6     1.097233349362   110.63570006    66.95215702
 H      9   7   6     1.007402573239   119.60472153   182.03149052
 H     12  10   9     1.011871232593   114.91975056   182.08229871
 H     13  12  10     1.099645862883   107.50710950   134.43849373
 H     15  14  13     1.087309964284   119.79371389   359.11825559
 H     16  15  14     1.088471556151   119.92063187   179.59676166
 H     17  16  15     1.084835829308   119.89869894   179.86410629
 H     19  18  17     0.968874612328   107.36936161     2.34287352
 H     20  18  17     1.084423110370   119.09059972   180.21736473

---------------------------
INTERNAL COORDINATES (A.U.)
---------------------------
 C      0   0   0     0.000000000000     0.00000000     0.00000000
 C      1   0   0     2.909309329087     0.00000000     0.00000000
 O      2   1   0     2.719871480756   107.94067526     0.00000000
 C      3   2   1     2.581021183921   119.87616510    89.01327577
 O      4   3   2     2.306505927616   122.40703463     8.72160342
 C      4   3   2     2.840527509269   114.91518512   194.54017722
 C      6   4   3     2.569490276571   125.39907627   345.59938179
 C      7   6   4     2.863330768546   128.25720202   359.59379391
 N      7   6   4     2.644042781793   119.71819036   182.83824430
 C      9   7   6     2.588467429741   124.97327170     7.67853605
 S     10   9   7     3.125593606572   121.82385484   174.47736558
 N     10   9   7     2.591542907786   116.41405719   354.47271054
 C     12  10   9     2.786774869818   124.80004505   352.31845930
 C     13  12  10     2.885049714736   110.48041059   252.33150404
 C     14  13  12     2.659181601186   120.41537329   234.84390428
 C     15  14  13     2.654982857490   120.67697698   180.24362032
 C     16  15  14     2.655420181704   119.65956128     0.00000000
 C     17  16  15     2.648342259655   119.85885771     0.17512413
 O     18  17  16     2.564328170078   120.00195192   179.68694340
 C     18  17  16     2.642542977412   120.34907040   359.84287938
 H      1   2   3     2.074369537731   110.60414403   296.55621379
 H      1   2   3     2.072450753160   110.51444808   176.90502502
 H      1   2   3     2.073021820171   110.79204856    56.83656226
 H      2   1   3     2.076396044373   111.06808857   123.10537360
 H      2   1   3     2.073949133940   108.69425544   241.69663898
 H      8   7   6     2.073193878446   110.78228922   307.20765932
 H      8   7   6     2.072462316379   112.78227913   187.23619360
 H      8   7   6     2.073470535299   110.63570006    66.95215702
 H      9   7   6     1.903714970029   119.60472153   182.03149052
 H     12  10   9     1.912159512394   114.91975056   182.08229871
 H     13  12  10     2.078029525149   107.50710950   134.43849373
 H     15  14  13     2.054718055181   119.79371389   359.11825559
 H     16  15  14     2.056913145689   119.92063187   179.59676166
 H     17  16  15     2.050042617658   119.89869894   179.86410629
 H     19  18  17     1.830907675410   107.36936161     2.34287352
 H     20  18  17     2.049262691894   119.09059972   180.21736473

---------------------
BASIS SET INFORMATION
---------------------
There are 5 groups of distinct atoms

 Group   1 Type C   : 18s5p2d1f contracted to 4s3p2d1f pattern {8811/311/11/1}
 Group   2 Type O   : 18s5p2d1f contracted to 4s3p2d1f pattern {8811/311/11/1}
 Group   3 Type N   : 18s5p2d1f contracted to 4s3p2d1f pattern {8811/311/11/1}
 Group   4 Type S   : 41s16p2d1f contracted to 5s4p2d1f pattern {13131311/7711/11/1}
 Group   5 Type H   : 5s2p1d contracted to 3s2p1d pattern {311/11/1}

Atom   0C    basis set group =>   1
Atom   1C    basis set group =>   1
Atom   2O    basis set group =>   2
Atom   3C    basis set group =>   1
Atom   4O    basis set group =>   2
Atom   5C    basis set group =>   1
Atom   6C    basis set group =>   1
Atom   7C    basis set group =>   1
Atom   8N    basis set group =>   3
Atom   9C    basis set group =>   1
Atom  10S    basis set group =>   4
Atom  11N    basis set group =>   3
Atom  12C    basis set group =>   1
Atom  13C    basis set group =>   1
Atom  14C    basis set group =>   1
Atom  15C    basis set group =>   1
Atom  16C    basis set group =>   1
Atom  17C    basis set group =>   1
Atom  18O    basis set group =>   2
Atom  19C    basis set group =>   1
Atom  20H    basis set group =>   5
Atom  21H    basis set group =>   5
Atom  22H    basis set group =>   5
Atom  23H    basis set group =>   5
Atom  24H    basis set group =>   5
Atom  25H    basis set group =>   5
Atom  26H    basis set group =>   5
Atom  27H    basis set group =>   5
Atom  28H    basis set group =>   5
Atom  29H    basis set group =>   5
Atom  30H    basis set group =>   5
Atom  31H    basis set group =>   5
Atom  32H    basis set group =>   5
Atom  33H    basis set group =>   5
Atom  34H    basis set group =>   5
Atom  35H    basis set group =>   5
---------------------------------
AUXILIARY/C BASIS SET INFORMATION
---------------------------------
There are 5 groups of distinct atoms

 Group   1 Type C   : 8s6p5d3f1g contracted to 8s6p5d3f1g pattern {11111111/111111/11111/111/1}
 Group   2 Type O   : 8s6p5d3f1g contracted to 8s6p5d3f1g pattern {11111111/111111/11111/111/1}
 Group   3 Type N   : 8s6p5d3f1g contracted to 8s6p5d3f1g pattern {11111111/111111/11111/111/1}
 Group   4 Type S   : 10s8p7d5f2g contracted to 10s8p7d5f2g pattern {1111111111/11111111/1111111/11111/11}
 Group   5 Type H   : 4s3p2d1f contracted to 4s3p2d1f pattern {1111/111/11/1}

Atom   0C    basis set group =>   1
Atom   1C    basis set group =>   1
Atom   2O    basis set group =>   2
Atom   3C    basis set group =>   1
Atom   4O    basis set group =>   2
Atom   5C    basis set group =>   1
Atom   6C    basis set group =>   1
Atom   7C    basis set group =>   1
Atom   8N    basis set group =>   3
Atom   9C    basis set group =>   1
Atom  10S    basis set group =>   4
Atom  11N    basis set group =>   3
Atom  12C    basis set group =>   1
Atom  13C    basis set group =>   1
Atom  14C    basis set group =>   1
Atom  15C    basis set group =>   1
Atom  16C    basis set group =>   1
Atom  17C    basis set group =>   1
Atom  18O    basis set group =>   2
Atom  19C    basis set group =>   1
Atom  20H    basis set group =>   5
Atom  21H    basis set group =>   5
Atom  22H    basis set group =>   5
Atom  23H    basis set group =>   5
Atom  24H    basis set group =>   5
Atom  25H    basis set group =>   5
Atom  26H    basis set group =>   5
Atom  27H    basis set group =>   5
Atom  28H    basis set group =>   5
Atom  29H    basis set group =>   5
Atom  30H    basis set group =>   5
Atom  31H    basis set group =>   5
Atom  32H    basis set group =>   5
Atom  33H    basis set group =>   5
Atom  34H    basis set group =>   5
Atom  35H    basis set group =>   5
------------------------------------------------------------------------------
                           ORCA GTO INTEGRAL CALCULATION
------------------------------------------------------------------------------
------------------------------------------------------------------------------
                   ___                                                        
                  /   \      - P O W E R E D   B Y -                         
                 /     \                                                     
                 |  |  |   _    _      __       _____    __    __             
                 |  |  |  | |  | |    /  \     |  _  \  |  |  /  |          
                  \  \/   | |  | |   /    \    | | | |  |  | /  /          
                 / \  \   | |__| |  /  /\  \   | |_| |  |  |/  /          
                |  |  |   |  __  | /  /__\  \  |    /   |      \           
                |  |  |   | |  | | |   __   |  |    \   |  |\   \          
                \     /   | |  | | |  |  |  |  | |\  \  |  | \   \       
                 \___/    |_|  |_| |__|  |__|  |_| \__\ |__|  \__/        
                                                                              
                      - O R C A' S   B I G   F R I E N D -                    
                                      &                                       
                       - I N T E G R A L  F E E D E R -                       
                                                                              
 v1 FN, 2020, v2 2021                                                         
------------------------------------------------------------------------------


Reading SHARK input file CONFS/Conf715.orca.SHARKINP.tmp ... ok
----------------------
SHARK INTEGRAL PACKAGE
----------------------

Number of atoms                             ...     36
Number of basis functions                   ...    828
Number of shells                            ...    298
Maximum angular momentum                    ...      3
Integral batch strategy                     ... SHARK/LIBINT Hybrid
RI-J (if used) integral strategy            ... SPLIT-RIJ (Revised 2003 algorithm where possible)
Printlevel                                  ...      1
Contraction scheme used                     ... SEGMENTED contraction
Coulomb Range Separation                    ... NOT USED
Exchange Range Separation                   ... NOT USED
Finite Nucleus Model                        ... NOT USED
Auxiliary Coulomb fitting basis             ... NOT available
Auxiliary J/K fitting basis                 ... NOT available
Auxiliary Correlation fitting basis         ... AVAILABLE
   # of basis functions in Aux-C            ...   2141
   # of shells in Aux-C                     ...    629
   Maximum angular momentum in Aux-C        ...      4
Auxiliary 'external' fitting basis          ... NOT available
Integral threshold                          ...     2.500000e-11
Primitive cut-off                           ...     2.500000e-12
Primitive pair pre-selection threshold      ...     2.500000e-12

Calculating pre-screening integrals         ... done (  0.6 sec) Dimension = 298
Organizing shell pair data                  ... done (  1.3 sec)
Shell pair information
Total number of shell pairs                 ...     44551
Shell pairs after pre-screening             ...     32744
Total number of primitive shell pairs       ...    234348
Primitive shell pairs kept                  ...     93986
          la=0 lb=0:   6554 shell pairs
          la=1 lb=0:   9132 shell pairs
          la=1 lb=1:   3213 shell pairs
          la=2 lb=0:   5232 shell pairs
          la=2 lb=1:   3582 shell pairs
          la=2 lb=2:   1014 shell pairs
          la=3 lb=0:   1881 shell pairs
          la=3 lb=1:   1285 shell pairs
          la=3 lb=2:    710 shell pairs
          la=3 lb=3:    141 shell pairs

Calculating one electron integrals          ... done (  0.3 sec)
Calculating RI/C V-Matrix + Cholesky decomp.... done (  0.4 sec)
Calculating Nuclear repulsion               ... done (  0.1 sec) ENN=   1694.693635472658 Eh

SHARK setup successfully completed in   3.4 seconds

Maximum memory used throughout the entire GTOINT-calculation: 484.1 MB
-------------------------------------------------------------------------------
                                 ORCA SCF
-------------------------------------------------------------------------------

------------
SCF SETTINGS
------------
Hamiltonian:
 Ab initio Hamiltonian  Method          .... Hartree-Fock(GTOs)


General Settings:
 Integral files         IntName         .... CONFS/Conf715.orca
 Hartree-Fock type      HFTyp           .... RHF
 Total Charge           Charge          ....    0
 Multiplicity           Mult            ....    1
 Number of Electrons    NEL             ....  154
 Basis Dimension        Dim             ....  828
 Nuclear Repulsion      ENuc            ....   1694.6936354727 Eh

Convergence Acceleration:
 DIIS                   CNVDIIS         .... on
   Start iteration      DIISMaxIt       ....    12
   Startup error        DIISStart       ....  0.200000
   # of expansion vecs  DIISMaxEq       ....     5
   Bias factor          DIISBfac        ....   1.050
   Max. coefficient     DIISMaxC        ....  10.000
 Trust-Rad. Augm. Hess. CNVTRAH         .... auto
   Auto Start mean grad. ratio tolernc. ....  1.125000
   Auto Start start iteration           ....    20
   Auto Start num. interpolation iter.  ....    10
   Max. Number of Micro iterations      ....    16
   Max. Number of Macro iterations      .... Maxiter - #DIIS iter
   Number of Davidson start vectors     ....     2
   Converg. threshold I  (grad. norm)   ....   1.000e-05
   Converg. threshold II (energy diff.) ....   1.000e-08
   Grad. Scal. Fac. for Micro threshold ....   0.100
   Minimum threshold for Micro iter.    ....   0.010
   NR start threshold (gradient norm)   ....   0.001
   Initial trust radius                 ....   0.400
   Minimum AH scaling param. (alpha)    ....   1.000
   Maximum AH scaling param. (alpha)    .... 1000.000
   Orbital update algorithm             .... Taylor
   White noise on init. David. guess    .... on
   Maximum white noise                  ....   0.010
   Quad. conv. algorithm                .... NR
 SOSCF                  CNVSOSCF        .... on
   Start iteration      SOSCFMaxIt      ....   150
   Startup grad/error   SOSCFStart      ....  0.003300
 Level Shifting         CNVShift        .... on
   Level shift para.    LevelShift      ....    0.2500
   Turn off err/grad.   ShiftErr        ....    0.0010
 Zerner damping         CNVZerner       .... off
 Static damping         CNVDamp         .... on
   Fraction old density DampFac         ....    0.7000
   Max. Damping (<1)    DampMax         ....    0.9800
   Min. Damping (>=0)   DampMin         ....    0.0000
   Turn off err/grad.   DampErr         ....    0.1000
 Fernandez-Rico         CNVRico         .... off

SCF Procedure:
 Maximum # iterations   MaxIter         ....   125
 SCF integral mode      SCFMode         .... Direct
   Integral package                     .... SHARK and LIBINT hybrid scheme
 Reset frequency        DirectResetFreq ....    20
 Integral Threshold     Thresh          ....  2.500e-11 Eh
 Primitive CutOff       TCut            ....  2.500e-12 Eh

Convergence Tolerance:
 Convergence Check Mode ConvCheckMode   .... Total+1el-Energy
 Convergence forced     ConvForced      .... 1
 Energy Change          TolE            ....  1.000e-08 Eh
 1-El. energy change                    ....  1.000e-05 Eh
 Orbital Gradient       TolG            ....  1.000e-05
 Orbital Rotation angle TolX            ....  1.000e-05
 DIIS Error             TolErr          ....  5.000e-07


Diagonalization of the overlap matrix:
Smallest eigenvalue                        ... 3.483e-05
Time for diagonalization                   ...    0.106 sec
Threshold for overlap eigenvalues          ... 1.000e-08
Number of eigenvalues below threshold      ... 0
Time for construction of square roots      ...    0.222 sec
Total time needed                          ...    0.330 sec

Time for model grid setup =    1.413 sec

------------------------------
INITIAL GUESS: MODEL POTENTIAL
------------------------------
Loading Hartree-Fock densities                     ... done
Calculating cut-offs                               ... done
Initializing the effective Hamiltonian             ... done
Setting up the integral package (SHARK)            ... done
Starting the Coulomb interaction                   ... done (   6.7 sec)
Reading the grid                                   ... done
Mapping shells                                     ... done
Starting the XC term evaluation                    ... done (   1.2 sec)
Transforming the Hamiltonian                       ... done (   0.1 sec)
Diagonalizing the Hamiltonian                      ... done (   0.1 sec)
Back transforming the eigenvectors                 ... done (   0.0 sec)
Now organizing SCF variables                       ... done
                      ------------------
                      INITIAL GUESS DONE (   9.6 sec)
                      ------------------
--------------
SCF ITERATIONS
--------------
ITER       Energy         Delta-E        Max-DP      RMS-DP      [F,P]     Damp
               ***  Starting incremental Fock matrix formation  ***
  0  -1270.0195530282   0.000000000000 0.04933098  0.00043572  0.3080081 0.7000
  1  -1270.2880066010  -0.268453572813 0.03609025  0.00035092  0.1786137 0.7000
                               ***Turning on DIIS***
  2  -1270.4552904879  -0.167283886914 0.02584350  0.00023506  0.1097458 0.7000
  3  -1272.6077964572  -2.152505969286 0.06314740  0.00050920  0.0829466 0.0000
  4  -1270.7637671726   1.844029284546 0.00787210  0.00009560  0.0069022 0.0000
  5  -1270.8267082341  -0.062941061459 0.00405540  0.00005150  0.0037323 0.0000
                      *** Initiating the SOSCF procedure ***
                           *** Shutting down DIIS ***
                      *** Re-Reading the Fockian *** 
                      *** Removing any level shift *** 
ITER      Energy       Delta-E        Grad      Rot      Max-DP    RMS-DP
  6  -1270.80440995   0.0222982876  0.001494  0.001494  0.001738  0.000026
               *** Restarting incremental Fock matrix formation ***
  7  -1270.81859586  -0.0141859104  0.000751  0.001890  0.001298  0.000016
  8  -1270.81864088  -0.0000450227  0.000342  0.002187  0.001374  0.000016
  9  -1270.81865755  -0.0000166720  0.000126  0.000287  0.000349  0.000004
 10  -1270.81865958  -0.0000020244  0.000042  0.000114  0.000109  0.000001
 11  -1270.81865977  -0.0000001951  0.000021  0.000111  0.000056  0.000001
 12  -1270.81865983  -0.0000000544  0.000007  0.000029  0.000027  0.000000
 13  -1270.81865983  -0.0000000010  0.000003  0.000008  0.000005  0.000000
                  ***Gradient check signals convergence***
              ***Rediagonalizing the Fockian in SOSCF/NRSCF***

               *****************************************************
               *                     SUCCESS                       *
               *           SCF CONVERGED AFTER  14 CYCLES          *
               *****************************************************


----------------
TOTAL SCF ENERGY
----------------

Total Energy       :        -1270.81865982 Eh          -34580.73378 eV

Components:
Nuclear Repulsion  :         1694.69363547 Eh           46114.95826 eV
Electronic Energy  :        -2965.51229529 Eh          -80695.69204 eV
One Electron Energy:        -5110.85082306 Eh         -139073.32125 eV
Two Electron Energy:         2145.33852777 Eh           58377.62920 eV

Virial components:
Potential Energy   :        -2539.74878036 Eh          -69110.07780 eV
Kinetic Energy     :         1268.93012054 Eh           34529.34402 eV
Virial Ratio       :            2.00148829


---------------
SCF CONVERGENCE
---------------

  Last Energy change         ...    9.5638e-09  Tolerance :   1.0000e-08
  Last MAX-Density change    ...    1.5611e-06  Tolerance :   1.0000e-07
  Last RMS-Density change    ...    2.9196e-08  Tolerance :   5.0000e-09
  Last Orbital Gradient      ...    1.1674e-06  Tolerance :   1.0000e-05
  Last Orbital Rotation      ...    3.0767e-06  Tolerance :   1.0000e-05

             **** THE GBW FILE WAS UPDATED (CONFS/Conf715.orca.gbw) ****
             **** DENSITY CONFS/Conf715.orca.scfp WAS UPDATED ****
             **** ENERGY FILE WAS UPDATED (CONFS/Conf715.orca.en.tmp) ****
             **** THE GBW FILE WAS UPDATED (CONFS/Conf715.orca.gbw) ****
             **** DENSITY CONFS/Conf715.orca.scfp WAS UPDATED ****
----------------
ORBITAL ENERGIES
----------------

  NO   OCC          E(Eh)            E(eV) 
   0   2.0000     -91.888160     -2500.4039 
   1   2.0000     -20.604188      -560.6685 
   2   2.0000     -20.591428      -560.3212 
   3   2.0000     -20.545085      -559.0602 
   4   2.0000     -15.628640      -425.2769 
   5   2.0000     -15.606706      -424.6801 
   6   2.0000     -11.396561      -310.1162 
   7   2.0000     -11.382971      -309.7464 
   8   2.0000     -11.337041      -308.4966 
   9   2.0000     -11.307260      -307.6862 
  10   2.0000     -11.305299      -307.6328 
  11   2.0000     -11.299121      -307.4647 
  12   2.0000     -11.260807      -306.4221 
  13   2.0000     -11.258884      -306.3698 
  14   2.0000     -11.253170      -306.2143 
  15   2.0000     -11.247398      -306.0573 
  16   2.0000     -11.237072      -305.7763 
  17   2.0000     -11.233198      -305.6709 
  18   2.0000     -11.230114      -305.5869 
  19   2.0000     -11.228453      -305.5417 
  20   2.0000      -8.893220      -241.9968 
  21   2.0000      -6.574796      -178.9093 
  22   2.0000      -6.572790      -178.8547 
  23   2.0000      -6.572204      -178.8388 
  24   2.0000      -1.454262       -39.5725 
  25   2.0000      -1.411169       -38.3999 
  26   2.0000      -1.357284       -36.9336 
  27   2.0000      -1.339521       -36.4502 
  28   2.0000      -1.237044       -33.6617 
  29   2.0000      -1.151964       -31.3465 
  30   2.0000      -1.119472       -30.4624 
  31   2.0000      -1.042534       -28.3688 
  32   2.0000      -1.035064       -28.1655 
  33   2.0000      -1.009275       -27.4638 
  34   2.0000      -0.997518       -27.1438 
  35   2.0000      -0.983000       -26.7488 
  36   2.0000      -0.921208       -25.0673 
  37   2.0000      -0.893294       -24.3078 
  38   2.0000      -0.847557       -23.0632 
  39   2.0000      -0.834950       -22.7202 
  40   2.0000      -0.827604       -22.5203 
  41   2.0000      -0.815171       -22.1819 
  42   2.0000      -0.757121       -20.6023 
  43   2.0000      -0.736218       -20.0335 
  44   2.0000      -0.724640       -19.7185 
  45   2.0000      -0.690806       -18.7978 
  46   2.0000      -0.685582       -18.6556 
  47   2.0000      -0.679479       -18.4896 
  48   2.0000      -0.671025       -18.2595 
  49   2.0000      -0.655435       -17.8353 
  50   2.0000      -0.650004       -17.6875 
  51   2.0000      -0.644365       -17.5341 
  52   2.0000      -0.631477       -17.1834 
  53   2.0000      -0.609955       -16.5977 
  54   2.0000      -0.600098       -16.3295 
  55   2.0000      -0.599043       -16.3008 
  56   2.0000      -0.594692       -16.1824 
  57   2.0000      -0.582241       -15.8436 
  58   2.0000      -0.573787       -15.6135 
  59   2.0000      -0.563160       -15.3244 
  60   2.0000      -0.558626       -15.2010 
  61   2.0000      -0.549614       -14.9557 
  62   2.0000      -0.534221       -14.5369 
  63   2.0000      -0.532020       -14.4770 
  64   2.0000      -0.516788       -14.0625 
  65   2.0000      -0.509185       -13.8556 
  66   2.0000      -0.497941       -13.5497 
  67   2.0000      -0.495126       -13.4731 
  68   2.0000      -0.481836       -13.1114 
  69   2.0000      -0.463348       -12.6083 
  70   2.0000      -0.458998       -12.4900 
  71   2.0000      -0.452809       -12.3216 
  72   2.0000      -0.354440        -9.6448 
  73   2.0000      -0.343855        -9.3568 
  74   2.0000      -0.327255        -8.9050 
  75   2.0000      -0.315676        -8.5900 
  76   2.0000      -0.313548        -8.5321 
  77   0.0000       0.075893         2.0652 
  78   0.0000       0.113515         3.0889 
  79   0.0000       0.120538         3.2800 
  80   0.0000       0.136178         3.7056 
  81   0.0000       0.141230         3.8431 
  82   0.0000       0.147291         4.0080 
  83   0.0000       0.153190         4.1685 
  84   0.0000       0.163883         4.4595 
  85   0.0000       0.165511         4.5038 
  86   0.0000       0.169027         4.5995 
  87   0.0000       0.172453         4.6927 
  88   0.0000       0.192569         5.2401 
  89   0.0000       0.194764         5.2998 
  90   0.0000       0.201609         5.4861 
  91   0.0000       0.210534         5.7289 
  92   0.0000       0.212492         5.7822 
  93   0.0000       0.219750         5.9797 
  94   0.0000       0.224561         6.1106 
  95   0.0000       0.239353         6.5131 
  96   0.0000       0.244116         6.6427 
  97   0.0000       0.247554         6.7363 
  98   0.0000       0.258084         7.0228 
  99   0.0000       0.270155         7.3513 
 100   0.0000       0.286693         7.8013 
 101   0.0000       0.306516         8.3407 
 102   0.0000       0.313311         8.5256 
 103   0.0000       0.321553         8.7499 
 104   0.0000       0.328379         8.9356 
 105   0.0000       0.336360         9.1528 
 106   0.0000       0.339967         9.2510 
 107   0.0000       0.353571         9.6212 
 108   0.0000       0.357701         9.7335 
 109   0.0000       0.368726        10.0335 
 110   0.0000       0.375164        10.2087 
 111   0.0000       0.378677        10.3043 
 112   0.0000       0.383483        10.4351 
 113   0.0000       0.389279        10.5928 
 114   0.0000       0.397813        10.8250 
 115   0.0000       0.405502        11.0343 
 116   0.0000       0.420597        11.4450 
 117   0.0000       0.425769        11.5858 
 118   0.0000       0.433332        11.7916 
 119   0.0000       0.437339        11.9006 
 120   0.0000       0.443840        12.0775 
 121   0.0000       0.448525        12.2050 
 122   0.0000       0.455479        12.3942 
 123   0.0000       0.458313        12.4713 
 124   0.0000       0.461094        12.5470 
 125   0.0000       0.465736        12.6733 
 126   0.0000       0.474509        12.9120 
 127   0.0000       0.486427        13.2363 
 128   0.0000       0.493918        13.4402 
 129   0.0000       0.499949        13.6043 
 130   0.0000       0.502880        13.6841 
 131   0.0000       0.509396        13.8614 
 132   0.0000       0.510776        13.8989 
 133   0.0000       0.519927        14.1479 
 134   0.0000       0.524942        14.2844 
 135   0.0000       0.527139        14.3442 
 136   0.0000       0.536869        14.6089 
 137   0.0000       0.540739        14.7143 
 138   0.0000       0.543958        14.8018 
 139   0.0000       0.548651        14.9295 
 140   0.0000       0.554244        15.0818 
 141   0.0000       0.558946        15.2097 
 142   0.0000       0.564983        15.3740 
 143   0.0000       0.570181        15.5154 
 144   0.0000       0.573290        15.6000 
 145   0.0000       0.578731        15.7481 
 146   0.0000       0.582484        15.8502 
 147   0.0000       0.592894        16.1335 
 148   0.0000       0.594679        16.1820 
 149   0.0000       0.600576        16.3425 
 150   0.0000       0.603750        16.4289 
 151   0.0000       0.608031        16.5454 
 152   0.0000       0.610309        16.6074 
 153   0.0000       0.612939        16.6789 
 154   0.0000       0.621900        16.9228 
 155   0.0000       0.625758        17.0277 
 156   0.0000       0.632638        17.2150 
 157   0.0000       0.633547        17.2397 
 158   0.0000       0.635627        17.2963 
 159   0.0000       0.638363        17.3707 
 160   0.0000       0.645390        17.5620 
 161   0.0000       0.652676        17.7602 
 162   0.0000       0.653788        17.7905 
 163   0.0000       0.658682        17.9236 
 164   0.0000       0.667765        18.1708 
 165   0.0000       0.670852        18.2548 
 166   0.0000       0.677707        18.4413 
 167   0.0000       0.683596        18.6016 
 168   0.0000       0.685951        18.6657 
 169   0.0000       0.694985        18.9115 
 170   0.0000       0.700703        19.0671 
 171   0.0000       0.709263        19.3000 
 172   0.0000       0.712174        19.3792 
 173   0.0000       0.723570        19.6893 
 174   0.0000       0.727324        19.7915 
 175   0.0000       0.733884        19.9700 
 176   0.0000       0.739647        20.1268 
 177   0.0000       0.743968        20.2444 
 178   0.0000       0.747838        20.3497 
 179   0.0000       0.752384        20.4734 
 180   0.0000       0.757650        20.6167 
 181   0.0000       0.763823        20.7847 
 182   0.0000       0.771051        20.9814 
 183   0.0000       0.784864        21.3572 
 184   0.0000       0.799861        21.7653 
 185   0.0000       0.806876        21.9562 
 186   0.0000       0.819163        22.2906 
 187   0.0000       0.824930        22.4475 
 188   0.0000       0.825512        22.4633 
 189   0.0000       0.832732        22.6598 
 190   0.0000       0.837295        22.7840 
 191   0.0000       0.848174        23.0800 
 192   0.0000       0.850788        23.1511 
 193   0.0000       0.859777        23.3957 
 194   0.0000       0.867478        23.6053 
 195   0.0000       0.876372        23.8473 
 196   0.0000       0.889801        24.2127 
 197   0.0000       0.890840        24.2410 
 198   0.0000       0.898131        24.4394 
 199   0.0000       0.901295        24.5255 
 200   0.0000       0.909845        24.7581 
 201   0.0000       0.921211        25.0674 
 202   0.0000       0.926268        25.2050 
 203   0.0000       0.937756        25.5176 
 204   0.0000       0.941184        25.6109 
 205   0.0000       0.944224        25.6936 
 206   0.0000       0.956927        26.0393 
 207   0.0000       0.969694        26.3867 
 208   0.0000       0.972532        26.4639 
 209   0.0000       0.982849        26.7447 
 210   0.0000       0.990001        26.9393 
 211   0.0000       0.997163        27.1342 
 212   0.0000       1.000276        27.2189 
 213   0.0000       1.008977        27.4557 
 214   0.0000       1.009911        27.4811 
 215   0.0000       1.012141        27.5417 
 216   0.0000       1.019667        27.7466 
 217   0.0000       1.031145        28.0589 
 218   0.0000       1.038472        28.2583 
 219   0.0000       1.040232        28.3061 
 220   0.0000       1.049160        28.5491 
 221   0.0000       1.050691        28.5908 
 222   0.0000       1.065818        29.0024 
 223   0.0000       1.082796        29.4644 
 224   0.0000       1.084380        29.5075 
 225   0.0000       1.092182        29.7198 
 226   0.0000       1.096006        29.8239 
 227   0.0000       1.106035        30.0967 
 228   0.0000       1.116548        30.3828 
 229   0.0000       1.118918        30.4473 
 230   0.0000       1.126695        30.6589 
 231   0.0000       1.137383        30.9498 
 232   0.0000       1.146138        31.1880 
 233   0.0000       1.149138        31.2696 
 234   0.0000       1.152218        31.3534 
 235   0.0000       1.158878        31.5347 
 236   0.0000       1.171330        31.8735 
 237   0.0000       1.176322        32.0093 
 238   0.0000       1.181389        32.1472 
 239   0.0000       1.184398        32.2291 
 240   0.0000       1.194916        32.5153 
 241   0.0000       1.198177        32.6041 
 242   0.0000       1.204558        32.7777 
 243   0.0000       1.207546        32.8590 
 244   0.0000       1.217092        33.1187 
 245   0.0000       1.224324        33.3155 
 246   0.0000       1.229192        33.4480 
 247   0.0000       1.238096        33.6903 
 248   0.0000       1.242822        33.8189 
 249   0.0000       1.249612        34.0037 
 250   0.0000       1.260572        34.3019 
 251   0.0000       1.263526        34.3823 
 252   0.0000       1.272979        34.6395 
 253   0.0000       1.281563        34.8731 
 254   0.0000       1.287509        35.0349 
 255   0.0000       1.297517        35.3072 
 256   0.0000       1.299103        35.3504 
 257   0.0000       1.312520        35.7155 
 258   0.0000       1.322110        35.9764 
 259   0.0000       1.330331        36.2001 
 260   0.0000       1.332903        36.2701 
 261   0.0000       1.339584        36.4519 
 262   0.0000       1.348938        36.7065 
 263   0.0000       1.354971        36.8706 
 264   0.0000       1.366305        37.1791 
 265   0.0000       1.370668        37.2978 
 266   0.0000       1.375179        37.4205 
 267   0.0000       1.388836        37.7922 
 268   0.0000       1.404540        38.2195 
 269   0.0000       1.405380        38.2423 
 270   0.0000       1.417492        38.5719 
 271   0.0000       1.424672        38.7673 
 272   0.0000       1.428504        38.8716 
 273   0.0000       1.439465        39.1698 
 274   0.0000       1.449815        39.4515 
 275   0.0000       1.460514        39.7426 
 276   0.0000       1.463143        39.8141 
 277   0.0000       1.471694        40.0468 
 278   0.0000       1.486319        40.4448 
 279   0.0000       1.488859        40.5139 
 280   0.0000       1.490946        40.5707 
 281   0.0000       1.501346        40.8537 
 282   0.0000       1.511040        41.1175 
 283   0.0000       1.512307        41.1520 
 284   0.0000       1.515913        41.2501 
 285   0.0000       1.526623        41.5415 
 286   0.0000       1.529290        41.6141 
 287   0.0000       1.534938        41.7678 
 288   0.0000       1.538998        41.8783 
 289   0.0000       1.547881        42.1200 
 290   0.0000       1.553909        42.2840 
 291   0.0000       1.568218        42.6734 
 292   0.0000       1.573958        42.8296 
 293   0.0000       1.585590        43.1461 
 294   0.0000       1.590044        43.2673 
 295   0.0000       1.597271        43.4639 
 296   0.0000       1.602350        43.6022 
 297   0.0000       1.608476        43.7689 
 298   0.0000       1.620581        44.0983 
 299   0.0000       1.622288        44.1447 
 300   0.0000       1.635740        44.5107 
 301   0.0000       1.646979        44.8166 
 302   0.0000       1.650748        44.9191 
 303   0.0000       1.654089        45.0101 
 304   0.0000       1.661893        45.2224 
 305   0.0000       1.666860        45.3576 
 306   0.0000       1.680971        45.7415 
 307   0.0000       1.688995        45.9599 
 308   0.0000       1.699609        46.2487 
 309   0.0000       1.707682        46.4684 
 310   0.0000       1.720224        46.8097 
 311   0.0000       1.727442        47.0061 
 312   0.0000       1.729867        47.0721 
 313   0.0000       1.739191        47.3258 
 314   0.0000       1.752246        47.6810 
 315   0.0000       1.756982        47.8099 
 316   0.0000       1.769646        48.1545 
 317   0.0000       1.774253        48.2799 
 318   0.0000       1.781325        48.4723 
 319   0.0000       1.791509        48.7494 
 320   0.0000       1.803092        49.0646 
 321   0.0000       1.822309        49.5875 
 322   0.0000       1.828774        49.7635 
 323   0.0000       1.843777        50.1717 
 324   0.0000       1.854736        50.4699 
 325   0.0000       1.855605        50.4936 
 326   0.0000       1.886812        51.3428 
 327   0.0000       1.895381        51.5759 
 328   0.0000       1.907771        51.9131 
 329   0.0000       1.911944        52.0266 
 330   0.0000       1.926605        52.4256 
 331   0.0000       1.940563        52.8054 
 332   0.0000       1.942482        52.8576 
 333   0.0000       1.959919        53.3321 
 334   0.0000       1.967451        53.5371 
 335   0.0000       1.972592        53.6770 
 336   0.0000       1.978808        53.8461 
 337   0.0000       2.005450        54.5711 
 338   0.0000       2.007947        54.6390 
 339   0.0000       2.027111        55.1605 
 340   0.0000       2.028747        55.2050 
 341   0.0000       2.031000        55.2663 
 342   0.0000       2.047589        55.7177 
 343   0.0000       2.069890        56.3246 
 344   0.0000       2.093069        56.9553 
 345   0.0000       2.104513        57.2667 
 346   0.0000       2.119434        57.6727 
 347   0.0000       2.128772        57.9268 
 348   0.0000       2.136145        58.1275 
 349   0.0000       2.159838        58.7722 
 350   0.0000       2.171889        59.1001 
 351   0.0000       2.201280        59.8999 
 352   0.0000       2.204700        59.9929 
 353   0.0000       2.222336        60.4728 
 354   0.0000       2.236869        60.8683 
 355   0.0000       2.260925        61.5229 
 356   0.0000       2.275492        61.9193 
 357   0.0000       2.288899        62.2841 
 358   0.0000       2.301141        62.6172 
 359   0.0000       2.312882        62.9367 
 360   0.0000       2.313285        62.9477 
 361   0.0000       2.328238        63.3546 
 362   0.0000       2.345421        63.8221 
 363   0.0000       2.351544        63.9888 
 364   0.0000       2.364406        64.3388 
 365   0.0000       2.389561        65.0233 
 366   0.0000       2.403670        65.4072 
 367   0.0000       2.406201        65.4761 
 368   0.0000       2.409997        65.5794 
 369   0.0000       2.425928        66.0129 
 370   0.0000       2.432178        66.1829 
 371   0.0000       2.449779        66.6619 
 372   0.0000       2.467857        67.1538 
 373   0.0000       2.475185        67.3532 
 374   0.0000       2.476244        67.3820 
 375   0.0000       2.494244        67.8718 
 376   0.0000       2.513573        68.3978 
 377   0.0000       2.518245        68.5249 
 378   0.0000       2.528619        68.8072 
 379   0.0000       2.563069        69.7446 
 380   0.0000       2.573404        70.0259 
 381   0.0000       2.582652        70.2775 
 382   0.0000       2.589724        70.4700 
 383   0.0000       2.599464        70.7350 
 384   0.0000       2.614087        71.1329 
 385   0.0000       2.620998        71.3210 
 386   0.0000       2.624194        71.4079 
 387   0.0000       2.644260        71.9540 
 388   0.0000       2.665464        72.5310 
 389   0.0000       2.670536        72.6690 
 390   0.0000       2.678276        72.8796 
 391   0.0000       2.690548        73.2135 
 392   0.0000       2.699318        73.4522 
 393   0.0000       2.714469        73.8645 
 394   0.0000       2.722588        74.0854 
 395   0.0000       2.728945        74.2584 
 396   0.0000       2.741835        74.6091 
 397   0.0000       2.757306        75.0301 
 398   0.0000       2.762072        75.1598 
 399   0.0000       2.765541        75.2542 
 400   0.0000       2.770372        75.3857 
 401   0.0000       2.782483        75.7152 
 402   0.0000       2.795303        76.0641 
 403   0.0000       2.802795        76.2679 
 404   0.0000       2.810020        76.4645 
 405   0.0000       2.827273        76.9340 
 406   0.0000       2.836331        77.1805 
 407   0.0000       2.839612        77.2698 
 408   0.0000       2.845714        77.4358 
 409   0.0000       2.850284        77.5602 
 410   0.0000       2.866005        77.9880 
 411   0.0000       2.876134        78.2636 
 412   0.0000       2.886059        78.5337 
 413   0.0000       2.890177        78.6457 
 414   0.0000       2.902509        78.9813 
 415   0.0000       2.913947        79.2925 
 416   0.0000       2.919673        79.4483 
 417   0.0000       2.941423        80.0402 
 418   0.0000       2.944948        80.1361 
 419   0.0000       2.951123        80.3041 
 420   0.0000       2.962257        80.6071 
 421   0.0000       2.973829        80.9220 
 422   0.0000       2.978432        81.0472 
 423   0.0000       2.991928        81.4145 
 424   0.0000       2.998782        81.6010 
 425   0.0000       3.007691        81.8434 
 426   0.0000       3.014515        82.0291 
 427   0.0000       3.028240        82.4026 
 428   0.0000       3.035793        82.6081 
 429   0.0000       3.037095        82.6435 
 430   0.0000       3.043867        82.8278 
 431   0.0000       3.053806        83.0983 
 432   0.0000       3.058391        83.2230 
 433   0.0000       3.073847        83.6436 
 434   0.0000       3.077261        83.7365 
 435   0.0000       3.080583        83.8269 
 436   0.0000       3.092702        84.1567 
 437   0.0000       3.097686        84.2923 
 438   0.0000       3.104701        84.4832 
 439   0.0000       3.107654        84.5636 
 440   0.0000       3.112056        84.6833 
 441   0.0000       3.121482        84.9398 
 442   0.0000       3.124752        85.0288 
 443   0.0000       3.135162        85.3121 
 444   0.0000       3.143269        85.5327 
 445   0.0000       3.152356        85.7800 
 446   0.0000       3.160485        86.0012 
 447   0.0000       3.166478        86.1643 
 448   0.0000       3.177395        86.4613 
 449   0.0000       3.185602        86.6846 
 450   0.0000       3.191535        86.8461 
 451   0.0000       3.196171        86.9722 
 452   0.0000       3.206615        87.2564 
 453   0.0000       3.214770        87.4783 
 454   0.0000       3.220407        87.6317 
 455   0.0000       3.226312        87.7924 
 456   0.0000       3.230551        87.9078 
 457   0.0000       3.247986        88.3822 
 458   0.0000       3.252912        88.5162 
 459   0.0000       3.257918        88.6525 
 460   0.0000       3.269125        88.9574 
 461   0.0000       3.277846        89.1947 
 462   0.0000       3.281275        89.2880 
 463   0.0000       3.291442        89.5647 
 464   0.0000       3.303732        89.8991 
 465   0.0000       3.307617        90.0048 
 466   0.0000       3.311802        90.1187 
 467   0.0000       3.320255        90.3487 
 468   0.0000       3.322959        90.4223 
 469   0.0000       3.328924        90.5846 
 470   0.0000       3.333050        90.6969 
 471   0.0000       3.342866        90.9640 
 472   0.0000       3.352862        91.2360 
 473   0.0000       3.355070        91.2961 
 474   0.0000       3.363471        91.5247 
 475   0.0000       3.370772        91.7234 
 476   0.0000       3.376405        91.8766 
 477   0.0000       3.376595        91.8818 
 478   0.0000       3.390408        92.2577 
 479   0.0000       3.394629        92.3726 
 480   0.0000       3.397394        92.4478 
 481   0.0000       3.402852        92.5963 
 482   0.0000       3.404136        92.6313 
 483   0.0000       3.409489        92.7769 
 484   0.0000       3.414047        92.9010 
 485   0.0000       3.420196        93.0683 
 486   0.0000       3.424588        93.1878 
 487   0.0000       3.426098        93.2289 
 488   0.0000       3.430751        93.3555 
 489   0.0000       3.434005        93.4440 
 490   0.0000       3.446647        93.7880 
 491   0.0000       3.452107        93.9366 
 492   0.0000       3.454742        94.0083 
 493   0.0000       3.456650        94.0602 
 494   0.0000       3.459160        94.1285 
 495   0.0000       3.469119        94.3995 
 496   0.0000       3.476245        94.5934 
 497   0.0000       3.483206        94.7828 
 498   0.0000       3.498274        95.1929 
 499   0.0000       3.502562        95.3096 
 500   0.0000       3.514132        95.6244 
 501   0.0000       3.518305        95.7379 
 502   0.0000       3.527325        95.9834 
 503   0.0000       3.530359        96.0659 
 504   0.0000       3.542775        96.4038 
 505   0.0000       3.553151        96.6862 
 506   0.0000       3.560239        96.8790 
 507   0.0000       3.570043        97.1458 
 508   0.0000       3.578743        97.3826 
 509   0.0000       3.587643        97.6247 
 510   0.0000       3.591000        97.7161 
 511   0.0000       3.601399        97.9991 
 512   0.0000       3.611598        98.2766 
 513   0.0000       3.613664        98.3328 
 514   0.0000       3.620362        98.5151 
 515   0.0000       3.623765        98.6077 
 516   0.0000       3.630503        98.7910 
 517   0.0000       3.637287        98.9756 
 518   0.0000       3.641238        99.0831 
 519   0.0000       3.646333        99.2218 
 520   0.0000       3.650835        99.3443 
 521   0.0000       3.655079        99.4597 
 522   0.0000       3.657074        99.5141 
 523   0.0000       3.661790        99.6424 
 524   0.0000       3.672245        99.9269 
 525   0.0000       3.677991       100.0832 
 526   0.0000       3.680849       100.1610 
 527   0.0000       3.695387       100.5566 
 528   0.0000       3.702500       100.7501 
 529   0.0000       3.704923       100.8161 
 530   0.0000       3.716300       101.1257 
 531   0.0000       3.720042       101.2275 
 532   0.0000       3.731698       101.5447 
 533   0.0000       3.741213       101.8036 
 534   0.0000       3.743895       101.8766 
 535   0.0000       3.747458       101.9735 
 536   0.0000       3.755020       102.1793 
 537   0.0000       3.760192       102.3200 
 538   0.0000       3.762728       102.3890 
 539   0.0000       3.776152       102.7543 
 540   0.0000       3.782306       102.9218 
 541   0.0000       3.789105       103.1068 
 542   0.0000       3.799134       103.3797 
 543   0.0000       3.802625       103.4747 
 544   0.0000       3.808800       103.6427 
 545   0.0000       3.815558       103.8266 
 546   0.0000       3.821351       103.9842 
 547   0.0000       3.828509       104.1790 
 548   0.0000       3.835254       104.3626 
 549   0.0000       3.840569       104.5072 
 550   0.0000       3.844179       104.6054 
 551   0.0000       3.849790       104.7581 
 552   0.0000       3.869900       105.3053 
 553   0.0000       3.876281       105.4790 
 554   0.0000       3.888991       105.8248 
 555   0.0000       3.901880       106.1756 
 556   0.0000       3.905100       106.2632 
 557   0.0000       3.909703       106.3884 
 558   0.0000       3.919176       106.6462 
 559   0.0000       3.934644       107.0671 
 560   0.0000       3.938000       107.1584 
 561   0.0000       3.954887       107.6179 
 562   0.0000       3.960720       107.7767 
 563   0.0000       3.963668       107.8569 
 564   0.0000       3.980137       108.3050 
 565   0.0000       3.981934       108.3539 
 566   0.0000       3.993021       108.6556 
 567   0.0000       4.000037       108.8466 
 568   0.0000       4.006963       109.0350 
 569   0.0000       4.016157       109.2852 
 570   0.0000       4.024155       109.5028 
 571   0.0000       4.029423       109.6462 
 572   0.0000       4.043301       110.0238 
 573   0.0000       4.047543       110.1392 
 574   0.0000       4.051198       110.2387 
 575   0.0000       4.073245       110.8386 
 576   0.0000       4.077236       110.9472 
 577   0.0000       4.088795       111.2618 
 578   0.0000       4.099362       111.5493 
 579   0.0000       4.106566       111.7453 
 580   0.0000       4.109315       111.8201 
 581   0.0000       4.119813       112.1058 
 582   0.0000       4.127155       112.3056 
 583   0.0000       4.131481       112.4233 
 584   0.0000       4.144219       112.7699 
 585   0.0000       4.145068       112.7930 
 586   0.0000       4.152815       113.0038 
 587   0.0000       4.157838       113.1405 
 588   0.0000       4.163941       113.3066 
 589   0.0000       4.166687       113.3813 
 590   0.0000       4.180483       113.7567 
 591   0.0000       4.186038       113.9079 
 592   0.0000       4.193830       114.1199 
 593   0.0000       4.199137       114.2643 
 594   0.0000       4.205736       114.4439 
 595   0.0000       4.214594       114.6849 
 596   0.0000       4.217511       114.7643 
 597   0.0000       4.224030       114.9417 
 598   0.0000       4.236812       115.2895 
 599   0.0000       4.241789       115.4249 
 600   0.0000       4.248644       115.6115 
 601   0.0000       4.255416       115.7958 
 602   0.0000       4.272301       116.2552 
 603   0.0000       4.279403       116.4485 
 604   0.0000       4.282122       116.5225 
 605   0.0000       4.291800       116.7858 
 606   0.0000       4.299453       116.9941 
 607   0.0000       4.305654       117.1628 
 608   0.0000       4.310054       117.2825 
 609   0.0000       4.324796       117.6837 
 610   0.0000       4.336153       117.9927 
 611   0.0000       4.344835       118.2290 
 612   0.0000       4.347375       118.2981 
 613   0.0000       4.351677       118.4152 
 614   0.0000       4.364819       118.7728 
 615   0.0000       4.369223       118.8926 
 616   0.0000       4.371951       118.9668 
 617   0.0000       4.376113       119.0801 
 618   0.0000       4.384554       119.3098 
 619   0.0000       4.390057       119.4595 
 620   0.0000       4.402059       119.7861 
 621   0.0000       4.410378       120.0125 
 622   0.0000       4.419039       120.2482 
 623   0.0000       4.425751       120.4308 
 624   0.0000       4.433047       120.6293 
 625   0.0000       4.447805       121.0309 
 626   0.0000       4.453278       121.1799 
 627   0.0000       4.462934       121.4426 
 628   0.0000       4.464930       121.4969 
 629   0.0000       4.479629       121.8969 
 630   0.0000       4.505585       122.6032 
 631   0.0000       4.508944       122.6946 
 632   0.0000       4.517382       122.9242 
 633   0.0000       4.530111       123.2706 
 634   0.0000       4.536913       123.4557 
 635   0.0000       4.541316       123.5755 
 636   0.0000       4.548720       123.7770 
 637   0.0000       4.558151       124.0336 
 638   0.0000       4.565218       124.2259 
 639   0.0000       4.575076       124.4942 
 640   0.0000       4.579914       124.6258 
 641   0.0000       4.584567       124.7524 
 642   0.0000       4.594964       125.0353 
 643   0.0000       4.609437       125.4291 
 644   0.0000       4.617695       125.6539 
 645   0.0000       4.626121       125.8832 
 646   0.0000       4.627817       125.9293 
 647   0.0000       4.640553       126.2759 
 648   0.0000       4.645423       126.4084 
 649   0.0000       4.647871       126.4750 
 650   0.0000       4.652618       126.6042 
 651   0.0000       4.657282       126.7311 
 652   0.0000       4.669487       127.0632 
 653   0.0000       4.677067       127.2695 
 654   0.0000       4.693163       127.7075 
 655   0.0000       4.700182       127.8984 
 656   0.0000       4.708293       128.1192 
 657   0.0000       4.722669       128.5104 
 658   0.0000       4.733350       128.8010 
 659   0.0000       4.743731       129.0835 
 660   0.0000       4.753560       129.3509 
 661   0.0000       4.757006       129.4447 
 662   0.0000       4.762091       129.5831 
 663   0.0000       4.780978       130.0970 
 664   0.0000       4.786274       130.2411 
 665   0.0000       4.807448       130.8173 
 666   0.0000       4.831904       131.4828 
 667   0.0000       4.852782       132.0509 
 668   0.0000       4.873201       132.6066 
 669   0.0000       4.889980       133.0631 
 670   0.0000       4.905028       133.4726 
 671   0.0000       4.908495       133.5669 
 672   0.0000       4.922200       133.9399 
 673   0.0000       4.941481       134.4645 
 674   0.0000       4.962999       135.0501 
 675   0.0000       4.970535       135.2551 
 676   0.0000       5.009375       136.3120 
 677   0.0000       5.015991       136.4921 
 678   0.0000       5.026345       136.7738 
 679   0.0000       5.039126       137.1216 
 680   0.0000       5.055813       137.5757 
 681   0.0000       5.073577       138.0590 
 682   0.0000       5.076606       138.1415 
 683   0.0000       5.094573       138.6304 
 684   0.0000       5.109338       139.0322 
 685   0.0000       5.115225       139.1924 
 686   0.0000       5.120717       139.3418 
 687   0.0000       5.139358       139.8490 
 688   0.0000       5.145863       140.0260 
 689   0.0000       5.148456       140.0966 
 690   0.0000       5.168699       140.6474 
 691   0.0000       5.172448       140.7495 
 692   0.0000       5.188963       141.1989 
 693   0.0000       5.191223       141.2604 
 694   0.0000       5.198208       141.4504 
 695   0.0000       5.214617       141.8969 
 696   0.0000       5.218358       141.9987 
 697   0.0000       5.233152       142.4013 
 698   0.0000       5.237119       142.5092 
 699   0.0000       5.251364       142.8969 
 700   0.0000       5.258933       143.1028 
 701   0.0000       5.271197       143.4366 
 702   0.0000       5.287586       143.8825 
 703   0.0000       5.319748       144.7577 
 704   0.0000       5.327999       144.9822 
 705   0.0000       5.339259       145.2886 
 706   0.0000       5.345569       145.4603 
 707   0.0000       5.351244       145.6148 
 708   0.0000       5.370378       146.1354 
 709   0.0000       5.385439       146.5452 
 710   0.0000       5.410214       147.2194 
 711   0.0000       5.427155       147.6804 
 712   0.0000       5.433406       147.8505 
 713   0.0000       5.453533       148.3982 
 714   0.0000       5.468008       148.7921 
 715   0.0000       5.481342       149.1549 
 716   0.0000       5.504186       149.7765 
 717   0.0000       5.515308       150.0792 
 718   0.0000       5.517994       150.1522 
 719   0.0000       5.525411       150.3541 
 720   0.0000       5.534590       150.6039 
 721   0.0000       5.543137       150.8364 
 722   0.0000       5.551835       151.0731 
 723   0.0000       5.575322       151.7122 
 724   0.0000       5.587391       152.0406 
 725   0.0000       5.603473       152.4782 
 726   0.0000       5.608347       152.6109 
 727   0.0000       5.630429       153.2118 
 728   0.0000       5.637314       153.3991 
 729   0.0000       5.642367       153.5366 
 730   0.0000       5.649922       153.7422 
 731   0.0000       5.657782       153.9561 
 732   0.0000       5.674427       154.4090 
 733   0.0000       5.688103       154.7811 
 734   0.0000       5.704770       155.2347 
 735   0.0000       5.712904       155.4560 
 736   0.0000       5.719547       155.6368 
 737   0.0000       5.732159       155.9800 
 738   0.0000       5.748264       156.4182 
 739   0.0000       5.756249       156.6355 
 740   0.0000       5.771023       157.0375 
 741   0.0000       5.783473       157.3763 
 742   0.0000       5.801263       157.8604 
 743   0.0000       5.807139       158.0203 
 744   0.0000       5.822466       158.4374 
 745   0.0000       5.839655       158.9051 
 746   0.0000       5.865402       159.6057 
 747   0.0000       5.869644       159.7211 
 748   0.0000       5.910279       160.8269 
 749   0.0000       5.933564       161.4605 
 750   0.0000       5.956072       162.0730 
 751   0.0000       5.960317       162.1885 
 752   0.0000       5.979615       162.7136 
 753   0.0000       5.998440       163.2259 
 754   0.0000       6.013345       163.6314 
 755   0.0000       6.019598       163.8016 
 756   0.0000       6.059734       164.8937 
 757   0.0000       6.073730       165.2746 
 758   0.0000       6.085936       165.6067 
 759   0.0000       6.102184       166.0489 
 760   0.0000       6.104549       166.1132 
 761   0.0000       6.187997       168.3840 
 762   0.0000       6.197708       168.6482 
 763   0.0000       6.217329       169.1821 
 764   0.0000       6.228660       169.4904 
 765   0.0000       6.261583       170.3863 
 766   0.0000       6.285080       171.0257 
 767   0.0000       6.324949       172.1106 
 768   0.0000       6.341103       172.5502 
 769   0.0000       6.353830       172.8965 
 770   0.0000       6.368713       173.3015 
 771   0.0000       6.384923       173.7426 
 772   0.0000       6.407605       174.3598 
 773   0.0000       6.454061       175.6239 
 774   0.0000       6.462258       175.8470 
 775   0.0000       6.473963       176.1655 
 776   0.0000       6.510874       177.1699 
 777   0.0000       6.541748       178.0100 
 778   0.0000       6.561727       178.5537 
 779   0.0000       6.593558       179.4198 
 780   0.0000       6.668643       181.4630 
 781   0.0000       6.688675       182.0081 
 782   0.0000       6.701051       182.3449 
 783   0.0000       6.747135       183.5989 
 784   0.0000       6.779205       184.4715 
 785   0.0000       6.897049       187.6783 
 786   0.0000       6.917591       188.2372 
 787   0.0000       6.926631       188.4832 
 788   0.0000       6.945816       189.0053 
 789   0.0000       7.038142       191.5176 
 790   0.0000       7.057795       192.0524 
 791   0.0000       7.073292       192.4741 
 792   0.0000       7.086957       192.8459 
 793   0.0000       7.138452       194.2472 
 794   0.0000       7.201818       195.9714 
 795   0.0000       7.262849       197.6322 
 796   0.0000       7.266293       197.7259 
 797   0.0000       7.286557       198.2773 
 798   0.0000       7.345895       199.8920 
 799   0.0000       7.362639       200.3476 
 800   0.0000       7.458439       202.9544 
 801   0.0000       7.487973       203.7581 
 802   0.0000       7.585201       206.4038 
 803   0.0000       7.592140       206.5926 
 804   0.0000       7.689224       209.2344 
 805   0.0000       7.821442       212.8322 
 806   0.0000       7.838775       213.3039 
 807   0.0000       7.939222       216.0372 
 808   0.0000       7.970583       216.8906 
 809   0.0000       9.356537       254.6043 
 810   0.0000       9.614955       261.6362 
 811   0.0000      10.854247       295.3591 
 812   0.0000      11.336069       308.4701 
 813   0.0000      11.902056       323.8714 
 814   0.0000      12.585382       342.4657 
 815   0.0000      12.920057       351.5726 
 816   0.0000      13.038623       354.7990 
 817   0.0000      13.072660       355.7252 
 818   0.0000      13.174446       358.4949 
 819   0.0000      13.405392       364.7793 
 820   0.0000      13.479532       366.7967 
 821   0.0000      13.807085       375.7099 
 822   0.0000      13.919260       378.7623 
 823   0.0000      13.949678       379.5900 
 824   0.0000      13.995071       380.8252 
 825   0.0000      14.543401       395.7461 
 826   0.0000      14.764547       401.7637 
 827   0.0000      15.951901       434.0733 

                    ********************************
                    * MULLIKEN POPULATION ANALYSIS *
                    ********************************

-----------------------
MULLIKEN ATOMIC CHARGES
-----------------------
   0 C :   -0.282629
   1 C :    0.021542
   2 O :   -0.347534
   3 C :    0.452283
   4 O :   -0.433517
   5 C :   -0.175548
   6 C :    0.142062
   7 C :   -0.283795
   8 N :   -0.121117
   9 C :    0.201360
  10 S :   -0.438894
  11 N :   -0.197314
  12 C :    0.034816
  13 C :    0.058131
  14 C :   -0.161360
  15 C :   -0.134308
  16 C :   -0.279247
  17 C :    0.311865
  18 O :   -0.359116
  19 C :   -0.273164
  20 H :    0.112418
  21 H :    0.094720
  22 H :    0.092086
  23 H :    0.116578
  24 H :    0.104827
  25 H :    0.126969
  26 H :    0.101519
  27 H :    0.127389
  28 H :    0.196774
  29 H :    0.193621
  30 H :    0.153526
  31 H :    0.153488
  32 H :    0.159100
  33 H :    0.128098
  34 H :    0.240028
  35 H :    0.164344
Sum of atomic charges:    0.0000000

--------------------------------
MULLIKEN REDUCED ORBITAL CHARGES
--------------------------------
  0 C s       :     3.261223  s :     3.261223
      pz      :     0.989839  p :     2.945203
      px      :     0.957677
      py      :     0.997688
      dz2     :     0.012313  d :     0.071735
      dxz     :     0.018279
      dyz     :     0.016450
      dx2y2   :     0.006856
      dxy     :     0.017836
      f0      :     0.000372  f :     0.004468
      f+1     :     0.000687
      f-1     :     0.000434
      f+2     :     0.000491
      f-2     :     0.001447
      f+3     :     0.000659
      f-3     :     0.000377
  1 C s       :     3.171958  s :     3.171958
      pz      :     0.934246  p :     2.645012
      px      :     0.921978
      py      :     0.788788
      dz2     :     0.031497  d :     0.150015
      dxz     :     0.024045
      dyz     :     0.031434
      dx2y2   :     0.020083
      dxy     :     0.042955
      f0      :     0.000794  f :     0.011473
      f+1     :     0.001458
      f-1     :     0.001972
      f+2     :     0.001639
      f-2     :     0.002325
      f+3     :     0.001611
      f-3     :     0.001673
  2 O s       :     3.716893  s :     3.716893
      pz      :     1.545090  p :     4.594609
      px      :     1.471886
      py      :     1.577633
      dz2     :     0.004926  d :     0.033776
      dxz     :     0.006970
      dyz     :     0.006646
      dx2y2   :     0.009079
      dxy     :     0.006154
      f0      :     0.000336  f :     0.002257
      f+1     :     0.000423
      f-1     :     0.000113
      f+2     :     0.000496
      f-2     :     0.000452
[...]
 15 C s       :     2.705710  s :     2.705710
      pz      :     0.916019  p :     2.796979
      px      :     0.917894
      py      :     0.963065
      dz2     :     0.101173  d :     0.415737
      dxz     :     0.070735
      dyz     :     0.066431
      dx2y2   :     0.102192
      dxy     :     0.075205
      f0      :     0.003813  f :     0.041004
      f+1     :     0.005716
      f-1     :     0.006408
      f+2     :     0.007567
      f-2     :     0.006098
      f+3     :     0.006110
      f-3     :     0.005292
 16 C s       :     2.701821  s :     2.701821
      pz      :     0.942145  p :     2.869158
      px      :     0.953691
      py      :     0.973321
      dz2     :     0.050553  d :     0.391096
      dxz     :     0.056621
      dyz     :     0.093930
      dx2y2   :     0.091097
      dxy     :     0.098896
      f0      :     0.004298  f :     0.040337
      f+1     :     0.004899
      f-1     :     0.004739
      f+2     :     0.006263
      f-2     :     0.005086
      f+3     :     0.008554
      f-3     :     0.006498
 17 C s       :     2.701485  s :     2.701485
      pz      :     0.861165  p :     2.684121
      px      :     0.819167
      py      :     1.003788
      dz2     :     0.135710  d :     0.707827
      dxz     :     0.106277
      dyz     :     0.150580
      dx2y2   :     0.155266
      dxy     :     0.159993
      f0      :     0.010656  f :     0.099218
      f+1     :     0.015347
      f-1     :     0.010947
      f+2     :     0.017214
      f-2     :     0.014286
      f+3     :     0.016263
      f-3     :     0.014503
 18 O s       :     3.177278  s :     3.177278
      pz      :     1.399888  p :     4.349074
      px      :     1.440178
      py      :     1.509008
      dz2     :     0.009133  d :     0.075569
      dxz     :     0.016902
      dyz     :     0.020622
      dx2y2   :     0.013448
      dxy     :     0.015463
      f0      :     0.000626  f :     0.005078
      f+1     :     0.000678
      f-1     :     0.000512
      f+2     :     0.000750
      f-2     :     0.001068
      f+3     :     0.000666
      f-3     :     0.000778
 19 C s       :     2.695294  s :     2.695294
      pz      :     0.941157  p :     2.847102
      px      :     0.943583
      py      :     0.962362
      dz2     :     0.083890  d :     0.388385
      dxz     :     0.069553
      dyz     :     0.067407
      dx2y2   :     0.089440
      dxy     :     0.078095
      f0      :     0.003750  f :     0.040815
      f+1     :     0.006050
      f-1     :     0.006029
      f+2     :     0.007487
      f-2     :     0.006599
      f+3     :     0.006029
      f-3     :     0.004871
 20 H s       :     0.844060  s :     0.844060
      pz      :     0.065317  p :     0.151333
      px      :     0.043153
      py      :     0.042862
      dz2     :     0.008616  d :     0.027445
      dxz     :     0.006992
      dyz     :     0.007200
      dx2y2   :     0.001876
      dxy     :     0.002761
 21 H s       :     0.847466  s :     0.847466
      pz      :     0.044978  p :     0.151278
      px      :     0.047532
      py      :     0.058768
      dz2     :     0.004651  d :     0.027423
      dxz     :     0.003896
      dyz     :     0.005559
      dx2y2   :     0.006737
      dxy     :     0.006581
 22 H s       :     0.851039  s :     0.851039
      pz      :     0.041544  p :     0.150739
      px      :     0.053647
      py      :     0.055548
      dz2     :     0.002540  d :     0.027543
      dxz     :     0.004731
      dyz     :     0.005174
      dx2y2   :     0.008268
      dxy     :     0.006831
 23 H s       :     0.850922  s :     0.850922
      pz      :     0.039108  p :     0.149421
      px      :     0.055757
      py      :     0.054556
      dz2     :     0.002712  d :     0.027034
      dxz     :     0.005325
      dyz     :     0.004957
      dx2y2   :     0.006493
      dxy     :     0.007546
 24 H s       :     0.855827  s :     0.855827
      pz      :     0.067817  p :     0.144861
      px      :     0.045047
      py      :     0.031998
      dz2     :     0.009415  d :     0.026934
      dxz     :     0.007605
      dyz     :     0.005605
      dx2y2   :     0.001503
      dxy     :     0.002807
 25 H s       :     0.829261  s :     0.829261
      pz      :     0.067703  p :     0.151272
      px      :     0.042180
      py      :     0.041388
      dz2     :     0.009253  d :     0.027773
      dxz     :     0.007815
      dyz     :     0.007359
      dx2y2   :     0.002121
      dxy     :     0.001225
 26 H s       :     0.843370  s :     0.843370
      pz      :     0.037675  p :     0.150127
      px      :     0.039515
      py      :     0.072937
      dz2     :     0.002381  d :     0.027720
      dxz     :     0.000239
      dyz     :     0.008904
      dx2y2   :     0.006790
      dxy     :     0.009406
 27 H s       :     0.830454  s :     0.830454
      pz      :     0.038593  p :     0.151731
      px      :     0.067939
      py      :     0.045199
      dz2     :     0.002533  d :     0.027758
      dxz     :     0.007973
      dyz     :     0.001055
      dx2y2   :     0.008702
      dxy     :     0.007494
 28 H s       :     0.742828  s :     0.742828
      pz      :     0.064396  p :     0.254433
      px      :     0.076135
      py      :     0.113902
      dz2     :     0.005700  d :     0.061931
      dxz     :     0.002702
      dyz     :     0.017483
      dx2y2   :     0.017287
      dxy     :     0.018759
 29 H s       :     0.748446  s :     0.748446
      pz      :     0.109099  p :     0.253837
      px      :     0.102175
      py      :     0.042562
      dz2     :     0.019776  d :     0.061317
      dxz     :     0.015146
      dyz     :     0.008211
      dx2y2   :     0.010516
      dxy     :     0.007667
 30 H s       :     0.828269  s :     0.828269
      pz      :     0.042800  p :     0.148442
      px      :     0.060234
      py      :     0.045409
      dz2     :     0.003649  d :     0.028399
      dxz     :     0.006973
      dyz     :     0.003766
      dx2y2   :     0.006754
      dxy     :     0.007258
 31 H s       :     0.841882  s :     0.841882
      pz      :     0.054454  p :     0.155908
      px      :     0.062143
      py      :     0.039311
      dz2     :     0.005596  d :     0.027478
      dxz     :     0.006539
      dyz     :     0.004171
      dx2y2   :     0.005546
      dxy     :     0.005627
 32 H s       :     0.843431  s :     0.843431
      pz      :     0.036740  p :     0.151335
      px      :     0.039310
      py      :     0.075286
      dz2     :     0.002729  d :     0.026481
      dxz     :     0.000694
      dyz     :     0.007487
      dx2y2   :     0.007695
      dxy     :     0.007876
 33 H s       :     0.849405  s :     0.849405
      pz      :     0.060766  p :     0.159223
      px      :     0.049306
      py      :     0.049151
      dz2     :     0.006856  d :     0.027777
      dxz     :     0.005335
      dyz     :     0.006221
      dx2y2   :     0.004855
      dxy     :     0.004509
 34 H s       :     0.707094  s :     0.707094
      pz      :     0.116874  p :     0.348190
      px      :     0.089013
      py      :     0.142303
      dz2     :     0.025187  d :     0.099650
      dxz     :     0.013653
      dyz     :     0.024014
      dx2y2   :     0.018256
      dxy     :     0.018540
 35 H s       :     0.840013  s :     0.840013
      pz      :     0.039244  p :     0.157107
      px      :     0.041484
      py      :     0.076378
      dz2     :     0.002736  d :     0.028038
      dxz     :     0.000834
      dyz     :     0.008086
      dx2y2   :     0.007968
      dxy     :     0.008414


                      *****************************
                      * MAYER POPULATION ANALYSIS *
                      *****************************

  NA   - Mulliken gross atomic population
  ZA   - Total nuclear charge
  QA   - Mulliken gross atomic charge
  VA   - Mayer's total valence
  BVA  - Mayer's bonded valence
  FA   - Mayer's free valence

  ATOM       NA         ZA         QA         VA         BVA        FA
  0 C      6.2826     6.0000    -0.2826     3.8844     3.8844     0.0000
  1 C      5.9785     6.0000     0.0215     3.8500     3.8500     0.0000
  2 O      8.3475     8.0000    -0.3475     2.0690     2.0690     0.0000
  3 C      5.5477     6.0000     0.4523     4.2220     4.2220    -0.0000
  4 O      8.4335     8.0000    -0.4335     2.0808     2.0808     0.0000
  5 C      6.1755     6.0000    -0.1755     3.6196     3.6196    -0.0000
  6 C      5.8579     6.0000     0.1421     3.8505     3.8505    -0.0000
  7 C      6.2838     6.0000    -0.2838     3.8926     3.8926     0.0000
  8 N      7.1211     7.0000    -0.1211     3.2930     3.2930    -0.0000
  9 C      5.7986     6.0000     0.2014     4.1548     4.1548     0.0000
 10 S     16.4389    16.0000    -0.4389     1.7572     1.7572     0.0000
 11 N      7.1973     7.0000    -0.1973     3.2613     3.2613     0.0000
 12 C      5.9652     6.0000     0.0348     3.9713     3.9713    -0.0000
 13 C      5.9419     6.0000     0.0581     3.7365     3.7365     0.0000
 14 C      6.1614     6.0000    -0.1614     3.8658     3.8658     0.0000
 15 C      6.1343     6.0000    -0.1343     3.8077     3.8077    -0.0000
 16 C      6.2792     6.0000    -0.2792     3.7932     3.7932     0.0000
 17 C      5.6881     6.0000     0.3119     3.8761     3.8761     0.0000
 18 O      8.3591     8.0000    -0.3591     2.1155     2.1155    -0.0000
 19 C      6.2732     6.0000    -0.2732     3.8534     3.8534     0.0000
 20 H      0.8876     1.0000     0.1124     0.9857     0.9857    -0.0000
 21 H      0.9053     1.0000     0.0947     0.9840     0.9840     0.0000
 22 H      0.9079     1.0000     0.0921     0.9832     0.9832     0.0000
 23 H      0.8834     1.0000     0.1166     0.9868     0.9868     0.0000
 24 H      0.8952     1.0000     0.1048     0.9757     0.9757    -0.0000
 25 H      0.8730     1.0000     0.1270     0.9831     0.9831     0.0000
 26 H      0.8985     1.0000     0.1015     0.9867     0.9867    -0.0000
 27 H      0.8726     1.0000     0.1274     0.9796     0.9796    -0.0000
 28 H      0.8032     1.0000     0.1968     1.0238     1.0238    -0.0000
 29 H      0.8064     1.0000     0.1936     1.0186     1.0186     0.0000
 30 H      0.8465     1.0000     0.1535     0.9970     0.9970     0.0000
 31 H      0.8465     1.0000     0.1535     0.9900     0.9900    -0.0000
 32 H      0.8409     1.0000     0.1591     0.9776     0.9776    -0.0000
 33 H      0.8719     1.0000     0.1281     0.9921     0.9921     0.0000
 34 H      0.7600     1.0000     0.2400     1.0111     1.0111     0.0000
 35 H      0.8357     1.0000     0.1643     0.9888     0.9888     0.0000

  Mayer bond orders larger than 0.100000
B(  0-C ,  1-C ) :   0.9657 B(  0-C , 20-H ) :   0.9761 B(  0-C , 21-H ) :   0.9756 
B(  0-C , 22-H ) :   0.9780 B(  1-C ,  2-O ) :   0.8886 B(  1-C , 23-H ) :   0.9752 
B(  1-C , 24-H ) :   0.9843 B(  2-O ,  3-C ) :   1.1620 B(  3-C ,  4-O ) :   1.9725 
B(  3-C ,  5-C ) :   1.0577 B(  5-C ,  6-C ) :   1.6437 B(  5-C , 12-C ) :   0.9672 
B(  6-C ,  7-C ) :   0.9562 B(  6-C ,  8-N ) :   1.1508 B(  7-C , 25-H ) :   0.9652 
B(  7-C , 26-H ) :   0.9912 B(  7-C , 27-H ) :   0.9637 B(  8-N ,  9-C ) :   1.1775 
B(  8-N , 28-H ) :   0.9487 B(  9-C , 10-S ) :   1.6111 B(  9-C , 11-N ) :   1.3048 
B( 11-N , 12-C ) :   0.9922 B( 11-N , 29-H ) :   0.9520 B( 12-C , 13-C ) :   0.9470 
B( 12-C , 30-H ) :   1.0004 B( 13-C , 14-C ) :   1.3752 B( 13-C , 19-C ) :   1.3693 
B( 14-C , 15-C ) :   1.3947 B( 14-C , 31-H ) :   0.9648 B( 15-C , 16-C ) :   1.3622 
B( 15-C , 32-H ) :   0.9714 B( 16-C , 17-C ) :   1.3315 B( 16-C , 33-H ) :   0.9860 
B( 17-C , 18-O ) :   1.1080 B( 17-C , 19-C ) :   1.3791 B( 18-O , 34-H ) :   0.9806 
B( 19-C , 35-H ) :   0.9585 

-------
TIMINGS
-------

Total SCF time: 0 days 2 hours 21 min 45 sec 

Total time                  ....    8505.472 sec
Sum of individual times     ....    8496.766 sec  ( 99.9%)

Fock matrix formation       ....    8466.787 sec  ( 99.5%)
Diagonalization             ....       1.895 sec  (  0.0%)
Density matrix formation    ....       0.215 sec  (  0.0%)
Population analysis         ....       0.384 sec  (  0.0%)
Initial guess               ....       8.235 sec  (  0.1%)
Orbital Transformation      ....       0.000 sec  (  0.0%)
Orbital Orthonormalization  ....       0.000 sec  (  0.0%)
DIIS solution               ....      14.949 sec  (  0.2%)
SOSCF solution              ....       2.888 sec  (  0.0%)

Maximum memory used throughout the entire SCF-calculation: 726.5 MB

------------------------------------------------------------------------------
                                ORCA  MP2 
------------------------------------------------------------------------------

Freezing NCore=48 chemical core electrons

-------------
RI-MP2 ENERGY
-------------
Dimension of the basis                    ...  828
Memory devoted to MP2                     ...  256 MB   
Data format for buffers                   ... DOUBLE
Compression type for matrix containers    ... UNCOMPRESSED
Overall scaling of the MP2 energy         ...   1.000e+00
Calculating two index integrals           ... done (    0.033 sec)
Cholesky decomposition of V**-1           ... done (    0.485 sec)

-----------------
RI-TRANSFORMATION (AUX index driven)
-----------------

Dimension of the orbital-basis         ... 828
Dimension of the aux-basis             ... 2141
Transformation of internal/external MOs...   24-  76 to   77- 827
Number Format for Storage              ... Double (8 Byte)
Integral mode                          ... Direct

First Phase: integral generation and transformation of MO indices
  Aux angular momentum 0               ... done (    4.277 sec)
  Aux angular momentum 1               ... done (    7.418 sec)
  Aux angular momentum 2               ... done (    7.949 sec)
  Aux angular momentum 3               ... done (    6.115 sec)
  Aux angular momentum 4               ... done (    2.143 sec)
Closing buffer VIA ( 0.63 GB; CompressionRatio= 1.00)
  Phase 1 completed in    28.103 sec
Second Phase: sorting and transformation of aux index

IA-Transformation
Memory available                       ... 157 MB 
Max. # MO pairs treated in a batch     ... 11    
# of internal orbitals                 ... 53
# batches for internal orbitals        ... 5
Closing buffer IAV ( 0.63 GB; CompressionRatio= 1.00)
(ia|v) transformation done in    28.752 sec

  Phase 2 completed in    28.762 sec
RI-Integral transformation completed in    56.945 sec
Opening buffers                              ... done

Starting loop over batches of integrals:

Operator 0  - window                       ... ( 24- 76)x( 77-827)
Operator 0  - Memory available             ...   256 MB
Operator 0  - Memory needed per MO         ...  12.3 MB
Operator 0  - Number of orbitals per batch ... 13
Operator 0  - Number of batches            ... 5

OPERATOR  0   PASS   0:  MOs    24 ...   36
  Reading integrals       ... ok
  Internal MO  26
  Internal MO  29
  Internal MO  32
  Internal MO  35
OPERATOR  0   PASS   1:  MOs    37 ...   49
  Reading integrals       ... ok
  Internal MO  38
  Internal MO  41
  Internal MO  44
  Internal MO  47
OPERATOR  0   PASS   2:  MOs    50 ...   62
  Reading integrals       ... ok
  Internal MO  50
  Internal MO  53
  Internal MO  56
  Internal MO  59
  Internal MO  62
OPERATOR  0   PASS   3:  MOs    63 ...   75
  Reading integrals       ... ok
  Internal MO  65
  Internal MO  68
  Internal MO  71
  Internal MO  74
OPERATOR  0   PASS   4:  MOs    76 ...   76
  Reading integrals       ... ok
Time spent in pair loops =   108.770 sec
Deleting buffer (Ka|jb)[aa] ...done

-----------------------------------------------
 RI-MP2 CORRELATION ENERGY:     -3.530784062 Eh
-----------------------------------------------


-------
TIMINGS
-------

Total time                :  166.356 sec
Integral trafo            :   56.972 sec ( 34.2%)
I/O of integrals          :    1.725 sec (  1.0%)
K(i,j) Operators          :   80.410 sec ( 48.3%)
T(i,j) pair energies      :    3.472 sec (  2.1%)
V-calculation             :    0.033 sec (  0.0%)
V**(-1/2)                 :    0.485 sec (  0.3%)
Gamma(ia|P)               :    0.000 sec (  0.0%)
Gamma-Trafo               :    0.000 sec (  0.0%)
D(virtual)                :    0.000 sec (  0.0%)
D(internal)               :    0.000 sec (  0.0%)
W(virtual)                :    0.000 sec (  0.0%)
W(internal)               :    0.000 sec (  0.0%)
L(virtual)                :    0.000 sec (  0.0%)
L(internal)               :    0.000 sec (  0.0%)
G(D)                      :    0.000 sec (  0.0%)
G(Z)                      :    0.000 sec (  0.0%)
Z-Vector Solution         :    0.000 sec (  0.0%)
3-Index Derivative        :    0.000 sec (  0.0%)
2-Index Derivative        :    0.000 sec (  0.0%)
Separable Gradient        :    0.000 sec (  0.0%)


---------------------------------------
MP2 TOTAL ENERGY:    -1274.349443879 Eh
---------------------------------------

Maximum memory used throughout the entire MP2-calculation: 303.5 MB

-------------------------   --------------------
FINAL SINGLE POINT ENERGY     -1274.349443879171
-------------------------   --------------------


                            ***************************************
                            *     ORCA property calculations      *
                            ***************************************


  WARNING: The energy has been calculated at the MP2 level but the densities
           used in the property calculations are still SCF densities
           MP2 response densities have not been calculated 
           use %mp2 Density relaxed end
           or  %mp2 Density unrelaxed end

                                    ---------------------
                                    Active property flags
                                    ---------------------
   (+) Dipole Moment


------------------------------------------------------------------------------
                       ORCA ELECTRIC PROPERTIES CALCULATION
------------------------------------------------------------------------------

Dipole Moment Calculation                       ... on
Quadrupole Moment Calculation                   ... off
Polarizability Calculation                      ... off
GBWName                                         ... CONFS/Conf715.orca.gbw
Electron density file                           ... CONFS/Conf715.orca.scfp
The origin for moment calculation is the CENTER OF MASS  = (32.913855, 31.493542 35.420243)

-------------
DIPOLE MOMENT
-------------
                                X             Y             Z
Electronic contribution:     11.13575       9.61697       9.36039
Nuclear contribution   :    -12.61616     -10.85268     -10.44491
                        -----------------------------------------
Total Dipole Moment    :     -1.48040      -1.23572      -1.08452
                        -----------------------------------------
Magnitude (a.u.)       :      2.21241
Magnitude (Debye)      :      5.62350



--------------------
Rotational spectrum 
--------------------
 
Rotational constants in cm-1:     0.010656     0.009148     0.006045 
Rotational constants in MHz :   319.465327   274.261045   181.221039 

 Dipole components along the rotational axes: 
x,y,z [a.u.] :    -2.091346    -0.247377     0.678114 
x,y,z [Debye]:    -5.315780    -0.628782     1.723629 

 

Timings for individual modules:

Sum of individual times         ...     8676.235 sec (= 144.604 min)
GTO integral calculation        ...        3.523 sec (=   0.059 min)   0.0 %
SCF iterations                  ...     8505.839 sec (= 141.764 min)  98.0 %
MP2 module                      ...      166.873 sec (=   2.781 min)   1.9 %
                             ****ORCA TERMINATED NORMALLY****
TOTAL RUN TIME: 0 days 2 hours 24 minutes 37 seconds 554 msec
