
                                        *****************
                                        * O   R   C   A *
                                        *****************

                                            #,                                       
                                            ###                                      
                                            ####                                     
                                            #####                                    
                                            ######                                   
                                           ########,                                 
                                     ,,################,,,,,                         
                               ,,#################################,,                 
                          ,,##########################################,,             
                       ,#########################################, ''#####,          
                    ,#############################################,,   '####,        
                  ,##################################################,,,,####,       
                ,###########''''           ''''###############################       
              ,#####''   ,,,,##########,,,,          '''####'''          '####       
            ,##' ,,,,###########################,,,                        '##       
           ' ,,###''''                  '''############,,,                           
         ,,##''                                '''############,,,,        ,,,,,,###''
      ,#''                                            '''#######################'''  
     '                                                          ''''####''''         
             ,#######,   #######,   ,#######,      ##                                
            ,#'     '#,  ##    ##  ,#'     '#,    #''#        ######   ,####,        
            ##       ##  ##   ,#'  ##            #'  '#       #        #'  '#        
            ##       ##  #######   ##           ,######,      #####,   #    #        
            '#,     ,#'  ##    ##  '#,     ,#' ,#      #,         ##   #,  ,#        
             '#######'   ##     ##  '#######'  #'      '#     #####' # '####'        



                  #######################################################
                  #                        -***-                        #
                  #          Department of theory and spectroscopy      #
                  #    Directorship and core code : Frank Neese         #
                  #        Max Planck Institute fuer Kohlenforschung    #
                  #                Kaiser Wilhelm Platz 1               #
                  #                 D-45470 Muelheim/Ruhr               #
                  #                      Germany                        #
                  #                                                     #
                  #                  All rights reserved                #
                  #                        -***-                        #
                  #######################################################


                         Program Version 5.0.0 -  RELEASE  -
                                (SVN: $Rev: 19529$)
                ($Date: 2021-06-28 11:36:33 +0200 (Mo, 28 Jun 2021) $)


 With contributions from (in alphabetic order):
   Daniel Aravena         : Magnetic Suceptibility
   Michael Atanasov       : Ab Initio Ligand Field Theory (pilot matlab implementation)
   Alexander A. Auer      : GIAO ZORA, VPT2 properties, NMR spectrum
   Ute Becker             : Parallelization
   Giovanni Bistoni       : ED, misc. LED, open-shell LED, HFLD
   Martin Brehm           : Molecular dynamics
   Dmytro Bykov           : SCF Hessian
   Vijay G. Chilkuri      : MRCI spin determinant printing, contributions to CSF-ICE
   Dipayan Datta          : RHF DLPNO-CCSD density
   Achintya Kumar Dutta   : EOM-CC, STEOM-CC
   Dmitry Ganyushin       : Spin-Orbit,Spin-Spin,Magnetic field MRCI
   Miquel Garcia          : C-PCM Hessian, Gaussian charge scheme
   Yang Guo               : DLPNO-NEVPT2, F12-NEVPT2, CIM, IAO-localization
   Andreas Hansen         : Spin unrestricted coupled pair/coupled cluster methods
   Benjamin Helmich-Paris : MC-RPA, TRAH-SCF, COSX integrals
   Lee Huntington         : MR-EOM, pCC
   Robert Izsak           : Overlap fitted RIJCOSX, COSX-SCS-MP3, EOM
   Marcus Kettner         : VPT2
   Christian Kollmar      : KDIIS, OOCD, Brueckner-CCSD(T), CCSD density, CASPT2, CASPT2-K
   Simone Kossmann        : Meta GGA functionals, TD-DFT gradient, OOMP2, MP2 Hessian
   Martin Krupicka        : Initial AUTO-CI
   Lucas Lang             : DCDCAS
   Marvin Lechner         : AUTO-CI (C++ implementation), FIC-MRCC
   Dagmar Lenk            : GEPOL surface, SMD
   Dimitrios Liakos       : Extrapolation schemes; Compound Job, initial MDCI parallelization
   Dimitrios Manganas     : Further ROCIS development; embedding schemes
   Dimitrios Pantazis     : SARC Basis sets
   Anastasios Papadopoulos: AUTO-CI, single reference methods and gradients
   Taras Petrenko         : DFT Hessian,TD-DFT gradient, ASA, ECA, R-Raman, ABS, FL, XAS/XES, NRVS
   Peter Pinski           : DLPNO-MP2, DLPNO-MP2 Gradient
   Christoph Reimann      : Effective Core Potentials
   Marius Retegan         : Local ZFS, SOC
   Christoph Riplinger    : Optimizer, TS searches, QM/MM, DLPNO-CCSD(T), (RO)-DLPNO pert. Triples
   Tobias Risthaus        : Range-separated hybrids, TD-DFT gradient, RPA, STAB
   Michael Roemelt        : Original ROCIS implementation
   Masaaki Saitow         : Open-shell DLPNO-CCSD energy and density
   Barbara Sandhoefer     : DKH picture change effects
   Avijit Sen             : IP-ROCIS
   Kantharuban Sivalingam : CASSCF convergence, NEVPT2, FIC-MRCI
   Bernardo de Souza      : ESD, SOC TD-DFT
   Georgi Stoychev        : AutoAux, RI-MP2 NMR
   Willem Van den Heuvel  : Paramagnetic NMR
   Boris Wezisla          : Elementary symmetry handling
   Frank Wennmohs         : Technical directorship


 We gratefully acknowledge several colleagues who have allowed us to
 interface, adapt or use parts of their codes:
   Stefan Grimme, W. Hujo, H. Kruse, P. Pracht,  : VdW corrections, initial TS optimization,
                  C. Bannwarth, S. Ehlert          DFT functionals, gCP, sTDA/sTD-DF
   Ed Valeev, F. Pavosevic, A. Kumar             : LibInt (2-el integral package), F12 methods
   Garnet Chan, S. Sharma, J. Yang, R. Olivares  : DMRG
   Ulf Ekstrom                                   : XCFun DFT Library
   Mihaly Kallay                                 : mrcc  (arbitrary order and MRCC methods)
   Jiri Pittner, Ondrej Demel                    : Mk-CCSD
   Frank Weinhold                                : gennbo (NPA and NBO analysis)
   Christopher J. Cramer and Donald G. Truhlar   : smd solvation model
   Lars Goerigk                                  : TD-DFT with DH, B97 family of functionals
   V. Asgeirsson, H. Jonsson                     : NEB implementation
   FAccTs GmbH                                   : IRC, NEB, NEB-TS, DLPNO-Multilevel, CI-OPT
                                                   MM, QMMM, 2- and 3-layer-ONIOM, Crystal-QMMM,
                                                   LR-CPCM, SF, NACMEs, symmetry and pop. for TD-DFT,
                                                   nearIR, NL-DFT gradient (VV10), updates on ESD,
                                                   ML-optimized integration grids
   S Lehtola, MJT Oliveira, MAL Marques          : LibXC Library
   Liviu Ungur et al                             : ANISO software


 Your calculation uses the libint2 library for the computation of 2-el integrals
 For citations please refer to: http://libint.valeyev.net

 Your ORCA version has been built with support for libXC version: 5.1.0
 For citations please refer to: https://tddft.org/programs/libxc/

 This ORCA versions uses:
   CBLAS   interface :  Fast vector & matrix operations
   LAPACKE interface :  Fast linear algebra routines
   SCALAPACK package :  Parallel linear algebra routines
   Shared memory     :  Shared parallel matrices
   BLAS/LAPACK       :  OpenBLAS 0.3.15  USE64BITINT DYNAMIC_ARCH NO_AFFINITY SkylakeX SINGLE_THREADED
        Core in use  :  SkylakeX
   Copyright (c) 2011-2014, The OpenBLAS Project


================================================================================

----- Orbital basis set information -----
Your calculation utilizes the basis: cc-pVTZ 
       H, B-Ne : Obtained from the ccRepo (grant-hill.group.shef.ac.uk/ccrepo) Feb. 2017
                 T. H. Dunning, Jr., J. Chem. Phys. 90, 1007 (1989)
            He : Obtained from the ccRepo (grant-hill.group.shef.ac.uk/ccrepo) Feb. 2017
                 D. E. Woon, T. H. Dunning, Jr., J. Chem. Phys. 100, 2975 (1994)
  Li-Be, Na-Mg : Obtained from the ccRepo (grant-hill.group.shef.ac.uk/ccrepo) Feb. 2017
                 B. P. Prascher, D. E. Woon, K. A. Peterson, T. H. Dunning, Jr., A. K. Wilson, Theor. Chem. Acc. 128, 69 (2011)
         Al-Ar : Obtained from the ccRepo (grant-hill.group.shef.ac.uk/ccrepo) Feb. 2017
                 D. E. Woon, T. H. Dunning, Jr., J. Chem. Phys. 98, 1358 (1993)
            Ca : Obtained from the Peterson Research Group Website (tyr0.chem.wsu.edu/~kipeters) Feb. 2017
                 J. Koput, K. A. Peterson, J. Phys. Chem. 106, 9595 (2002)
         Sc-Zn : Obtained from the ccRepo (grant-hill.group.shef.ac.uk/ccrepo) Feb. 2017
                 N. B. Balabanov, K. A. Peterson, J. Chem. Phys. 123, 064107 (2005)
                 N. B. Balabanov, K. A. Peterson, J. Chem. Phys. 125, 074110 (2006)
         Ga-Kr : Obtained from the ccRepo (grant-hill.group.shef.ac.uk/ccrepo) Feb. 2017
                 A. K. Wilson, D. E. Woon, K. A. Peterson, T. H. Dunning, Jr., J. Chem. Phys. 110, 7667 (1999)
             Y : Obtained from the ccRepo (grant-hill.group.shef.ac.uk/ccrepo) Feb. 2017
                 K. A. Peterson, D. Figgen, M. Dolg, H. Stoll, J. Chem. Phys. 126, 124101 (2007)
        Ag, Au : Obtained from the Peterson Research Group Website (tyr0.chem.wsu.edu/~kipeters) Feb. 2017
                 K. A. Peterson, C. Puzzarini, Theor. Chem. Acc. 114, 283 (2005)

----- AuxC basis set information -----
Your calculation utilizes the auxiliary basis: cc-pVTZ/C 
  Obtained from the EMSL Basis Set Exchange (bse.pnl.gov) Feb. 2017
  H-He, B-F, Al-Ar, Ga-Kr : F. Weigend, A. Kohn, C. Hattig, J. Chem. Phys. 116, 3175 (2002)
             Li-Be, Na-Mg : C. Haettig, Phys. Chem. Chem. Phys. 7, 59 (2005)
                       Ne : C. Haettig, Phys. Chem. Chem. Phys. 7, 59 (2005)
                            F. Weigend, A. Kohn, C. Hattig, J. Chem. Phys. 116, 3175 (2002)
                    Sc-Zn : J. G. Hill, J. A. Platts, J. Chem. Phys. 128, 044104 (2008)

================================================================================
                                        WARNINGS
                       Please study these warnings very carefully!
================================================================================


WARNING: No MP2 level density has been requested!
         To caclulate MP2 level properties use
         %mp2 Density relaxed end
         or
         %mp2 Density unrelaxed end

WARNING: Post HF methods need fully converged wavefunctions
  ===> : Setting SCFConvForced true
         You can overwrite this default with %scf ConvForced false 


INFO   : the flag for use of the SHARK integral package has been found!

================================================================================
                                       INPUT FILE
================================================================================
NAME = CONFS/Conf49.orca
|  1> ! ri-mp2 cc-pvtz cc-pvtz/c TightSCF NoKeepInts
|  2> 
|  3> %scf
|  4>   MaxCore 4096
|  5> end
|  6> *xyz  0  1
|  7>     C       14.6088477   14.4318934   17.0020744
|  8>     C       15.6001276   15.5906734   16.8115612
|  9>     O       16.8762318   15.0024509   16.4998268
| 10>     C       18.0790844   15.6607371   16.5632328
| 11>     O       19.1051843   15.0193108   16.4351732
| 12>     C       18.0782951   16.8977466   17.3978626
| 13>     C       17.5829634   18.0740133   16.9520627
| 14>     C       16.9944910   18.3518859   15.5860383
| 15>     N       17.6486481   19.2077591   17.7644964
| 16>     C       18.2692833   19.2553825   18.9863075
| 17>     S       18.3430511   20.6528306   19.8668895
| 18>     N       18.8203533   18.0838364   19.4466019
| 19>     C       18.7209712   16.7708488   18.7774004
| 20>     C       17.9575952   15.7602096   19.6284969
| 21>     C       18.4046422   14.4287386   19.7095774
| 22>     C       17.6909978   13.4773545   20.4570585
| 23>     C       16.5163302   13.8582653   21.1273425
| 24>     C       16.0635084   15.1815800   21.0437907
| 25>     O       14.9209181   15.5493960   21.6759700
| 26>     C       16.7764426   16.1273914   20.3002742
| 27>     H       14.9353827   13.7801501   17.8227526
| 28>     H       14.5378279   13.8280108   16.0887809
| 29>     H       13.6093068   14.8130950   17.2435580
| 30>     H       15.2614173   16.2427570   15.9975418
| 31>     H       15.6392435   16.1667905   17.7446308
| 32>     H       17.1125245   17.5042466   14.8997439
| 33>     H       17.4939210   19.2084669   15.1151381
| 34>     H       15.9245925   18.5835532   15.6559559
| 35>     H       17.2639677   20.0813157   17.4401031
| 36>     H       19.2532317   18.1452720   20.3596497
| 37>     H       19.7435385   16.3915454   18.6329242
| 38>     H       19.3003955   14.1252385   19.1715557
| 39>     H       18.0450368   12.4489489   20.5054290
| 40>     H       15.9597586   13.1247928   21.7013068
| 41>     H       14.6061094   14.7810701   22.1760991
| 42>     H       16.4027789   17.1444421   20.2467926
| 43> *
| 44> 
| 45>                          ****END OF INPUT****
================================================================================

                       ****************************
                       * Single Point Calculation *
                       ****************************

---------------------------------
CARTESIAN COORDINATES (ANGSTROEM)
---------------------------------
  C     14.608848   14.431893   17.002074
  C     15.600128   15.590673   16.811561
  O     16.876232   15.002451   16.499827
  C     18.079084   15.660737   16.563233
  O     19.105184   15.019311   16.435173
  C     18.078295   16.897747   17.397863
  C     17.582963   18.074013   16.952063
  C     16.994491   18.351886   15.586038
  N     17.648648   19.207759   17.764496
  C     18.269283   19.255382   18.986307
  S     18.343051   20.652831   19.866889
  N     18.820353   18.083836   19.446602
  C     18.720971   16.770849   18.777400
  C     17.957595   15.760210   19.628497
  C     18.404642   14.428739   19.709577
  C     17.690998   13.477355   20.457058
  C     16.516330   13.858265   21.127343
  C     16.063508   15.181580   21.043791
  O     14.920918   15.549396   21.675970
  C     16.776443   16.127391   20.300274
  H     14.935383   13.780150   17.822753
  H     14.537828   13.828011   16.088781
  H     13.609307   14.813095   17.243558
  H     15.261417   16.242757   15.997542
  H     15.639243   16.166791   17.744631
  H     17.112524   17.504247   14.899744
  H     17.493921   19.208467   15.115138
  H     15.924592   18.583553   15.655956
  H     17.263968   20.081316   17.440103
  H     19.253232   18.145272   20.359650
  H     19.743538   16.391545   18.632924
  H     19.300395   14.125239   19.171556
  H     18.045037   12.448949   20.505429
  H     15.959759   13.124793   21.701307
  H     14.606109   14.781070   22.176099
  H     16.402779   17.144442   20.246793

----------------------------
CARTESIAN COORDINATES (A.U.)
----------------------------
  NO LB      ZA    FRAG     MASS         X           Y           Z
   0 C     6.0000    0    12.011   27.606721   27.272326   32.129264
   1 C     6.0000    0    12.011   29.479969   29.462103   31.769247
   2 O     8.0000    0    15.999   31.891456   28.350524   31.180154
   3 C     6.0000    0    12.011   34.164518   29.594504   31.299974
   4 O     8.0000    0    15.999   36.103566   28.382384   31.057976
   5 C     6.0000    0    12.011   34.163027   31.932113   32.877196
   6 C     6.0000    0    12.011   33.226985   34.154935   32.034756
   7 C     6.0000    0    12.011   32.114934   34.680038   29.453344
   8 N     7.0000    0    14.007   33.351112   36.297404   33.570033
   9 C     6.0000    0    12.011   34.523942   36.387400   35.878921
  10 S    16.0000    0    32.060   34.663343   39.028194   37.542980
  11 N     7.0000    0    14.007   35.565313   34.173498   36.748752
  12 C     6.0000    0    12.011   35.377509   31.692311   35.484144
  13 C     6.0000    0    12.011   33.934937   29.782480   37.092484
  14 C     6.0000    0    12.011   34.779733   27.266364   37.245704
  15 C     6.0000    0    12.011   33.431141   25.468509   38.658238
  16 C     6.0000    0    12.011   31.211341   26.188326   39.924891
  17 C     6.0000    0    12.011   30.355632   28.689028   39.767001
  18 O     8.0000    0    15.999   28.196449   29.384100   40.961647
  19 C     6.0000    0    12.011   31.702882   30.476353   38.361959
  20 H     1.0000    0     1.008   28.223783   26.040710   33.680121
  21 H     1.0000    0     1.008   27.472513   26.131153   30.403390
  22 H     1.0000    0     1.008   25.717863   27.992693   32.585602
  23 H     1.0000    0     1.008   28.839899   30.694362   30.230973
  24 H     1.0000    0     1.008   29.553887   30.550807   33.532493
  25 H     1.0000    0     1.008   32.337985   33.078232   28.156435
  26 H     1.0000    0     1.008   33.058720   36.298742   28.563471
  27 H     1.0000    0     1.008   30.093119   35.117826   29.585469
  28 H     1.0000    0     1.008   32.624171   37.948187   32.957019
  29 H     1.0000    0     1.008   36.383335   34.289595   38.474162
  30 H     1.0000    0     1.008   37.309881   30.975532   35.211124
  31 H     1.0000    0     1.008   36.472462   26.692832   36.228990
  32 H     1.0000    0     1.008   34.100178   23.525104   38.749645
  33 H     1.0000    0     1.008   30.159573   24.802264   41.009527
  34 H     1.0000    0     1.008   27.601547   27.932174   41.906754
  35 H     1.0000    0     1.008   30.996760   32.398300   38.260893

--------------------------------
INTERNAL COORDINATES (ANGSTROEM)
--------------------------------
 C      0   0   0     0.000000000000     0.00000000     0.00000000
 C      1   0   0     1.536783071197     0.00000000     0.00000000
 O      2   1   0     1.439314411415   106.89288645     0.00000000
 C      3   2   1     1.372667264589   124.81490503   195.98027236
 O      4   3   2     1.216843442791   118.76875782   171.13837519
 C      4   3   2     1.492246638171   115.01863861    19.37342497
 C      6   4   3     1.351922480542   122.48036930   281.02206158
 C      7   6   4     1.513121148087   126.86784475   358.65205479
 N      7   6   4     1.396331814336   119.82501227   182.02287641
 C      9   7   6     1.371232439738   124.60551606     4.46861065
 S     10   9   7     1.653398784091   121.60775212   178.06457265
 N     10   9   7     1.374070356276   116.76877617   357.71424322
 C     12  10   9     1.477038891552   125.39120702   355.77464103
 C     13  12  10     1.525942253909   111.69737978   243.60112104
 C     14  13  12     1.406854680317   119.99968148   220.81883615
 C     15  14  13     1.404687876448   120.67920489   181.87876261
 C     16  15  14     1.405068556584   119.66821775     0.19790073
 C     17  16  15     1.401138922832   119.85319767     0.13343415
 O     18  17  16     1.356632548208   120.03101882   179.18726211
 C     18  17  16     1.398445981678   120.37847148   359.79302188
 H      1   2   3     1.097682624111   110.39577242    60.19851593
 H      1   2   3     1.097188691027   110.70598232   300.22576174
 H      1   2   3     1.096681813328   110.67706038   180.00805032
 H      2   1   3     1.096615371172   109.94766753   120.40565298
 H      2   1   3     1.097296607572   108.26844139   239.71458210
 H      8   7   6     1.097006970579   112.39848014   352.92449759
 H      8   7   6     1.097683165955   110.71049750   233.83984931
 H      8   7   6     1.096923428951   111.13536931   114.02183123
 H      9   7   6     1.008122590081   119.89377470   181.15473522
 H     12  10   9     1.012331135162   114.95339943   181.29565498
 H     13  12  10     1.100176497044   107.66390633   125.12976444
 H     15  14  13     1.088096335272   119.80680947     0.57067098
 H     16  15  14     1.088715480235   119.88128035   179.58658385
 H     17  16  15     1.084983350959   119.86469504   179.67696682
 H     19  18  17     0.969308167134   107.40132064     4.01480627
 H     20  18  17     1.084839605014   118.99159479   179.69710308

---------------------------
INTERNAL COORDINATES (A.U.)
---------------------------
 C      0   0   0     0.000000000000     0.00000000     0.00000000
 C      1   0   0     2.904099131809     0.00000000     0.00000000
 O      2   1   0     2.719910058181   106.89288645     0.00000000
 C      3   2   1     2.593965203071   124.81490503   195.98027236
 O      4   3   2     2.299500854733   118.76875782   171.13837519
 C      4   3   2     2.819937470408   115.01863861    19.37342497
 C      6   4   3     2.554763242515   122.48036930   281.02206158
 C      7   6   4     2.859384577329   126.86784475   358.65205479
 N      7   6   4     2.638684721177   119.82501227   182.02287641
 C      9   7   6     2.591253777053   124.60551606     4.46861065
 S     10   9   7     3.124470892091   121.60775212   178.06457265
 N     10   9   7     2.596616662101   116.76877617   357.71424322
 C     12  10   9     2.791198994183   125.39120702   355.77464103
 C     13  12  10     2.883612956067   111.69737978   243.60112104
 C     14  13  12     2.658570056025   119.99968148   220.81883615
 C     15  14  13     2.654475390127   120.67920489   181.87876261
 C     16  15  14     2.655194771329   119.66821775     0.19790073
 C     17  16  15     2.647768839730   119.85319767     0.13343415
 O     18  17  16     2.563663980478   120.03101882   179.18726211
 C     18  17  16     2.642679918454   120.37847148   359.79302188
 H      1   2   3     2.074319541534   110.39577242    60.19851593
 H      1   2   3     2.073386143276   110.70598232   300.22576174
 H      1   2   3     2.072428283242   110.67706038   180.00805032
 H      2   1   3     2.072302725764   109.94766753   120.40565298
 H      2   1   3     2.073590075992   108.26844139   239.71458210
 H      8   7   6     2.073042741396   112.39848014   352.92449759
 H      8   7   6     2.074320565471   110.71049750   233.83984931
 H      8   7   6     2.072884870599   111.13536931   114.02183123
 H      9   7   6     1.905075604673   119.89377470   181.15473522
 H     12  10   9     1.913028602298   114.95339943   181.29565498
 H     13  12  10     2.079032278389   107.66390633   125.12976444
 H     15  14  13     2.056204080987   119.80680947     0.57067098
 H     16  15  14     2.057374095404   119.88128035   179.58658385
 H     17  16  15     2.050321393176   119.86469504   179.67696682
 H     19  18  17     1.831726975257   107.40132064     4.01480627
 H     20  18  17     2.050049752708   118.99159479   179.69710308

---------------------
BASIS SET INFORMATION
---------------------
There are 5 groups of distinct atoms

 Group   1 Type C   : 18s5p2d1f contracted to 4s3p2d1f pattern {8811/311/11/1}
 Group   2 Type O   : 18s5p2d1f contracted to 4s3p2d1f pattern {8811/311/11/1}
 Group   3 Type N   : 18s5p2d1f contracted to 4s3p2d1f pattern {8811/311/11/1}
 Group   4 Type S   : 41s16p2d1f contracted to 5s4p2d1f pattern {13131311/7711/11/1}
 Group   5 Type H   : 5s2p1d contracted to 3s2p1d pattern {311/11/1}

Atom   0C    basis set group =>   1
Atom   1C    basis set group =>   1
Atom   2O    basis set group =>   2
Atom   3C    basis set group =>   1
Atom   4O    basis set group =>   2
Atom   5C    basis set group =>   1
Atom   6C    basis set group =>   1
Atom   7C    basis set group =>   1
Atom   8N    basis set group =>   3
Atom   9C    basis set group =>   1
Atom  10S    basis set group =>   4
Atom  11N    basis set group =>   3
Atom  12C    basis set group =>   1
Atom  13C    basis set group =>   1
Atom  14C    basis set group =>   1
Atom  15C    basis set group =>   1
Atom  16C    basis set group =>   1
Atom  17C    basis set group =>   1
Atom  18O    basis set group =>   2
Atom  19C    basis set group =>   1
Atom  20H    basis set group =>   5
Atom  21H    basis set group =>   5
Atom  22H    basis set group =>   5
Atom  23H    basis set group =>   5
Atom  24H    basis set group =>   5
Atom  25H    basis set group =>   5
Atom  26H    basis set group =>   5
Atom  27H    basis set group =>   5
Atom  28H    basis set group =>   5
Atom  29H    basis set group =>   5
Atom  30H    basis set group =>   5
Atom  31H    basis set group =>   5
Atom  32H    basis set group =>   5
Atom  33H    basis set group =>   5
Atom  34H    basis set group =>   5
Atom  35H    basis set group =>   5
---------------------------------
AUXILIARY/C BASIS SET INFORMATION
---------------------------------
There are 5 groups of distinct atoms

 Group   1 Type C   : 8s6p5d3f1g contracted to 8s6p5d3f1g pattern {11111111/111111/11111/111/1}
 Group   2 Type O   : 8s6p5d3f1g contracted to 8s6p5d3f1g pattern {11111111/111111/11111/111/1}
 Group   3 Type N   : 8s6p5d3f1g contracted to 8s6p5d3f1g pattern {11111111/111111/11111/111/1}
 Group   4 Type S   : 10s8p7d5f2g contracted to 10s8p7d5f2g pattern {1111111111/11111111/1111111/11111/11}
 Group   5 Type H   : 4s3p2d1f contracted to 4s3p2d1f pattern {1111/111/11/1}

Atom   0C    basis set group =>   1
Atom   1C    basis set group =>   1
Atom   2O    basis set group =>   2
Atom   3C    basis set group =>   1
Atom   4O    basis set group =>   2
Atom   5C    basis set group =>   1
Atom   6C    basis set group =>   1
Atom   7C    basis set group =>   1
Atom   8N    basis set group =>   3
Atom   9C    basis set group =>   1
Atom  10S    basis set group =>   4
Atom  11N    basis set group =>   3
Atom  12C    basis set group =>   1
Atom  13C    basis set group =>   1
Atom  14C    basis set group =>   1
Atom  15C    basis set group =>   1
Atom  16C    basis set group =>   1
Atom  17C    basis set group =>   1
Atom  18O    basis set group =>   2
Atom  19C    basis set group =>   1
Atom  20H    basis set group =>   5
Atom  21H    basis set group =>   5
Atom  22H    basis set group =>   5
Atom  23H    basis set group =>   5
Atom  24H    basis set group =>   5
Atom  25H    basis set group =>   5
Atom  26H    basis set group =>   5
Atom  27H    basis set group =>   5
Atom  28H    basis set group =>   5
Atom  29H    basis set group =>   5
Atom  30H    basis set group =>   5
Atom  31H    basis set group =>   5
Atom  32H    basis set group =>   5
Atom  33H    basis set group =>   5
Atom  34H    basis set group =>   5
Atom  35H    basis set group =>   5
------------------------------------------------------------------------------
                           ORCA GTO INTEGRAL CALCULATION
------------------------------------------------------------------------------
------------------------------------------------------------------------------
                   ___                                                        
                  /   \      - P O W E R E D   B Y -                         
                 /     \                                                     
                 |  |  |   _    _      __       _____    __    __             
                 |  |  |  | |  | |    /  \     |  _  \  |  |  /  |          
                  \  \/   | |  | |   /    \    | | | |  |  | /  /          
                 / \  \   | |__| |  /  /\  \   | |_| |  |  |/  /          
                |  |  |   |  __  | /  /__\  \  |    /   |      \           
                |  |  |   | |  | | |   __   |  |    \   |  |\   \          
                \     /   | |  | | |  |  |  |  | |\  \  |  | \   \       
                 \___/    |_|  |_| |__|  |__|  |_| \__\ |__|  \__/        
                                                                              
                      - O R C A' S   B I G   F R I E N D -                    
                                      &                                       
                       - I N T E G R A L  F E E D E R -                       
                                                                              
 v1 FN, 2020, v2 2021                                                         
------------------------------------------------------------------------------


Reading SHARK input file CONFS/Conf49.orca.SHARKINP.tmp ... ok
----------------------
SHARK INTEGRAL PACKAGE
----------------------

Number of atoms                             ...     36
Number of basis functions                   ...    828
Number of shells                            ...    298
Maximum angular momentum                    ...      3
Integral batch strategy                     ... SHARK/LIBINT Hybrid
RI-J (if used) integral strategy            ... SPLIT-RIJ (Revised 2003 algorithm where possible)
Printlevel                                  ...      1
Contraction scheme used                     ... SEGMENTED contraction
Coulomb Range Separation                    ... NOT USED
Exchange Range Separation                   ... NOT USED
Finite Nucleus Model                        ... NOT USED
Auxiliary Coulomb fitting basis             ... NOT available
Auxiliary J/K fitting basis                 ... NOT available
Auxiliary Correlation fitting basis         ... AVAILABLE
   # of basis functions in Aux-C            ...   2141
   # of shells in Aux-C                     ...    629
   Maximum angular momentum in Aux-C        ...      4
Auxiliary 'external' fitting basis          ... NOT available
Integral threshold                          ...     2.500000e-11
Primitive cut-off                           ...     2.500000e-12
Primitive pair pre-selection threshold      ...     2.500000e-12

Calculating pre-screening integrals         ... done (  0.6 sec) Dimension = 298
Organizing shell pair data                  ... done (  1.0 sec)
Shell pair information
Total number of shell pairs                 ...     44551
Shell pairs after pre-screening             ...     34633
Total number of primitive shell pairs       ...    234348
Primitive shell pairs kept                  ...     98694
          la=0 lb=0:   6897 shell pairs
          la=1 lb=0:   9602 shell pairs
          la=1 lb=1:   3395 shell pairs
          la=2 lb=0:   5531 shell pairs
          la=2 lb=1:   3807 shell pairs
          la=2 lb=2:   1087 shell pairs
          la=3 lb=0:   2005 shell pairs
          la=3 lb=1:   1370 shell pairs
          la=3 lb=2:    785 shell pairs
          la=3 lb=3:    154 shell pairs

Calculating one electron integrals          ... done (  0.4 sec)
Calculating RI/C V-Matrix + Cholesky decomp.... done (  0.8 sec)
Calculating Nuclear repulsion               ... done (  0.0 sec) ENN=   1731.613105006229 Eh

SHARK setup successfully completed in   3.7 seconds

Maximum memory used throughout the entire GTOINT-calculation: 516.2 MB
-------------------------------------------------------------------------------
                                 ORCA SCF
-------------------------------------------------------------------------------

------------
SCF SETTINGS
------------
Hamiltonian:
 Ab initio Hamiltonian  Method          .... Hartree-Fock(GTOs)


General Settings:
 Integral files         IntName         .... CONFS/Conf49.orca
 Hartree-Fock type      HFTyp           .... RHF
 Total Charge           Charge          ....    0
 Multiplicity           Mult            ....    1
 Number of Electrons    NEL             ....  154
 Basis Dimension        Dim             ....  828
 Nuclear Repulsion      ENuc            ....   1731.6131050062 Eh

Convergence Acceleration:
 DIIS                   CNVDIIS         .... on
   Start iteration      DIISMaxIt       ....    12
   Startup error        DIISStart       ....  0.200000
   # of expansion vecs  DIISMaxEq       ....     5
   Bias factor          DIISBfac        ....   1.050
   Max. coefficient     DIISMaxC        ....  10.000
 Trust-Rad. Augm. Hess. CNVTRAH         .... auto
   Auto Start mean grad. ratio tolernc. ....  1.125000
   Auto Start start iteration           ....    20
   Auto Start num. interpolation iter.  ....    10
   Max. Number of Micro iterations      ....    16
   Max. Number of Macro iterations      .... Maxiter - #DIIS iter
   Number of Davidson start vectors     ....     2
   Converg. threshold I  (grad. norm)   ....   1.000e-05
   Converg. threshold II (energy diff.) ....   1.000e-08
   Grad. Scal. Fac. for Micro threshold ....   0.100
   Minimum threshold for Micro iter.    ....   0.010
   NR start threshold (gradient norm)   ....   0.001
   Initial trust radius                 ....   0.400
   Minimum AH scaling param. (alpha)    ....   1.000
   Maximum AH scaling param. (alpha)    .... 1000.000
   Orbital update algorithm             .... Taylor
   White noise on init. David. guess    .... on
   Maximum white noise                  ....   0.010
   Quad. conv. algorithm                .... NR
 SOSCF                  CNVSOSCF        .... on
   Start iteration      SOSCFMaxIt      ....   150
   Startup grad/error   SOSCFStart      ....  0.003300
 Level Shifting         CNVShift        .... on
   Level shift para.    LevelShift      ....    0.2500
   Turn off err/grad.   ShiftErr        ....    0.0010
 Zerner damping         CNVZerner       .... off
 Static damping         CNVDamp         .... on
   Fraction old density DampFac         ....    0.7000
   Max. Damping (<1)    DampMax         ....    0.9800
   Min. Damping (>=0)   DampMin         ....    0.0000
   Turn off err/grad.   DampErr         ....    0.1000
 Fernandez-Rico         CNVRico         .... off

SCF Procedure:
 Maximum # iterations   MaxIter         ....   125
 SCF integral mode      SCFMode         .... Direct
   Integral package                     .... SHARK and LIBINT hybrid scheme
 Reset frequency        DirectResetFreq ....    20
 Integral Threshold     Thresh          ....  2.500e-11 Eh
 Primitive CutOff       TCut            ....  2.500e-12 Eh

Convergence Tolerance:
 Convergence Check Mode ConvCheckMode   .... Total+1el-Energy
 Convergence forced     ConvForced      .... 1
 Energy Change          TolE            ....  1.000e-08 Eh
 1-El. energy change                    ....  1.000e-05 Eh
 Orbital Gradient       TolG            ....  1.000e-05
 Orbital Rotation angle TolX            ....  1.000e-05
 DIIS Error             TolErr          ....  5.000e-07


Diagonalization of the overlap matrix:
Smallest eigenvalue                        ... 3.263e-05
Time for diagonalization                   ...    0.139 sec
Threshold for overlap eigenvalues          ... 1.000e-08
Number of eigenvalues below threshold      ... 0
Time for construction of square roots      ...    0.057 sec
Total time needed                          ...    0.198 sec

Time for model grid setup =    1.482 sec

------------------------------
INITIAL GUESS: MODEL POTENTIAL
------------------------------
Loading Hartree-Fock densities                     ... done
Calculating cut-offs                               ... done
Initializing the effective Hamiltonian             ... done
Setting up the integral package (SHARK)            ... done
Starting the Coulomb interaction                   ... done (   4.8 sec)
Reading the grid                                   ... done
Mapping shells                                     ... done
Starting the XC term evaluation                    ... done (   1.6 sec)
Transforming the Hamiltonian                       ... done (   0.1 sec)
Diagonalizing the Hamiltonian                      ... done (   0.1 sec)
Back transforming the eigenvectors                 ... done (   0.0 sec)
Now organizing SCF variables                       ... done
                      ------------------
                      INITIAL GUESS DONE (   8.1 sec)
                      ------------------
--------------
SCF ITERATIONS
--------------
ITER       Energy         Delta-E        Max-DP      RMS-DP      [F,P]     Damp
               ***  Starting incremental Fock matrix formation  ***
  0  -1269.9916319167   0.000000000000 0.04927291  0.00044806  0.3185543 0.7000
  1  -1270.2598840662  -0.268252149579 0.03607033  0.00036371  0.1894189 0.7000
                               ***Turning on DIIS***
  2  -1270.4267746501  -0.166890583847 0.02584492  0.00024227  0.1098608 0.7000
  3  -1272.5457833541  -2.119008704037 0.06321502  0.00051755  0.0830247 0.0000
  4  -1270.7392720139   1.806511340174 0.01293455  0.00010299  0.0077583 0.0000
  5  -1270.7951272328  -0.055855218857 0.00546435  0.00005373  0.0039977 0.0000
  6  -1270.7740847055   0.021042527311 0.00265897  0.00002746  0.0036472 0.0000
                      *** Initiating the SOSCF procedure ***
                           *** Shutting down DIIS ***
                      *** Re-Reading the Fockian *** 
                      *** Removing any level shift *** 
ITER      Energy       Delta-E        Grad      Rot      Max-DP    RMS-DP
  7  -1270.78907967  -0.0149949673  0.000913  0.000913  0.001347  0.000016
               *** Restarting incremental Fock matrix formation ***
  8  -1270.78935913  -0.0002794524  0.000486  0.001198  0.000675  0.000009
  9  -1270.78937314  -0.0000140186  0.000225  0.001419  0.001128  0.000012
 10  -1270.78937906  -0.0000059153  0.000069  0.000094  0.000169  0.000002
 11  -1270.78937965  -0.0000005863  0.000036  0.000057  0.000063  0.000001
 12  -1270.78937975  -0.0000001042  0.000007  0.000024  0.000032  0.000000
 13  -1270.78937976  -0.0000000108  0.000006  0.000027  0.000015  0.000000
                  ***Gradient check signals convergence***
              ***Rediagonalizing the Fockian in SOSCF/NRSCF***

               *****************************************************
               *                     SUCCESS                       *
               *           SCF CONVERGED AFTER  14 CYCLES          *
               *****************************************************


----------------
TOTAL SCF ENERGY
----------------

Total Energy       :        -1270.78937977 Eh          -34579.93703 eV

Components:
Nuclear Repulsion  :         1731.61310501 Eh           47119.58810 eV
Electronic Energy  :        -3002.40248478 Eh          -81699.52513 eV
One Electron Energy:        -5183.88130880 Eh         -141060.58179 eV
Two Electron Energy:         2181.47882402 Eh           59361.05666 eV

Virial components:
Potential Energy   :        -2539.79795918 Eh          -69111.41603 eV
Kinetic Energy     :         1269.00857941 Eh           34531.47899 eV
Virial Ratio       :            2.00140330


---------------
SCF CONVERGENCE
---------------

  Last Energy change         ...   -8.4206e-09  Tolerance :   1.0000e-08
  Last MAX-Density change    ...    3.2503e-06  Tolerance :   1.0000e-07
  Last RMS-Density change    ...    4.3447e-08  Tolerance :   5.0000e-09
  Last Orbital Gradient      ...    1.6165e-06  Tolerance :   1.0000e-05
  Last Orbital Rotation      ...    4.5907e-06  Tolerance :   1.0000e-05

             **** THE GBW FILE WAS UPDATED (CONFS/Conf49.orca.gbw) ****
             **** DENSITY CONFS/Conf49.orca.scfp WAS UPDATED ****
             **** ENERGY FILE WAS UPDATED (CONFS/Conf49.orca.en.tmp) ****
             **** THE GBW FILE WAS UPDATED (CONFS/Conf49.orca.gbw) ****
             **** DENSITY CONFS/Conf49.orca.scfp WAS UPDATED ****
----------------
ORBITAL ENERGIES
----------------

  NO   OCC          E(Eh)            E(eV) 
   0   2.0000     -91.889617     -2500.4436 
   1   2.0000     -20.602649      -560.6266 
   2   2.0000     -20.599941      -560.5529 
   3   2.0000     -20.551196      -559.2265 
   4   2.0000     -15.625886      -425.2020 
   5   2.0000     -15.611812      -424.8190 
   6   2.0000     -11.397197      -310.1335 
   7   2.0000     -11.386615      -309.8455 
   8   2.0000     -11.326857      -308.2195 
   9   2.0000     -11.316746      -307.9443 
  10   2.0000     -11.315976      -307.9234 
  11   2.0000     -11.302934      -307.5685 
  12   2.0000     -11.270775      -306.6934 
  13   2.0000     -11.264663      -306.5271 
  14   2.0000     -11.263717      -306.5013 
  15   2.0000     -11.256522      -306.3055 
  16   2.0000     -11.245833      -306.0147 
  17   2.0000     -11.242261      -305.9175 
  18   2.0000     -11.238946      -305.8273 
  19   2.0000     -11.231296      -305.6191 
  20   2.0000      -8.894743      -242.0383 
  21   2.0000      -6.576334      -178.9512 
  22   2.0000      -6.574305      -178.8959 
  23   2.0000      -6.573733      -178.8804 
  24   2.0000      -1.450139       -39.4603 
  25   2.0000      -1.419753       -38.6335 
  26   2.0000      -1.360367       -37.0175 
  27   2.0000      -1.339580       -36.4518 
  28   2.0000      -1.239690       -33.7337 
  29   2.0000      -1.161307       -31.6008 
  30   2.0000      -1.125691       -30.6316 
  31   2.0000      -1.049288       -28.5526 
  32   2.0000      -1.040088       -28.3022 
  33   2.0000      -1.018895       -27.7255 
  34   2.0000      -1.005278       -27.3550 
  35   2.0000      -0.989272       -26.9195 
  36   2.0000      -0.928044       -25.2534 
  37   2.0000      -0.880771       -23.9670 
  38   2.0000      -0.855556       -23.2809 
  39   2.0000      -0.841667       -22.9029 
  40   2.0000      -0.837051       -22.7773 
  41   2.0000      -0.836687       -22.7674 
  42   2.0000      -0.757206       -20.6046 
  43   2.0000      -0.739754       -20.1297 
  44   2.0000      -0.731529       -19.9059 
  45   2.0000      -0.698179       -18.9984 
  46   2.0000      -0.688756       -18.7420 
  47   2.0000      -0.682008       -18.5584 
  48   2.0000      -0.677426       -18.4337 
  49   2.0000      -0.660651       -17.9772 
  50   2.0000      -0.658750       -17.9255 
  51   2.0000      -0.650089       -17.6898 
  52   2.0000      -0.639902       -17.4126 
  53   2.0000      -0.612264       -16.6605 
  54   2.0000      -0.608222       -16.5506 
  55   2.0000      -0.603732       -16.4284 
  56   2.0000      -0.597608       -16.2617 
  57   2.0000      -0.584416       -15.9028 
  58   2.0000      -0.577667       -15.7191 
  59   2.0000      -0.569953       -15.5092 
  60   2.0000      -0.562952       -15.3187 
  61   2.0000      -0.556520       -15.1437 
  62   2.0000      -0.551967       -15.0198 
  63   2.0000      -0.527885       -14.3645 
  64   2.0000      -0.518173       -14.1002 
  65   2.0000      -0.515455       -14.0262 
  66   2.0000      -0.506013       -13.7693 
  67   2.0000      -0.502286       -13.6679 
  68   2.0000      -0.488055       -13.2806 
  69   2.0000      -0.470301       -12.7975 
  70   2.0000      -0.453378       -12.3370 
  71   2.0000      -0.451193       -12.2776 
  72   2.0000      -0.356494        -9.7007 
  73   2.0000      -0.351663        -9.5692 
  74   2.0000      -0.329367        -8.9625 
  75   2.0000      -0.324281        -8.8241 
  76   2.0000      -0.318080        -8.6554 
  77   0.0000       0.088168         2.3992 
  78   0.0000       0.104129         2.8335 
  79   0.0000       0.110186         2.9983 
  80   0.0000       0.127387         3.4664 
  81   0.0000       0.132071         3.5938 
  82   0.0000       0.143682         3.9098 
  83   0.0000       0.144569         3.9339 
  84   0.0000       0.150058         4.0833 
  85   0.0000       0.158628         4.3165 
  86   0.0000       0.167370         4.5544 
  87   0.0000       0.174041         4.7359 
  88   0.0000       0.183254         4.9866 
  89   0.0000       0.191671         5.2156 
  90   0.0000       0.195858         5.3296 
  91   0.0000       0.205403         5.5893 
  92   0.0000       0.212665         5.7869 
  93   0.0000       0.216899         5.9021 
  94   0.0000       0.221428         6.0254 
  95   0.0000       0.231728         6.3057 
  96   0.0000       0.233959         6.3664 
  97   0.0000       0.244650         6.6573 
  98   0.0000       0.254782         6.9330 
  99   0.0000       0.272668         7.4197 
 100   0.0000       0.284816         7.7502 
 101   0.0000       0.300524         8.1777 
 102   0.0000       0.305910         8.3242 
 103   0.0000       0.314561         8.5597 
 104   0.0000       0.325005         8.8438 
 105   0.0000       0.335019         9.1163 
 106   0.0000       0.343318         9.3422 
 107   0.0000       0.346905         9.4398 
 108   0.0000       0.348688         9.4883 
 109   0.0000       0.355244         9.6667 
 110   0.0000       0.361642         9.8408 
 111   0.0000       0.373723        10.1695 
 112   0.0000       0.377653        10.2765 
 113   0.0000       0.389058        10.5868 
 114   0.0000       0.398432        10.8419 
 115   0.0000       0.405147        11.0246 
 116   0.0000       0.417866        11.3707 
 117   0.0000       0.423245        11.5171 
 118   0.0000       0.431339        11.7373 
 119   0.0000       0.440014        11.9734 
 120   0.0000       0.445508        12.1229 
 121   0.0000       0.447825        12.1859 
 122   0.0000       0.454373        12.3641 
 123   0.0000       0.456562        12.4237 
 124   0.0000       0.468496        12.7484 
 125   0.0000       0.475374        12.9356 
 126   0.0000       0.484718        13.1898 
 127   0.0000       0.485700        13.2166 
 128   0.0000       0.487722        13.2716 
 129   0.0000       0.499213        13.5843 
 130   0.0000       0.502990        13.6871 
 131   0.0000       0.507673        13.8145 
 132   0.0000       0.513662        13.9775 
 133   0.0000       0.520008        14.1501 
 134   0.0000       0.522584        14.2202 
 135   0.0000       0.528110        14.3706 
 136   0.0000       0.534820        14.5532 
 137   0.0000       0.537222        14.6186 
 138   0.0000       0.548320        14.9206 
 139   0.0000       0.552561        15.0360 
 140   0.0000       0.554975        15.1016 
 141   0.0000       0.558366        15.1939 
 142   0.0000       0.560770        15.2593 
 143   0.0000       0.568652        15.4738 
 144   0.0000       0.573788        15.6136 
 145   0.0000       0.579314        15.7639 
 146   0.0000       0.583293        15.8722 
 147   0.0000       0.589763        16.0483 
 148   0.0000       0.592614        16.1259 
 149   0.0000       0.596533        16.2325 
 150   0.0000       0.600596        16.3431 
 151   0.0000       0.601361        16.3639 
 152   0.0000       0.606728        16.5099 
 153   0.0000       0.610450        16.6112 
 154   0.0000       0.619110        16.8468 
 155   0.0000       0.625306        17.0154 
 156   0.0000       0.627624        17.0785 
 157   0.0000       0.635962        17.3054 
 158   0.0000       0.638389        17.3714 
 159   0.0000       0.644272        17.5315 
 160   0.0000       0.653842        17.7919 
 161   0.0000       0.656589        17.8667 
 162   0.0000       0.658508        17.9189 
 163   0.0000       0.666817        18.1450 
 164   0.0000       0.671561        18.2741 
 165   0.0000       0.682193        18.5634 
 166   0.0000       0.686113        18.6701 
 167   0.0000       0.689012        18.7490 
 168   0.0000       0.697614        18.9830 
 169   0.0000       0.698695        19.0125 
 170   0.0000       0.704307        19.1652 
 171   0.0000       0.709915        19.3178 
 172   0.0000       0.722623        19.6636 
 173   0.0000       0.723841        19.6967 
 174   0.0000       0.730307        19.8727 
 175   0.0000       0.736768        20.0485 
 176   0.0000       0.739329        20.1182 
 177   0.0000       0.744921        20.2703 
 178   0.0000       0.752901        20.4875 
 179   0.0000       0.760058        20.6822 
 180   0.0000       0.769889        20.9497 
 181   0.0000       0.774836        21.0844 
 182   0.0000       0.785979        21.3876 
 183   0.0000       0.791192        21.5294 
 184   0.0000       0.804176        21.8827 
 185   0.0000       0.810902        22.0658 
 186   0.0000       0.818591        22.2750 
 187   0.0000       0.830465        22.5981 
 188   0.0000       0.833008        22.6673 
 189   0.0000       0.841401        22.8957 
 190   0.0000       0.847399        23.0589 
 191   0.0000       0.853698        23.2303 
 192   0.0000       0.864981        23.5373 
 193   0.0000       0.866820        23.5874 
 194   0.0000       0.871617        23.7179 
 195   0.0000       0.872850        23.7515 
 196   0.0000       0.888874        24.1875 
 197   0.0000       0.891376        24.2556 
 198   0.0000       0.901686        24.5361 
 199   0.0000       0.906249        24.6603 
 200   0.0000       0.915790        24.9199 
 201   0.0000       0.918545        24.9949 
 202   0.0000       0.925572        25.1861 
 203   0.0000       0.938449        25.5365 
 204   0.0000       0.946173        25.7467 
 205   0.0000       0.956293        26.0221 
 206   0.0000       0.961952        26.1760 
 207   0.0000       0.966644        26.3037 
 208   0.0000       0.970781        26.4163 
 209   0.0000       0.980449        26.6794 
 210   0.0000       0.990690        26.9580 
 211   0.0000       0.994360        27.0579 
 212   0.0000       0.996450        27.1148 
 213   0.0000       1.005170        27.3521 
 214   0.0000       1.011104        27.5135 
 215   0.0000       1.017780        27.6952 
 216   0.0000       1.026772        27.9399 
 217   0.0000       1.027848        27.9692 
 218   0.0000       1.035073        28.1658 
 219   0.0000       1.041778        28.3482 
 220   0.0000       1.049352        28.5543 
 221   0.0000       1.057653        28.7802 
 222   0.0000       1.062472        28.9113 
 223   0.0000       1.076035        29.2804 
 224   0.0000       1.077655        29.3245 
 225   0.0000       1.084413        29.5084 
 226   0.0000       1.086361        29.5614 
 227   0.0000       1.095801        29.8183 
 228   0.0000       1.105857        30.0919 
 229   0.0000       1.110739        30.2248 
 230   0.0000       1.111798        30.2536 
 231   0.0000       1.125469        30.6256 
 232   0.0000       1.129409        30.7328 
 233   0.0000       1.148852        31.2619 
 234   0.0000       1.158200        31.5162 
 235   0.0000       1.164699        31.6931 
 236   0.0000       1.165458        31.7137 
 237   0.0000       1.171787        31.8859 
 238   0.0000       1.175695        31.9923 
 239   0.0000       1.188445        32.3392 
 240   0.0000       1.189267        32.3616 
 241   0.0000       1.199111        32.6295 
 242   0.0000       1.208995        32.8984 
 243   0.0000       1.214411        33.0458 
 244   0.0000       1.218039        33.1445 
 245   0.0000       1.227710        33.4077 
 246   0.0000       1.231839        33.5200 
 247   0.0000       1.241570        33.7848 
 248   0.0000       1.254000        34.1231 
 249   0.0000       1.259248        34.2659 
 250   0.0000       1.268126        34.5075 
 251   0.0000       1.275409        34.7056 
 252   0.0000       1.281903        34.8823 
 253   0.0000       1.293762        35.2051 
 254   0.0000       1.303162        35.4609 
 255   0.0000       1.310196        35.6522 
 256   0.0000       1.319139        35.8956 
 257   0.0000       1.320940        35.9446 
 258   0.0000       1.327654        36.1273 
 259   0.0000       1.333866        36.2963 
 260   0.0000       1.346216        36.6324 
 261   0.0000       1.351187        36.7677 
 262   0.0000       1.356252        36.9055 
 263   0.0000       1.367655        37.2158 
 264   0.0000       1.373077        37.3633 
 265   0.0000       1.385117        37.6910 
 266   0.0000       1.399692        38.0876 
 267   0.0000       1.405263        38.2391 
 268   0.0000       1.407548        38.3013 
 269   0.0000       1.425302        38.7844 
 270   0.0000       1.431814        38.9616 
 271   0.0000       1.443021        39.2666 
 272   0.0000       1.443890        39.2902 
 273   0.0000       1.453976        39.5647 
 274   0.0000       1.464784        39.8588 
 275   0.0000       1.465970        39.8911 
 276   0.0000       1.470902        40.0253 
 277   0.0000       1.480353        40.2825 
 278   0.0000       1.490038        40.5460 
 279   0.0000       1.493365        40.6365 
 280   0.0000       1.504119        40.9292 
 281   0.0000       1.506695        40.9993 
 282   0.0000       1.512711        41.1630 
 283   0.0000       1.516640        41.2699 
 284   0.0000       1.527297        41.5599 
 285   0.0000       1.536273        41.8041 
 286   0.0000       1.538588        41.8671 
 287   0.0000       1.542626        41.9770 
 288   0.0000       1.548846        42.1463 
 289   0.0000       1.557220        42.3741 
 290   0.0000       1.564040        42.5597 
 291   0.0000       1.571136        42.7528 
 292   0.0000       1.577354        42.9220 
 293   0.0000       1.587752        43.2049 
 294   0.0000       1.598515        43.4978 
 295   0.0000       1.600068        43.5401 
 296   0.0000       1.613728        43.9118 
 297   0.0000       1.617024        44.0015 
 298   0.0000       1.626180        44.2506 
 299   0.0000       1.628587        44.3161 
 300   0.0000       1.643903        44.7329 
 301   0.0000       1.646009        44.7902 
 302   0.0000       1.647783        44.8385 
 303   0.0000       1.659021        45.1442 
 304   0.0000       1.673870        45.5483 
 305   0.0000       1.681329        45.7513 
 306   0.0000       1.689223        45.9661 
 307   0.0000       1.696687        46.1692 
 308   0.0000       1.705361        46.4052 
 309   0.0000       1.712374        46.5961 
 310   0.0000       1.722150        46.8621 
 311   0.0000       1.735331        47.2208 
 312   0.0000       1.737993        47.2932 
 313   0.0000       1.747137        47.5420 
 314   0.0000       1.750723        47.6396 
 315   0.0000       1.759655        47.8826 
 316   0.0000       1.777771        48.3756 
 317   0.0000       1.788851        48.6771 
 318   0.0000       1.800946        49.0062 
 319   0.0000       1.815030        49.3895 
 320   0.0000       1.828098        49.7451 
 321   0.0000       1.830950        49.8227 
 322   0.0000       1.837086        49.9897 
 323   0.0000       1.849696        50.3328 
 324   0.0000       1.861168        50.6450 
 325   0.0000       1.874563        51.0095 
 326   0.0000       1.880756        51.1780 
 327   0.0000       1.898140        51.6510 
 328   0.0000       1.909575        51.9622 
 329   0.0000       1.910208        51.9794 
 330   0.0000       1.932705        52.5916 
 331   0.0000       1.939684        52.7815 
 332   0.0000       1.942500        52.8581 
 333   0.0000       1.967769        53.5457 
 334   0.0000       1.983977        53.9868 
 335   0.0000       1.994046        54.2607 
 336   0.0000       1.999999        54.4227 
 337   0.0000       2.008519        54.6546 
 338   0.0000       2.014859        54.8271 
 339   0.0000       2.018748        54.9329 
 340   0.0000       2.031985        55.2931 
 341   0.0000       2.045235        55.6537 
 342   0.0000       2.064875        56.1881 
 343   0.0000       2.078672        56.5636 
 344   0.0000       2.091374        56.9092 
 345   0.0000       2.100016        57.1443 
 346   0.0000       2.123251        57.7766 
 347   0.0000       2.142416        58.2981 
 348   0.0000       2.160467        58.7893 
 349   0.0000       2.172575        59.1188 
 350   0.0000       2.181270        59.3554 
 351   0.0000       2.197194        59.7887 
 352   0.0000       2.210470        60.1500 
 353   0.0000       2.227613        60.6164 
 354   0.0000       2.236395        60.8554 
 355   0.0000       2.273719        61.8710 
 356   0.0000       2.286485        62.2184 
 357   0.0000       2.290939        62.3396 
 358   0.0000       2.298172        62.5364 
 359   0.0000       2.308333        62.8129 
 360   0.0000       2.321864        63.1811 
 361   0.0000       2.336420        63.5772 
 362   0.0000       2.348359        63.9021 
 363   0.0000       2.361750        64.2665 
 364   0.0000       2.370225        64.4971 
 365   0.0000       2.373824        64.5950 
 366   0.0000       2.389564        65.0233 
 367   0.0000       2.394992        65.1711 
 368   0.0000       2.408036        65.5260 
 369   0.0000       2.432728        66.1979 
 370   0.0000       2.437199        66.3196 
 371   0.0000       2.445115        66.5350 
 372   0.0000       2.464751        67.0693 
 373   0.0000       2.476867        67.3990 
 374   0.0000       2.493951        67.8639 
 375   0.0000       2.505362        68.1744 
 376   0.0000       2.512323        68.3638 
 377   0.0000       2.528254        68.7973 
 378   0.0000       2.550475        69.4019 
 379   0.0000       2.561618        69.7052 
 380   0.0000       2.571417        69.9718 
 381   0.0000       2.587307        70.4042 
 382   0.0000       2.589146        70.4542 
 383   0.0000       2.602841        70.8269 
 384   0.0000       2.610379        71.0320 
 385   0.0000       2.620478        71.3068 
 386   0.0000       2.629782        71.5600 
 387   0.0000       2.638499        71.7972 
 388   0.0000       2.654495        72.2325 
 389   0.0000       2.662733        72.4566 
 390   0.0000       2.680480        72.9396 
 391   0.0000       2.687531        73.1314 
 392   0.0000       2.705737        73.6268 
 393   0.0000       2.717116        73.9365 
 394   0.0000       2.728493        74.2461 
 395   0.0000       2.734652        74.4137 
 396   0.0000       2.745479        74.7083 
 397   0.0000       2.755760        74.9880 
 398   0.0000       2.759919        75.1012 
 399   0.0000       2.762814        75.1800 
 400   0.0000       2.772352        75.4395 
 401   0.0000       2.783224        75.7354 
 402   0.0000       2.789323        75.9013 
 403   0.0000       2.803369        76.2836 
 404   0.0000       2.822786        76.8119 
 405   0.0000       2.829155        76.9852 
 406   0.0000       2.846169        77.4482 
 407   0.0000       2.848840        77.5209 
 408   0.0000       2.859625        77.8144 
 409   0.0000       2.869093        78.0720 
 410   0.0000       2.885024        78.5055 
 411   0.0000       2.886316        78.5406 
 412   0.0000       2.894590        78.7658 
 413   0.0000       2.908864        79.1542 
 414   0.0000       2.917120        79.3789 
 415   0.0000       2.926741        79.6407 
 416   0.0000       2.937251        79.9267 
 417   0.0000       2.950047        80.2749 
 418   0.0000       2.961451        80.5852 
 419   0.0000       2.967704        80.7553 
 420   0.0000       2.968313        80.7719 
 421   0.0000       2.981771        81.1381 
 422   0.0000       2.992391        81.4271 
 423   0.0000       2.993394        81.4544 
 424   0.0000       3.014106        82.0180 
 425   0.0000       3.018107        82.1269 
 426   0.0000       3.022587        82.2488 
 427   0.0000       3.031995        82.5048 
 428   0.0000       3.035354        82.5962 
 429   0.0000       3.039725        82.7151 
 430   0.0000       3.047189        82.9182 
 431   0.0000       3.052476        83.0621 
 432   0.0000       3.059559        83.2548 
 433   0.0000       3.070264        83.5461 
 434   0.0000       3.081116        83.8414 
 435   0.0000       3.085830        83.9697 
 436   0.0000       3.089809        84.0780 
 437   0.0000       3.094630        84.2092 
 438   0.0000       3.107052        84.5472 
 439   0.0000       3.113680        84.7275 
 440   0.0000       3.119864        84.8958 
 441   0.0000       3.122622        84.9709 
 442   0.0000       3.132307        85.2344 
 443   0.0000       3.141708        85.4902 
 444   0.0000       3.146201        85.6125 
 445   0.0000       3.152307        85.7786 
 446   0.0000       3.165553        86.1391 
 447   0.0000       3.173768        86.3626 
 448   0.0000       3.178975        86.5043 
 449   0.0000       3.194756        86.9337 
 450   0.0000       3.200955        87.1024 
 451   0.0000       3.206675        87.2581 
 452   0.0000       3.216596        87.5280 
 453   0.0000       3.217214        87.5448 
 454   0.0000       3.233451        87.9867 
 455   0.0000       3.235672        88.0471 
 456   0.0000       3.244358        88.2835 
 457   0.0000       3.246210        88.3339 
 458   0.0000       3.254884        88.5699 
 459   0.0000       3.264173        88.8227 
 460   0.0000       3.278105        89.2018 
 461   0.0000       3.279650        89.2438 
 462   0.0000       3.285014        89.3898 
 463   0.0000       3.289277        89.5058 
 464   0.0000       3.299599        89.7867 
 465   0.0000       3.302851        89.8752 
 466   0.0000       3.309610        90.0591 
 467   0.0000       3.319673        90.3329 
 468   0.0000       3.327909        90.5570 
 469   0.0000       3.332821        90.6907 
 470   0.0000       3.334949        90.7486 
 471   0.0000       3.340247        90.8927 
 472   0.0000       3.347159        91.0808 
 473   0.0000       3.352695        91.2315 
 474   0.0000       3.359285        91.4108 
 475   0.0000       3.360880        91.4542 
 476   0.0000       3.364639        91.5565 
 477   0.0000       3.374157        91.8155 
 478   0.0000       3.381272        92.0091 
 479   0.0000       3.385228        92.1167 
 480   0.0000       3.397827        92.4596 
 481   0.0000       3.399969        92.5179 
 482   0.0000       3.401712        92.5653 
 483   0.0000       3.409150        92.7677 
 484   0.0000       3.413070        92.8744 
 485   0.0000       3.422993        93.1444 
 486   0.0000       3.425319        93.2077 
 487   0.0000       3.434022        93.4445 
 488   0.0000       3.439473        93.5928 
 489   0.0000       3.445467        93.7559 
 490   0.0000       3.450357        93.8890 
 491   0.0000       3.457328        94.0787 
 492   0.0000       3.458199        94.1024 
 493   0.0000       3.464918        94.2852 
 494   0.0000       3.473339        94.5144 
 495   0.0000       3.475907        94.5842 
 496   0.0000       3.488211        94.9190 
 497   0.0000       3.494375        95.0868 
 498   0.0000       3.499453        95.2250 
 499   0.0000       3.512687        95.5851 
 500   0.0000       3.514983        95.6476 
 501   0.0000       3.519190        95.7620 
 502   0.0000       3.527285        95.9823 
 503   0.0000       3.536538        96.2341 
 504   0.0000       3.541339        96.3647 
 505   0.0000       3.544265        96.4444 
 506   0.0000       3.552987        96.6817 
 507   0.0000       3.571968        97.1982 
 508   0.0000       3.578704        97.3815 
 509   0.0000       3.588186        97.6395 
 510   0.0000       3.598315        97.9151 
 511   0.0000       3.605359        98.1068 
 512   0.0000       3.607466        98.1641 
 513   0.0000       3.611999        98.2875 
 514   0.0000       3.620397        98.5160 
 515   0.0000       3.624337        98.6232 
 516   0.0000       3.629472        98.7629 
 517   0.0000       3.631141        98.8084 
 518   0.0000       3.638910        99.0198 
 519   0.0000       3.645902        99.2100 
 520   0.0000       3.650794        99.3431 
 521   0.0000       3.663190        99.6805 
 522   0.0000       3.667074        99.7862 
 523   0.0000       3.668842        99.8343 
 524   0.0000       3.678973       100.1100 
 525   0.0000       3.688528       100.3700 
 526   0.0000       3.694210       100.5246 
 527   0.0000       3.697338       100.6097 
 528   0.0000       3.710328       100.9632 
 529   0.0000       3.714420       101.0745 
 530   0.0000       3.720090       101.2288 
 531   0.0000       3.727600       101.4332 
 532   0.0000       3.734661       101.6253 
 533   0.0000       3.742014       101.8254 
 534   0.0000       3.750105       102.0455 
 535   0.0000       3.754432       102.1633 
 536   0.0000       3.759161       102.2920 
 537   0.0000       3.761030       102.3428 
 538   0.0000       3.765971       102.4773 
 539   0.0000       3.773359       102.6783 
 540   0.0000       3.779534       102.8463 
 541   0.0000       3.785420       103.0065 
 542   0.0000       3.794901       103.2645 
 543   0.0000       3.801057       103.4320 
 544   0.0000       3.809359       103.6579 
 545   0.0000       3.822210       104.0076 
 546   0.0000       3.831671       104.2651 
 547   0.0000       3.832439       104.2860 
 548   0.0000       3.838394       104.4480 
 549   0.0000       3.851634       104.8083 
 550   0.0000       3.852735       104.8382 
 551   0.0000       3.863829       105.1401 
 552   0.0000       3.875737       105.4642 
 553   0.0000       3.876870       105.4950 
 554   0.0000       3.884259       105.6961 
 555   0.0000       3.899803       106.1190 
 556   0.0000       3.903902       106.2306 
 557   0.0000       3.918270       106.6216 
 558   0.0000       3.925283       106.8124 
 559   0.0000       3.927792       106.8806 
 560   0.0000       3.939931       107.2110 
 561   0.0000       3.947677       107.4218 
 562   0.0000       3.955144       107.6250 
 563   0.0000       3.973846       108.1339 
 564   0.0000       3.977177       108.2245 
 565   0.0000       3.988957       108.5450 
 566   0.0000       4.002188       108.9051 
 567   0.0000       4.008719       109.0828 
 568   0.0000       4.020447       109.4019 
 569   0.0000       4.029363       109.6445 
 570   0.0000       4.032982       109.7430 
 571   0.0000       4.043089       110.0180 
 572   0.0000       4.052965       110.2868 
 573   0.0000       4.063109       110.5628 
 574   0.0000       4.067236       110.6751 
 575   0.0000       4.076502       110.9273 
 576   0.0000       4.082135       111.0805 
 577   0.0000       4.089002       111.2674 
 578   0.0000       4.096595       111.4740 
 579   0.0000       4.107327       111.7660 
 580   0.0000       4.117630       112.0464 
 581   0.0000       4.122937       112.1908 
 582   0.0000       4.127830       112.3240 
 583   0.0000       4.137814       112.5956 
 584   0.0000       4.145662       112.8092 
 585   0.0000       4.152248       112.9884 
 586   0.0000       4.154725       113.0558 
 587   0.0000       4.158769       113.1658 
 588   0.0000       4.166198       113.3680 
 589   0.0000       4.173890       113.5773 
 590   0.0000       4.175966       113.6338 
 591   0.0000       4.192548       114.0850 
 592   0.0000       4.196213       114.1848 
 593   0.0000       4.197195       114.2115 
 594   0.0000       4.206688       114.4698 
 595   0.0000       4.222016       114.8869 
 596   0.0000       4.237462       115.3072 
 597   0.0000       4.238505       115.3356 
 598   0.0000       4.249207       115.6268 
 599   0.0000       4.257947       115.8646 
 600   0.0000       4.266634       116.1010 
 601   0.0000       4.272136       116.2507 
 602   0.0000       4.276906       116.3805 
 603   0.0000       4.285000       116.6008 
 604   0.0000       4.294239       116.8522 
 605   0.0000       4.302027       117.0641 
 606   0.0000       4.309508       117.2677 
 607   0.0000       4.321921       117.6055 
 608   0.0000       4.322827       117.6301 
 609   0.0000       4.332323       117.8885 
 610   0.0000       4.341970       118.1510 
 611   0.0000       4.351858       118.4201 
 612   0.0000       4.355381       118.5159 
 613   0.0000       4.369470       118.8993 
 614   0.0000       4.376143       119.0809 
 615   0.0000       4.385466       119.3346 
 616   0.0000       4.393875       119.5634 
 617   0.0000       4.399379       119.7132 
 618   0.0000       4.401667       119.7755 
 619   0.0000       4.409848       119.9981 
 620   0.0000       4.418458       120.2324 
 621   0.0000       4.420918       120.2993 
 622   0.0000       4.427429       120.4765 
 623   0.0000       4.440159       120.8229 
 624   0.0000       4.447182       121.0140 
 625   0.0000       4.457720       121.3007 
 626   0.0000       4.461582       121.4058 
 627   0.0000       4.477367       121.8354 
 628   0.0000       4.487070       122.0994 
 629   0.0000       4.496159       122.3467 
 630   0.0000       4.502533       122.5202 
 631   0.0000       4.507953       122.6676 
 632   0.0000       4.513085       122.8073 
 633   0.0000       4.529720       123.2599 
 634   0.0000       4.537830       123.4806 
 635   0.0000       4.542881       123.6181 
 636   0.0000       4.551760       123.8597 
 637   0.0000       4.556914       123.9999 
 638   0.0000       4.568914       124.3265 
 639   0.0000       4.578734       124.5937 
 640   0.0000       4.592663       124.9727 
 641   0.0000       4.601308       125.2080 
 642   0.0000       4.608627       125.4071 
 643   0.0000       4.613961       125.5523 
 644   0.0000       4.628738       125.9544 
 645   0.0000       4.632751       126.0636 
 646   0.0000       4.634855       126.1208 
 647   0.0000       4.639890       126.2578 
 648   0.0000       4.643706       126.3617 
 649   0.0000       4.654649       126.6594 
 650   0.0000       4.667004       126.9956 
 651   0.0000       4.672440       127.1436 
 652   0.0000       4.681056       127.3780 
 653   0.0000       4.686650       127.5302 
 654   0.0000       4.696721       127.8043 
 655   0.0000       4.702668       127.9661 
 656   0.0000       4.719791       128.4320 
 657   0.0000       4.737143       128.9042 
 658   0.0000       4.741163       129.0136 
 659   0.0000       4.754288       129.3707 
 660   0.0000       4.759496       129.5125 
 661   0.0000       4.781903       130.1222 
 662   0.0000       4.794440       130.4634 
 663   0.0000       4.799805       130.6093 
 664   0.0000       4.832326       131.4943 
 665   0.0000       4.844462       131.8245 
 666   0.0000       4.860292       132.2553 
 667   0.0000       4.862841       132.3246 
 668   0.0000       4.897547       133.2690 
 669   0.0000       4.899015       133.3090 
 670   0.0000       4.908225       133.5596 
 671   0.0000       4.920952       133.9059 
 672   0.0000       4.930624       134.1691 
 673   0.0000       4.960333       134.9775 
 674   0.0000       4.992751       135.8597 
 675   0.0000       4.999872       136.0534 
 676   0.0000       5.011527       136.3706 
 677   0.0000       5.017762       136.5403 
 678   0.0000       5.028468       136.8316 
 679   0.0000       5.047005       137.3360 
 680   0.0000       5.054489       137.5396 
 681   0.0000       5.059476       137.6754 
 682   0.0000       5.062186       137.7491 
 683   0.0000       5.084029       138.3435 
 684   0.0000       5.095126       138.6454 
 685   0.0000       5.111864       139.1009 
 686   0.0000       5.122368       139.3867 
 687   0.0000       5.133455       139.6884 
 688   0.0000       5.150162       140.1430 
 689   0.0000       5.153823       140.2427 
 690   0.0000       5.168941       140.6540 
 691   0.0000       5.171697       140.7290 
 692   0.0000       5.179484       140.9409 
 693   0.0000       5.198985       141.4716 
 694   0.0000       5.206409       141.6736 
 695   0.0000       5.216300       141.9427 
 696   0.0000       5.223180       142.1300 
 697   0.0000       5.226608       142.2232 
 698   0.0000       5.236991       142.5058 
 699   0.0000       5.245610       142.7403 
 700   0.0000       5.261991       143.1861 
 701   0.0000       5.274080       143.5150 
 702   0.0000       5.293335       144.0390 
 703   0.0000       5.323501       144.8598 
 704   0.0000       5.327156       144.9593 
 705   0.0000       5.337197       145.2325 
 706   0.0000       5.344490       145.4310 
 707   0.0000       5.352667       145.6535 
 708   0.0000       5.364150       145.9659 
 709   0.0000       5.376370       146.2985 
 710   0.0000       5.387491       146.6011 
 711   0.0000       5.399061       146.9159 
 712   0.0000       5.446556       148.2083 
 713   0.0000       5.466929       148.7627 
 714   0.0000       5.472153       148.9049 
 715   0.0000       5.487708       149.3281 
 716   0.0000       5.491203       149.4232 
 717   0.0000       5.511298       149.9700 
 718   0.0000       5.519867       150.2032 
 719   0.0000       5.527466       150.4100 
 720   0.0000       5.531238       150.5126 
 721   0.0000       5.548026       150.9695 
 722   0.0000       5.560025       151.2960 
 723   0.0000       5.572206       151.6274 
 724   0.0000       5.574626       151.6933 
 725   0.0000       5.590215       152.1175 
 726   0.0000       5.625508       153.0779 
 727   0.0000       5.636291       153.3713 
 728   0.0000       5.643234       153.5602 
 729   0.0000       5.648295       153.6979 
 730   0.0000       5.658716       153.9815 
 731   0.0000       5.667455       154.2193 
 732   0.0000       5.673936       154.3957 
 733   0.0000       5.684944       154.6952 
 734   0.0000       5.692961       154.9133 
 735   0.0000       5.713025       155.4593 
 736   0.0000       5.728886       155.8909 
 737   0.0000       5.738296       156.1470 
 738   0.0000       5.746565       156.3720 
 739   0.0000       5.749319       156.4469 
 740   0.0000       5.764041       156.8475 
 741   0.0000       5.779825       157.2770 
 742   0.0000       5.791827       157.6036 
 743   0.0000       5.798274       157.7791 
 744   0.0000       5.817853       158.3118 
 745   0.0000       5.833134       158.7276 
 746   0.0000       5.858928       159.4295 
 747   0.0000       5.890213       160.2808 
 748   0.0000       5.902454       160.6140 
 749   0.0000       5.904492       160.6694 
 750   0.0000       5.930647       161.3811 
 751   0.0000       5.964027       162.2894 
 752   0.0000       5.968449       162.4097 
 753   0.0000       5.971671       162.4974 
 754   0.0000       6.000162       163.2727 
 755   0.0000       6.005387       163.4149 
 756   0.0000       6.039455       164.3419 
 757   0.0000       6.055097       164.7676 
 758   0.0000       6.065746       165.0573 
 759   0.0000       6.074134       165.2856 
 760   0.0000       6.105514       166.1395 
 761   0.0000       6.176594       168.0737 
 762   0.0000       6.227828       169.4678 
 763   0.0000       6.237617       169.7342 
 764   0.0000       6.245420       169.9465 
 765   0.0000       6.274988       170.7511 
 766   0.0000       6.291027       171.1876 
 767   0.0000       6.341812       172.5695 
 768   0.0000       6.345630       172.6734 
 769   0.0000       6.363788       173.1675 
 770   0.0000       6.387904       173.8237 
 771   0.0000       6.397977       174.0978 
 772   0.0000       6.402372       174.2174 
 773   0.0000       6.439488       175.2274 
 774   0.0000       6.455567       175.6649 
 775   0.0000       6.474739       176.1866 
 776   0.0000       6.501855       176.9245 
 777   0.0000       6.527915       177.6336 
 778   0.0000       6.554424       178.3549 
 779   0.0000       6.624464       180.2608 
 780   0.0000       6.680098       181.7747 
 781   0.0000       6.692475       182.1115 
 782   0.0000       6.715656       182.7423 
 783   0.0000       6.779648       184.4836 
 784   0.0000       6.807827       185.2504 
 785   0.0000       6.853337       186.4888 
 786   0.0000       6.907751       187.9695 
 787   0.0000       6.919839       188.2984 
 788   0.0000       6.965066       189.5291 
 789   0.0000       6.979713       189.9277 
 790   0.0000       7.051989       191.8944 
 791   0.0000       7.069227       192.3634 
 792   0.0000       7.080741       192.6768 
 793   0.0000       7.139228       194.2683 
 794   0.0000       7.218111       196.4148 
 795   0.0000       7.256689       197.4645 
 796   0.0000       7.272389       197.8918 
 797   0.0000       7.279792       198.0932 
 798   0.0000       7.340194       199.7368 
 799   0.0000       7.354855       200.1358 
 800   0.0000       7.395518       201.2423 
 801   0.0000       7.500466       204.0981 
 802   0.0000       7.548767       205.4124 
 803   0.0000       7.576126       206.1569 
 804   0.0000       7.584007       206.3713 
 805   0.0000       7.782760       211.7797 
 806   0.0000       7.818317       212.7472 
 807   0.0000       7.931019       215.8140 
 808   0.0000       8.021724       218.2822 
 809   0.0000       9.410879       256.0830 
 810   0.0000       9.713824       264.3266 
 811   0.0000      10.830206       294.7049 
 812   0.0000      11.234113       305.6958 
 813   0.0000      12.149502       330.6048 
 814   0.0000      12.559169       341.7524 
 815   0.0000      12.938532       352.0754 
 816   0.0000      13.077540       355.8580 
 817   0.0000      13.267576       361.0291 
 818   0.0000      13.409844       364.9004 
 819   0.0000      13.474268       366.6535 
 820   0.0000      13.653919       371.5420 
 821   0.0000      13.844023       376.7150 
 822   0.0000      13.967133       380.0650 
 823   0.0000      14.034652       381.9023 
 824   0.0000      14.279288       388.5592 
 825   0.0000      14.545143       395.7935 
 826   0.0000      14.775271       402.0556 
 827   0.0000      15.996479       435.2863 

                    ********************************
                    * MULLIKEN POPULATION ANALYSIS *
                    ********************************

-----------------------
MULLIKEN ATOMIC CHARGES
-----------------------
   0 C :   -0.259714
   1 C :    0.006398
   2 O :   -0.301785
   3 C :    0.391094
   4 O :   -0.379116
   5 C :   -0.181197
   6 C :    0.140087
   7 C :   -0.331374
   8 N :   -0.137581
   9 C :    0.206298
  10 S :   -0.441956
  11 N :   -0.217683
  12 C :    0.072515
  13 C :    0.033453
  14 C :   -0.192176
  15 C :   -0.129818
  16 C :   -0.278583
  17 C :    0.321040
  18 O :   -0.358041
  19 C :   -0.295012
  20 H :    0.108767
  21 H :    0.103660
  22 H :    0.087919
  23 H :    0.095976
  24 H :    0.105039
  25 H :    0.123191
  26 H :    0.140028
  27 H :    0.122491
  28 H :    0.195792
  29 H :    0.199445
  30 H :    0.165436
  31 H :    0.165837
  32 H :    0.163607
  33 H :    0.132781
  34 H :    0.241794
  35 H :    0.181387
Sum of atomic charges:    0.0000000

--------------------------------
MULLIKEN REDUCED ORBITAL CHARGES
--------------------------------
  0 C s       :     3.261935  s :     3.261935
      pz      :     1.030041  p :     2.921148
      px      :     0.945309
      py      :     0.945798
      dz2     :     0.011421  d :     0.072163
      dxz     :     0.006208
      dyz     :     0.029081
      dx2y2   :     0.008081
      dxy     :     0.017371
      f0      :     0.000347  f :     0.004468
      f+1     :     0.000344
      f-1     :     0.001270
      f+2     :     0.000182
      f-2     :     0.000750
      f+3     :     0.000840
      f-3     :     0.000734
  1 C s       :     3.172931  s :     3.172931
      pz      :     0.980599  p :     2.646622
      px      :     0.691691
      py      :     0.974332
      dz2     :     0.020568  d :     0.162224
      dxz     :     0.029958
      dyz     :     0.035532
      dx2y2   :     0.037677
      dxy     :     0.038489
      f0      :     0.001194  f :     0.011825
      f+1     :     0.001475
      f-1     :     0.001629
      f+2     :     0.000959
      f-2     :     0.001635
      f+3     :     0.002742
      f-3     :     0.002190
  2 O s       :     3.722963  s :     3.722963
      pz      :     1.769240  p :     4.541808
      px      :     1.167498
      py      :     1.605071
      dz2     :     0.004205  d :     0.034723
      dxz     :     0.005308
      dyz     :     0.003289
      dx2y2   :     0.004712
      dxy     :     0.017209
      f0      :     0.000254  f :     0.002292
      f+1     :     0.000478
      f-1     :     0.000139
      f+2     :     0.000155
      f-2     :     0.000216
[...]
 15 C s       :     2.705777  s :     2.705777
      pz      :     0.877662  p :     2.791303
      px      :     0.944958
      py      :     0.968683
      dz2     :     0.080994  d :     0.415598
      dxz     :     0.070305
      dyz     :     0.050607
      dx2y2   :     0.114953
      dxy     :     0.098739
      f0      :     0.002667  f :     0.041057
      f+1     :     0.004853
      f-1     :     0.005525
      f+2     :     0.006757
      f-2     :     0.006290
      f+3     :     0.007509
      f-3     :     0.007457
 16 C s       :     2.701815  s :     2.701815
      pz      :     0.930362  p :     2.867469
      px      :     0.966851
      py      :     0.970256
      dz2     :     0.038242  d :     0.390562
      dxz     :     0.057386
      dyz     :     0.079093
      dx2y2   :     0.098048
      dxy     :     0.117792
      f0      :     0.004088  f :     0.040324
      f+1     :     0.004407
      f-1     :     0.003159
      f+2     :     0.006010
      f-2     :     0.005255
      f+3     :     0.008851
      f-3     :     0.008554
 17 C s       :     2.701575  s :     2.701575
      pz      :     0.836643  p :     2.683440
      px      :     0.821600
      py      :     1.025197
      dz2     :     0.112669  d :     0.709463
      dxz     :     0.113846
      dyz     :     0.126525
      dx2y2   :     0.177512
      dxy     :     0.178911
      f0      :     0.007920  f :     0.099365
      f+1     :     0.016068
      f-1     :     0.007801
      f+2     :     0.015303
      f-2     :     0.014250
      f+3     :     0.017450
      f-3     :     0.020574
 18 O s       :     3.177278  s :     3.177278
      pz      :     1.475811  p :     4.347421
      px      :     1.383512
      py      :     1.488098
      dz2     :     0.007343  d :     0.075561
      dxz     :     0.017232
      dyz     :     0.014932
      dx2y2   :     0.018486
      dxy     :     0.017567
      f0      :     0.000558  f :     0.005074
      f+1     :     0.000767
      f-1     :     0.000277
      f+2     :     0.000700
      f-2     :     0.000852
      f+3     :     0.000858
      f-3     :     0.001061
 19 C s       :     2.695783  s :     2.695783
      pz      :     0.923731  p :     2.848407
      px      :     0.958372
      py      :     0.966304
      dz2     :     0.065922  d :     0.388419
      dxz     :     0.066265
      dyz     :     0.052474
      dx2y2   :     0.101128
      dxy     :     0.102631
      f0      :     0.002869  f :     0.040740
      f+1     :     0.004747
      f-1     :     0.004986
      f+2     :     0.006810
      f-2     :     0.006752
      f+3     :     0.007637
      f-3     :     0.006938
 20 H s       :     0.844491  s :     0.844491
      pz      :     0.058435  p :     0.150246
      px      :     0.040402
      py      :     0.051409
      dz2     :     0.008070  d :     0.027473
      dxz     :     0.004679
      dyz     :     0.006908
      dx2y2   :     0.003698
      dxy     :     0.004118
 21 H s       :     0.847555  s :     0.847555
      pz      :     0.062405  p :     0.150691
      px      :     0.038177
      py      :     0.050109
      dz2     :     0.008295  d :     0.027465
      dxz     :     0.006075
      dyz     :     0.007490
      dx2y2   :     0.002347
      dxy     :     0.003258
 22 H s       :     0.846930  s :     0.846930
      pz      :     0.042033  p :     0.150825
      px      :     0.066763
      py      :     0.042029
      dz2     :     0.002915  d :     0.027411
      dxz     :     0.007521
      dyz     :     0.001975
      dx2y2   :     0.007267
      dxy     :     0.007734
 23 H s       :     0.862856  s :     0.862856
      pz      :     0.060041  p :     0.148327
      px      :     0.033499
      py      :     0.054787
      dz2     :     0.007284  d :     0.027136
      dxz     :     0.004786
      dyz     :     0.007339
      dx2y2   :     0.004049
      dxy     :     0.003678
 24 H s       :     0.853227  s :     0.853227
      pz      :     0.073573  p :     0.155706
      px      :     0.029223
      py      :     0.052909
      dz2     :     0.009465  d :     0.027695
      dxz     :     0.004654
      dyz     :     0.008599
      dx2y2   :     0.002304
      dxy     :     0.002673
 25 H s       :     0.833217  s :     0.833217
      pz      :     0.049877  p :     0.148692
      px      :     0.039161
      py      :     0.059654
      dz2     :     0.006574  d :     0.027556
      dxz     :     0.003485
      dyz     :     0.007019
      dx2y2   :     0.004900
      dxy     :     0.005578
 26 H s       :     0.831530  s :     0.831530
      pz      :     0.043316  p :     0.150446
      px      :     0.046148
      py      :     0.060982
      dz2     :     0.004464  d :     0.027606
      dxz     :     0.003146
      dyz     :     0.006603
      dx2y2   :     0.007736
      dxy     :     0.005657
 27 H s       :     0.837056  s :     0.837056
      pz      :     0.037146  p :     0.152382
      px      :     0.073005
      py      :     0.042231
      dz2     :     0.002340  d :     0.027662
      dxz     :     0.008270
      dyz     :     0.000677
      dx2y2   :     0.007226
      dxy     :     0.009149
 28 H s       :     0.742983  s :     0.742983
      pz      :     0.056751  p :     0.253722
      px      :     0.091572
      py      :     0.105399
      dz2     :     0.007657  d :     0.061645
      dxz     :     0.003917
      dyz     :     0.015581
      dx2y2   :     0.016313
      dxy     :     0.018176
 29 H s       :     0.747642  s :     0.747642
      pz      :     0.117840  p :     0.254615
      px      :     0.092619
      py      :     0.044157
      dz2     :     0.022318  d :     0.061387
      dxz     :     0.018643
      dyz     :     0.012853
      dx2y2   :     0.004531
      dxy     :     0.003042
 30 H s       :     0.825273  s :     0.825273
      pz      :     0.036868  p :     0.148566
      px      :     0.075100
      py      :     0.036598
      dz2     :     0.002696  d :     0.028332
      dxz     :     0.008183
      dyz     :     0.001491
      dx2y2   :     0.008245
      dxy     :     0.007718
 31 H s       :     0.837775  s :     0.837775
      pz      :     0.053352  p :     0.156694
      px      :     0.068046
      py      :     0.035296
      dz2     :     0.004824  d :     0.027400
      dxz     :     0.007119
      dyz     :     0.002849
      dx2y2   :     0.006130
      dxy     :     0.006478
 32 H s       :     0.841172  s :     0.841172
      pz      :     0.037146  p :     0.150818
      px      :     0.039395
      py      :     0.074277
      dz2     :     0.002584  d :     0.026422
      dxz     :     0.000872
      dyz     :     0.006943
      dx2y2   :     0.007969
      dxy     :     0.008054
 33 H s       :     0.848068  s :     0.848068
      pz      :     0.055649  p :     0.158947
      px      :     0.048493
      py      :     0.054805
      dz2     :     0.005326  d :     0.027747
      dxz     :     0.004340
      dyz     :     0.005845
      dx2y2   :     0.006421
      dxy     :     0.005816
 34 H s       :     0.706012  s :     0.706012
      pz      :     0.112020  p :     0.347455
      px      :     0.082925
      py      :     0.152510
      dz2     :     0.021254  d :     0.099480
      dxz     :     0.010069
      dyz     :     0.024730
      dx2y2   :     0.022439
      dxy     :     0.020989
 35 H s       :     0.837787  s :     0.837787
      pz      :     0.042263  p :     0.159166
      px      :     0.041240
      py      :     0.075663
      dz2     :     0.002555  d :     0.028106
      dxz     :     0.001121
      dyz     :     0.007747
      dx2y2   :     0.008196
      dxy     :     0.008486


                      *****************************
                      * MAYER POPULATION ANALYSIS *
                      *****************************

  NA   - Mulliken gross atomic population
  ZA   - Total nuclear charge
  QA   - Mulliken gross atomic charge
  VA   - Mayer's total valence
  BVA  - Mayer's bonded valence
  FA   - Mayer's free valence

  ATOM       NA         ZA         QA         VA         BVA        FA
  0 C      6.2597     6.0000    -0.2597     3.9106     3.9106     0.0000
  1 C      5.9936     6.0000     0.0064     3.8641     3.8641    -0.0000
  2 O      8.3018     8.0000    -0.3018     2.0633     2.0633    -0.0000
  3 C      5.6089     6.0000     0.3911     4.2371     4.2371    -0.0000
  4 O      8.3791     8.0000    -0.3791     2.1297     2.1297    -0.0000
  5 C      6.1812     6.0000    -0.1812     3.5670     3.5670    -0.0000
  6 C      5.8599     6.0000     0.1401     3.7868     3.7868    -0.0000
  7 C      6.3314     6.0000    -0.3314     3.8754     3.8754     0.0000
  8 N      7.1376     7.0000    -0.1376     3.2588     3.2588     0.0000
  9 C      5.7937     6.0000     0.2063     4.1454     4.1454     0.0000
 10 S     16.4420    16.0000    -0.4420     1.7506     1.7506     0.0000
 11 N      7.2177     7.0000    -0.2177     3.2528     3.2528     0.0000
 12 C      5.9275     6.0000     0.0725     3.9501     3.9501     0.0000
 13 C      5.9665     6.0000     0.0335     3.7136     3.7136     0.0000
 14 C      6.1922     6.0000    -0.1922     3.8846     3.8846     0.0000
 15 C      6.1298     6.0000    -0.1298     3.8135     3.8135     0.0000
 16 C      6.2786     6.0000    -0.2786     3.7920     3.7920     0.0000
 17 C      5.6790     6.0000     0.3210     3.8597     3.8597    -0.0000
 18 O      8.3580     8.0000    -0.3580     2.1163     2.1163    -0.0000
 19 C      6.2950     6.0000    -0.2950     3.8208     3.8208     0.0000
 20 H      0.8912     1.0000     0.1088     0.9844     0.9844     0.0000
 21 H      0.8963     1.0000     0.1037     0.9847     0.9847    -0.0000
 22 H      0.9121     1.0000     0.0879     0.9815     0.9815     0.0000
 23 H      0.9040     1.0000     0.0960     0.9681     0.9681     0.0000
 24 H      0.8950     1.0000     0.1050     0.9589     0.9589     0.0000
 25 H      0.8768     1.0000     0.1232     0.9821     0.9821     0.0000
 26 H      0.8600     1.0000     0.1400     0.9778     0.9778    -0.0000
 27 H      0.8775     1.0000     0.1225     0.9701     0.9701    -0.0000
 28 H      0.8042     1.0000     0.1958     1.0222     1.0222     0.0000
 29 H      0.8006     1.0000     0.1994     1.0152     1.0152     0.0000
 30 H      0.8346     1.0000     0.1654     0.9908     0.9908     0.0000
 31 H      0.8342     1.0000     0.1658     0.9885     0.9885     0.0000
 32 H      0.8364     1.0000     0.1636     0.9768     0.9768     0.0000
 33 H      0.8672     1.0000     0.1328     0.9910     0.9910    -0.0000
 34 H      0.7582     1.0000     0.2418     1.0099     1.0099     0.0000
 35 H      0.8186     1.0000     0.1814     0.9825     0.9825     0.0000

  Mayer bond orders larger than 0.100000
B(  0-C ,  1-C ) :   0.9842 B(  0-C , 20-H ) :   0.9768 B(  0-C , 21-H ) :   0.9797 
B(  0-C , 22-H ) :   0.9767 B(  1-C ,  2-O ) :   0.9165 B(  1-C , 23-H ) :   0.9746 
B(  1-C , 24-H ) :   0.9574 B(  2-O ,  3-C ) :   1.1719 B(  3-C ,  4-O ) :   2.0932 
B(  3-C ,  5-C ) :   0.9177 B(  5-C ,  6-C ) :   1.6924 B(  5-C , 12-C ) :   0.9607 
B(  6-C ,  7-C ) :   0.9421 B(  6-C ,  8-N ) :   1.1132 B(  7-C , 25-H ) :   0.9822 
B(  7-C , 26-H ) :   0.9693 B(  7-C , 27-H ) :   0.9664 B(  8-N ,  9-C ) :   1.1975 
B(  8-N , 28-H ) :   0.9529 B(  9-C , 10-S ) :   1.6099 B(  9-C , 11-N ) :   1.2859 
B( 11-N , 12-C ) :   0.9961 B( 11-N , 29-H ) :   0.9484 B( 12-C , 13-C ) :   0.9436 
B( 12-C , 30-H ) :   0.9972 B( 13-C , 14-C ) :   1.3881 B( 13-C , 19-C ) :   1.3389 
B( 14-C , 15-C ) :   1.3980 B( 14-C , 31-H ) :   0.9622 B( 15-C , 16-C ) :   1.3623 
B( 15-C , 32-H ) :   0.9700 B( 16-C , 17-C ) :   1.3298 B( 16-C , 33-H ) :   0.9843 
B( 17-C , 18-O ) :   1.1094 B( 17-C , 19-C ) :   1.3651 B( 18-O , 34-H ) :   0.9792 
B( 19-C , 35-H ) :   0.9559 

-------
TIMINGS
-------

Total SCF time: 0 days 2 hours 5 min 43 sec 

Total time                  ....    7543.054 sec
Sum of individual times     ....    7536.574 sec  ( 99.9%)

Fock matrix formation       ....    7521.086 sec  ( 99.7%)
Diagonalization             ....       1.675 sec  (  0.0%)
Density matrix formation    ....       0.206 sec  (  0.0%)
Population analysis         ....       0.334 sec  (  0.0%)
Initial guess               ....       6.635 sec  (  0.1%)
Orbital Transformation      ....       0.000 sec  (  0.0%)
Orbital Orthonormalization  ....       0.000 sec  (  0.0%)
DIIS solution               ....       2.877 sec  (  0.0%)
SOSCF solution              ....       2.280 sec  (  0.0%)

Maximum memory used throughout the entire SCF-calculation: 758.6 MB

------------------------------------------------------------------------------
                                ORCA  MP2 
------------------------------------------------------------------------------

Freezing NCore=48 chemical core electrons

-------------
RI-MP2 ENERGY
-------------
Dimension of the basis                    ...  828
Memory devoted to MP2                     ...  256 MB   
Data format for buffers                   ... DOUBLE
Compression type for matrix containers    ... UNCOMPRESSED
Overall scaling of the MP2 energy         ...   1.000e+00
Calculating two index integrals           ... done (    0.046 sec)
Cholesky decomposition of V**-1           ... done (    0.554 sec)

-----------------
RI-TRANSFORMATION (AUX index driven)
-----------------

Dimension of the orbital-basis         ... 828
Dimension of the aux-basis             ... 2141
Transformation of internal/external MOs...   24-  76 to   77- 827
Number Format for Storage              ... Double (8 Byte)
Integral mode                          ... Direct

First Phase: integral generation and transformation of MO indices
  Aux angular momentum 0               ... done (    6.175 sec)
  Aux angular momentum 1               ... done (   11.036 sec)
  Aux angular momentum 2               ... done (   13.015 sec)
  Aux angular momentum 3               ... done (   11.322 sec)
  Aux angular momentum 4               ... done (    3.698 sec)
Closing buffer VIA ( 0.63 GB; CompressionRatio= 1.00)
  Phase 1 completed in    45.579 sec
Second Phase: sorting and transformation of aux index

IA-Transformation
Memory available                       ... 156 MB 
Max. # MO pairs treated in a batch     ... 11    
# of internal orbitals                 ... 53
# batches for internal orbitals        ... 5
Closing buffer IAV ( 0.63 GB; CompressionRatio= 1.00)
(ia|v) transformation done in    53.727 sec

  Phase 2 completed in    53.741 sec
RI-Integral transformation completed in    99.328 sec
Opening buffers                              ... done

Starting loop over batches of integrals:

Operator 0  - window                       ... ( 24- 76)x( 77-827)
Operator 0  - Memory available             ...   256 MB
Operator 0  - Memory needed per MO         ...  12.3 MB
Operator 0  - Number of orbitals per batch ... 13
Operator 0  - Number of batches            ... 5

OPERATOR  0   PASS   0:  MOs    24 ...   36
  Reading integrals       ... ok
  Internal MO  26
  Internal MO  29
  Internal MO  32
  Internal MO  35
OPERATOR  0   PASS   1:  MOs    37 ...   49
  Reading integrals       ... ok
  Internal MO  38
  Internal MO  41
  Internal MO  44
  Internal MO  47
OPERATOR  0   PASS   2:  MOs    50 ...   62
  Reading integrals       ... ok
  Internal MO  50
  Internal MO  53
  Internal MO  56
  Internal MO  59
  Internal MO  62
OPERATOR  0   PASS   3:  MOs    63 ...   75
  Reading integrals       ... ok
  Internal MO  65
  Internal MO  68
  Internal MO  71
  Internal MO  74
OPERATOR  0   PASS   4:  MOs    76 ...   76
  Reading integrals       ... ok
Time spent in pair loops =   136.791 sec
Deleting buffer (Ka|jb)[aa] ...done

-----------------------------------------------
 RI-MP2 CORRELATION ENERGY:     -3.540709095 Eh
-----------------------------------------------


-------
TIMINGS
-------

Total time                :  236.853 sec
Integral trafo            :   99.377 sec ( 42.0%)
I/O of integrals          :    6.068 sec (  2.6%)
K(i,j) Operators          :   65.817 sec ( 27.8%)
T(i,j) pair energies      :    9.482 sec (  4.0%)
V-calculation             :    0.046 sec (  0.0%)
V**(-1/2)                 :    0.554 sec (  0.2%)
Gamma(ia|P)               :    0.000 sec (  0.0%)
Gamma-Trafo               :    0.000 sec (  0.0%)
D(virtual)                :    0.000 sec (  0.0%)
D(internal)               :    0.000 sec (  0.0%)
W(virtual)                :    0.000 sec (  0.0%)
W(internal)               :    0.000 sec (  0.0%)
L(virtual)                :    0.000 sec (  0.0%)
L(internal)               :    0.000 sec (  0.0%)
G(D)                      :    0.000 sec (  0.0%)
G(Z)                      :    0.000 sec (  0.0%)
Z-Vector Solution         :    0.000 sec (  0.0%)
3-Index Derivative        :    0.000 sec (  0.0%)
2-Index Derivative        :    0.000 sec (  0.0%)
Separable Gradient        :    0.000 sec (  0.0%)


---------------------------------------
MP2 TOTAL ENERGY:    -1274.330088864 Eh
---------------------------------------

Maximum memory used throughout the entire MP2-calculation: 306.0 MB

-------------------------   --------------------
FINAL SINGLE POINT ENERGY     -1274.330088864073
-------------------------   --------------------


                            ***************************************
                            *     ORCA property calculations      *
                            ***************************************


  WARNING: The energy has been calculated at the MP2 level but the densities
           used in the property calculations are still SCF densities
           MP2 response densities have not been calculated 
           use %mp2 Density relaxed end
           or  %mp2 Density unrelaxed end

                                    ---------------------
                                    Active property flags
                                    ---------------------
   (+) Dipole Moment


------------------------------------------------------------------------------
                       ORCA ELECTRIC PROPERTIES CALCULATION
------------------------------------------------------------------------------

Dipole Moment Calculation                       ... on
Quadrupole Moment Calculation                   ... off
Polarizability Calculation                      ... off
GBWName                                         ... CONFS/Conf49.orca.gbw
Electron density file                           ... CONFS/Conf49.orca.scfp
The origin for moment calculation is the CENTER OF MASS  = (32.831665, 31.419808 35.240774)

-------------
DIPOLE MOMENT
-------------
                                X             Y             Z
Electronic contribution:     10.58599       8.19192       6.64890
Nuclear contribution   :    -12.13089      -9.21768      -7.16298
                        -----------------------------------------
Total Dipole Moment    :     -1.54491      -1.02576      -0.51408
                        -----------------------------------------
Magnitude (a.u.)       :      1.92437
Magnitude (Debye)      :      4.89136



--------------------
Rotational spectrum 
--------------------
 
Rotational constants in cm-1:     0.012389     0.009002     0.006855 
Rotational constants in MHz :   371.426610   269.871929   205.503971 

 Dipole components along the rotational axes: 
x,y,z [a.u.] :    -1.364991    -0.669984     1.179456 
x,y,z [Debye]:    -3.469531    -1.702964     2.997939 

 

Timings for individual modules:

Sum of individual times         ...     7784.820 sec (= 129.747 min)
GTO integral calculation        ...        3.753 sec (=   0.063 min)   0.0 %
SCF iterations                  ...     7543.133 sec (= 125.719 min)  96.9 %
MP2 module                      ...      237.933 sec (=   3.966 min)   3.1 %
                             ****ORCA TERMINATED NORMALLY****
TOTAL RUN TIME: 0 days 2 hours 9 minutes 46 seconds 488 msec
