
                                        *****************
                                        * O   R   C   A *
                                        *****************

                                            #,                                       
                                            ###                                      
                                            ####                                     
                                            #####                                    
                                            ######                                   
                                           ########,                                 
                                     ,,################,,,,,                         
                               ,,#################################,,                 
                          ,,##########################################,,             
                       ,#########################################, ''#####,          
                    ,#############################################,,   '####,        
                  ,##################################################,,,,####,       
                ,###########''''           ''''###############################       
              ,#####''   ,,,,##########,,,,          '''####'''          '####       
            ,##' ,,,,###########################,,,                        '##       
           ' ,,###''''                  '''############,,,                           
         ,,##''                                '''############,,,,        ,,,,,,###''
      ,#''                                            '''#######################'''  
     '                                                          ''''####''''         
             ,#######,   #######,   ,#######,      ##                                
            ,#'     '#,  ##    ##  ,#'     '#,    #''#        ######   ,####,        
            ##       ##  ##   ,#'  ##            #'  '#       #        #'  '#        
            ##       ##  #######   ##           ,######,      #####,   #    #        
            '#,     ,#'  ##    ##  '#,     ,#' ,#      #,         ##   #,  ,#        
             '#######'   ##     ##  '#######'  #'      '#     #####' # '####'        



                  #######################################################
                  #                        -***-                        #
                  #          Department of theory and spectroscopy      #
                  #    Directorship and core code : Frank Neese         #
                  #        Max Planck Institute fuer Kohlenforschung    #
                  #                Kaiser Wilhelm Platz 1               #
                  #                 D-45470 Muelheim/Ruhr               #
                  #                      Germany                        #
                  #                                                     #
                  #                  All rights reserved                #
                  #                        -***-                        #
                  #######################################################


                         Program Version 5.0.0 -  RELEASE  -
                                (SVN: $Rev: 19529$)
                ($Date: 2021-06-28 11:36:33 +0200 (Mo, 28 Jun 2021) $)


 With contributions from (in alphabetic order):
   Daniel Aravena         : Magnetic Suceptibility
   Michael Atanasov       : Ab Initio Ligand Field Theory (pilot matlab implementation)
   Alexander A. Auer      : GIAO ZORA, VPT2 properties, NMR spectrum
   Ute Becker             : Parallelization
   Giovanni Bistoni       : ED, misc. LED, open-shell LED, HFLD
   Martin Brehm           : Molecular dynamics
   Dmytro Bykov           : SCF Hessian
   Vijay G. Chilkuri      : MRCI spin determinant printing, contributions to CSF-ICE
   Dipayan Datta          : RHF DLPNO-CCSD density
   Achintya Kumar Dutta   : EOM-CC, STEOM-CC
   Dmitry Ganyushin       : Spin-Orbit,Spin-Spin,Magnetic field MRCI
   Miquel Garcia          : C-PCM Hessian, Gaussian charge scheme
   Yang Guo               : DLPNO-NEVPT2, F12-NEVPT2, CIM, IAO-localization
   Andreas Hansen         : Spin unrestricted coupled pair/coupled cluster methods
   Benjamin Helmich-Paris : MC-RPA, TRAH-SCF, COSX integrals
   Lee Huntington         : MR-EOM, pCC
   Robert Izsak           : Overlap fitted RIJCOSX, COSX-SCS-MP3, EOM
   Marcus Kettner         : VPT2
   Christian Kollmar      : KDIIS, OOCD, Brueckner-CCSD(T), CCSD density, CASPT2, CASPT2-K
   Simone Kossmann        : Meta GGA functionals, TD-DFT gradient, OOMP2, MP2 Hessian
   Martin Krupicka        : Initial AUTO-CI
   Lucas Lang             : DCDCAS
   Marvin Lechner         : AUTO-CI (C++ implementation), FIC-MRCC
   Dagmar Lenk            : GEPOL surface, SMD
   Dimitrios Liakos       : Extrapolation schemes; Compound Job, initial MDCI parallelization
   Dimitrios Manganas     : Further ROCIS development; embedding schemes
   Dimitrios Pantazis     : SARC Basis sets
   Anastasios Papadopoulos: AUTO-CI, single reference methods and gradients
   Taras Petrenko         : DFT Hessian,TD-DFT gradient, ASA, ECA, R-Raman, ABS, FL, XAS/XES, NRVS
   Peter Pinski           : DLPNO-MP2, DLPNO-MP2 Gradient
   Christoph Reimann      : Effective Core Potentials
   Marius Retegan         : Local ZFS, SOC
   Christoph Riplinger    : Optimizer, TS searches, QM/MM, DLPNO-CCSD(T), (RO)-DLPNO pert. Triples
   Tobias Risthaus        : Range-separated hybrids, TD-DFT gradient, RPA, STAB
   Michael Roemelt        : Original ROCIS implementation
   Masaaki Saitow         : Open-shell DLPNO-CCSD energy and density
   Barbara Sandhoefer     : DKH picture change effects
   Avijit Sen             : IP-ROCIS
   Kantharuban Sivalingam : CASSCF convergence, NEVPT2, FIC-MRCI
   Bernardo de Souza      : ESD, SOC TD-DFT
   Georgi Stoychev        : AutoAux, RI-MP2 NMR
   Willem Van den Heuvel  : Paramagnetic NMR
   Boris Wezisla          : Elementary symmetry handling
   Frank Wennmohs         : Technical directorship


 We gratefully acknowledge several colleagues who have allowed us to
 interface, adapt or use parts of their codes:
   Stefan Grimme, W. Hujo, H. Kruse, P. Pracht,  : VdW corrections, initial TS optimization,
                  C. Bannwarth, S. Ehlert          DFT functionals, gCP, sTDA/sTD-DF
   Ed Valeev, F. Pavosevic, A. Kumar             : LibInt (2-el integral package), F12 methods
   Garnet Chan, S. Sharma, J. Yang, R. Olivares  : DMRG
   Ulf Ekstrom                                   : XCFun DFT Library
   Mihaly Kallay                                 : mrcc  (arbitrary order and MRCC methods)
   Jiri Pittner, Ondrej Demel                    : Mk-CCSD
   Frank Weinhold                                : gennbo (NPA and NBO analysis)
   Christopher J. Cramer and Donald G. Truhlar   : smd solvation model
   Lars Goerigk                                  : TD-DFT with DH, B97 family of functionals
   V. Asgeirsson, H. Jonsson                     : NEB implementation
   FAccTs GmbH                                   : IRC, NEB, NEB-TS, DLPNO-Multilevel, CI-OPT
                                                   MM, QMMM, 2- and 3-layer-ONIOM, Crystal-QMMM,
                                                   LR-CPCM, SF, NACMEs, symmetry and pop. for TD-DFT,
                                                   nearIR, NL-DFT gradient (VV10), updates on ESD,
                                                   ML-optimized integration grids
   S Lehtola, MJT Oliveira, MAL Marques          : LibXC Library
   Liviu Ungur et al                             : ANISO software


 Your calculation uses the libint2 library for the computation of 2-el integrals
 For citations please refer to: http://libint.valeyev.net

 Your ORCA version has been built with support for libXC version: 5.1.0
 For citations please refer to: https://tddft.org/programs/libxc/

 This ORCA versions uses:
   CBLAS   interface :  Fast vector & matrix operations
   LAPACKE interface :  Fast linear algebra routines
   SCALAPACK package :  Parallel linear algebra routines
   Shared memory     :  Shared parallel matrices
   BLAS/LAPACK       :  OpenBLAS 0.3.15  USE64BITINT DYNAMIC_ARCH NO_AFFINITY Zen SINGLE_THREADED
        Core in use  :  Zen
   Copyright (c) 2011-2014, The OpenBLAS Project


================================================================================

----- Orbital basis set information -----
Your calculation utilizes the basis: cc-pVTZ 
       H, B-Ne : Obtained from the ccRepo (grant-hill.group.shef.ac.uk/ccrepo) Feb. 2017
                 T. H. Dunning, Jr., J. Chem. Phys. 90, 1007 (1989)
            He : Obtained from the ccRepo (grant-hill.group.shef.ac.uk/ccrepo) Feb. 2017
                 D. E. Woon, T. H. Dunning, Jr., J. Chem. Phys. 100, 2975 (1994)
  Li-Be, Na-Mg : Obtained from the ccRepo (grant-hill.group.shef.ac.uk/ccrepo) Feb. 2017
                 B. P. Prascher, D. E. Woon, K. A. Peterson, T. H. Dunning, Jr., A. K. Wilson, Theor. Chem. Acc. 128, 69 (2011)
         Al-Ar : Obtained from the ccRepo (grant-hill.group.shef.ac.uk/ccrepo) Feb. 2017
                 D. E. Woon, T. H. Dunning, Jr., J. Chem. Phys. 98, 1358 (1993)
            Ca : Obtained from the Peterson Research Group Website (tyr0.chem.wsu.edu/~kipeters) Feb. 2017
                 J. Koput, K. A. Peterson, J. Phys. Chem. 106, 9595 (2002)
         Sc-Zn : Obtained from the ccRepo (grant-hill.group.shef.ac.uk/ccrepo) Feb. 2017
                 N. B. Balabanov, K. A. Peterson, J. Chem. Phys. 123, 064107 (2005)
                 N. B. Balabanov, K. A. Peterson, J. Chem. Phys. 125, 074110 (2006)
         Ga-Kr : Obtained from the ccRepo (grant-hill.group.shef.ac.uk/ccrepo) Feb. 2017
                 A. K. Wilson, D. E. Woon, K. A. Peterson, T. H. Dunning, Jr., J. Chem. Phys. 110, 7667 (1999)
             Y : Obtained from the ccRepo (grant-hill.group.shef.ac.uk/ccrepo) Feb. 2017
                 K. A. Peterson, D. Figgen, M. Dolg, H. Stoll, J. Chem. Phys. 126, 124101 (2007)
        Ag, Au : Obtained from the Peterson Research Group Website (tyr0.chem.wsu.edu/~kipeters) Feb. 2017
                 K. A. Peterson, C. Puzzarini, Theor. Chem. Acc. 114, 283 (2005)

----- AuxC basis set information -----
Your calculation utilizes the auxiliary basis: cc-pVTZ/C 
  Obtained from the EMSL Basis Set Exchange (bse.pnl.gov) Feb. 2017
  H-He, B-F, Al-Ar, Ga-Kr : F. Weigend, A. Kohn, C. Hattig, J. Chem. Phys. 116, 3175 (2002)
             Li-Be, Na-Mg : C. Haettig, Phys. Chem. Chem. Phys. 7, 59 (2005)
                       Ne : C. Haettig, Phys. Chem. Chem. Phys. 7, 59 (2005)
                            F. Weigend, A. Kohn, C. Hattig, J. Chem. Phys. 116, 3175 (2002)
                    Sc-Zn : J. G. Hill, J. A. Platts, J. Chem. Phys. 128, 044104 (2008)

================================================================================
                                        WARNINGS
                       Please study these warnings very carefully!
================================================================================


WARNING: No MP2 level density has been requested!
         To caclulate MP2 level properties use
         %mp2 Density relaxed end
         or
         %mp2 Density unrelaxed end

WARNING: Post HF methods need fully converged wavefunctions
  ===> : Setting SCFConvForced true
         You can overwrite this default with %scf ConvForced false 


INFO   : the flag for use of the SHARK integral package has been found!

================================================================================
                                       INPUT FILE
================================================================================
NAME = CONFS/Conf697.orca
|  1> ! ri-mp2 cc-pvtz cc-pvtz/c TightSCF NoKeepInts
|  2> 
|  3> %scf
|  4>   MaxCore 4096
|  5> end
|  6> *xyz  0  1
|  7>     C       14.6288006   16.1665492   16.7243358
|  8>     C       15.5821059   15.0089779   17.0731135
|  9>     O       16.7644688   14.9933739   16.2419916
| 10>     C       17.9069409   15.7360187   16.4227369
| 11>     O       18.9800459   15.2679986   16.0915672
| 12>     C       17.8518529   16.8594403   17.4001533
| 13>     C       17.3490277   18.0665038   17.0565748
| 14>     C       16.7741191   18.4607644   15.7124968
| 15>     N       17.4315111   19.1364724   17.9496209
| 16>     C       18.1012008   19.1031239   19.1450083
| 17>     S       18.1889361   20.4288352   20.1292773
| 18>     N       18.6988484   17.9141522   19.4852533
| 19>     C       18.6042485   16.6562431   18.7167364
| 20>     C       17.9953650   15.5306527   19.5467365
| 21>     C       18.4648936   14.2137327   19.3882101
| 22>     C       17.9013058   13.1582965   20.1239300
| 23>     C       16.8572678   13.4199650   21.0270812
| 24>     C       16.3831843   14.7289138   21.1859923
| 25>     O       15.3660744   14.9828113   22.0468138
| 26>     C       16.9438595   15.7780460   20.4502884
| 27>     H       14.8956722   17.0813885   17.2617023
| 28>     H       13.6064446   15.9080687   17.0266527
| 29>     H       14.6189536   16.3600786   15.6447597
| 30>     H       15.8342143   15.0204609   18.1383710
| 31>     H       15.0420688   14.0714706   16.8873712
| 32>     H       16.6659548   17.6058947   15.0342862
| 33>     H       17.4314376   19.1828991   15.2115083
| 34>     H       15.7855137   18.9234688   15.8204754
| 35>     H       17.0248840   20.0257920   17.7049845
| 36>     H       19.1765881   17.9170674   20.3777618
| 37>     H       19.6301303   16.3541244   18.4577659
| 38>     H       19.2640643   14.0057781   18.6790566
| 39>     H       18.2727848   12.1435987   19.9891662
| 40>     H       16.4187112   12.6068853   21.5964314
| 41>     H       15.1540035   14.1532311   22.5011768
| 42>     H       16.5515174   16.7809216   20.5846115
| 43> *
| 44> 
| 45>                          ****END OF INPUT****
================================================================================

                       ****************************
                       * Single Point Calculation *
                       ****************************

---------------------------------
CARTESIAN COORDINATES (ANGSTROEM)
---------------------------------
  C     14.628801   16.166549   16.724336
  C     15.582106   15.008978   17.073113
  O     16.764469   14.993374   16.241992
  C     17.906941   15.736019   16.422737
  O     18.980046   15.267999   16.091567
  C     17.851853   16.859440   17.400153
  C     17.349028   18.066504   17.056575
  C     16.774119   18.460764   15.712497
  N     17.431511   19.136472   17.949621
  C     18.101201   19.103124   19.145008
  S     18.188936   20.428835   20.129277
  N     18.698848   17.914152   19.485253
  C     18.604249   16.656243   18.716736
  C     17.995365   15.530653   19.546737
  C     18.464894   14.213733   19.388210
  C     17.901306   13.158297   20.123930
  C     16.857268   13.419965   21.027081
  C     16.383184   14.728914   21.185992
  O     15.366074   14.982811   22.046814
  C     16.943859   15.778046   20.450288
  H     14.895672   17.081388   17.261702
  H     13.606445   15.908069   17.026653
  H     14.618954   16.360079   15.644760
  H     15.834214   15.020461   18.138371
  H     15.042069   14.071471   16.887371
  H     16.665955   17.605895   15.034286
  H     17.431438   19.182899   15.211508
  H     15.785514   18.923469   15.820475
  H     17.024884   20.025792   17.704984
  H     19.176588   17.917067   20.377762
  H     19.630130   16.354124   18.457766
  H     19.264064   14.005778   18.679057
  H     18.272785   12.143599   19.989166
  H     16.418711   12.606885   21.596431
  H     15.154003   14.153231   22.501177
  H     16.551517   16.780922   20.584612

----------------------------
CARTESIAN COORDINATES (A.U.)
----------------------------
  NO LB      ZA    FRAG     MASS         X           Y           Z
   0 C     6.0000    0    12.011   27.644427   30.550351   31.604414
   1 C     6.0000    0    12.011   29.445913   28.362858   32.263509
   2 O     8.0000    0    15.999   31.680255   28.333370   30.692916
   3 C     6.0000    0    12.011   33.839214   29.736766   31.034475
   4 O     8.0000    0    15.999   35.867089   28.852336   30.408655
   5 C     6.0000    0    12.011   33.735113   31.859725   32.881524
   6 C     6.0000    0    12.011   32.784911   34.140744   32.232255
   7 C     6.0000    0    12.011   31.698491   34.885789   29.692316
   8 N     7.0000    0    14.007   32.940782   36.162692   33.919868
   9 C     6.0000    0    12.011   34.206312   36.099672   36.178823
  10 S    16.0000    0    32.060   34.372108   38.604904   38.038821
  11 N     7.0000    0    14.007   35.335702   33.852842   36.821792
  12 C     6.0000    0    12.011   35.156935   31.475738   35.369506
  13 C     6.0000    0    12.011   34.006312   29.348680   36.937979
  14 C     6.0000    0    12.011   34.893592   26.860062   36.638407
  15 C     6.0000    0    12.011   33.828565   24.865577   38.028716
  16 C     6.0000    0    12.011   31.855620   25.360059   39.735425
  17 C     6.0000    0    12.011   30.959732   27.833613   40.035723
  18 O     8.0000    0    15.999   29.037672   28.313410   41.662440
  19 C     6.0000    0    12.011   32.019254   29.816186   38.645444
  20 H     1.0000    0     1.008   28.148741   32.279146   32.619890
  21 H     1.0000    0     1.008   25.712454   30.061893   32.175711
  22 H     1.0000    0     1.008   27.625819   30.916068   29.564311
  23 H     1.0000    0     1.008   29.922329   28.384558   34.276554
  24 H     1.0000    0     1.008   28.425391   26.591226   31.912507
  25 H     1.0000    0     1.008   31.494090   33.270319   28.410684
  26 H     1.0000    0     1.008   32.940643   36.250426   28.745585
  27 H     1.0000    0     1.008   29.830298   35.760174   29.896366
  28 H     1.0000    0     1.008   32.172368   37.843262   33.457572
  29 H     1.0000    0     1.008   36.238500   33.858351   38.508389
  30 H     1.0000    0     1.008   37.095570   30.904816   34.880123
  31 H     1.0000    0     1.008   36.403806   26.467085   35.298301
  32 H     1.0000    0     1.008   34.530559   22.948076   37.774050
  33 H     1.0000    0     1.008   31.026868   23.823561   40.811341
  34 H     1.0000    0     1.008   28.636916   26.745731   42.521062
  35 H     1.0000    0     1.008   31.277835   31.711346   38.899278

--------------------------------
INTERNAL COORDINATES (ANGSTROEM)
--------------------------------
 C      0   0   0     0.000000000000     0.00000000     0.00000000
 C      1   0   0     1.539613001247     0.00000000     0.00000000
 O      2   1   0     1.445333568686   112.60513003     0.00000000
 C      3   2   1     1.374566354061   126.76120942    82.86755610
 O      4   3   2     1.216663686163   119.30497398   147.51066980
 C      4   3   2     1.490118652349   117.57084321   347.22215040
 C      6   4   3     1.351991738307   121.34273905   277.66073884
 C      7   6   4     1.514102700992   126.81882741     0.79893247
 N      7   6   4     1.396125944529   119.98032114   186.35096244
 C      9   7   6     1.370601128271   124.61838758     5.97342845
 S     10   9   7     1.653479179843   121.70808572   178.21522307
 N     10   9   7     1.373536682150   116.72516386   358.32767737
 C     12  10   9     1.477126491039   125.47974354   355.78030262
 C     13  12  10     1.525317354240   111.76981278   239.43002294
 C     14  13  12     1.407077116620   119.74532878   216.24849160
 C     15  14  13     1.404585544506   120.68842711   181.20323475
 C     16  15  14     1.405050831606   119.66338567     0.03699154
 C     17  16  15     1.401197653330   119.88633464     0.15026531
 O     18  17  16     1.356462363668   120.03453602   179.31625664
 C     18  17  16     1.398676260414   120.35953419     0.00000000
 H      1   2   3     1.094035717439   111.49373243   273.26436430
 H      1   2   3     1.097004771021   109.72252333   155.15673667
 H      1   2   3     1.096829589209   111.17345195    36.09807263
 H      2   1   3     1.094743826631   110.80202224   126.04303931
 H      2   1   3     1.097752344083   107.40765883   242.19419249
 H      8   7   6     1.096572541023   112.54979243     8.08921392
 H      8   7   6     1.097513376920   110.43458056   248.78445070
 H      8   7   6     1.096857044809   111.38820019   128.91791409
 H      9   7   6     1.008008887661   119.80644500   182.31228588
 H     12  10   9     1.012331537551   114.91298818   180.66301300
 H     13  12  10     1.100352169231   107.25096465   122.06956685
 H     15  14  13     1.088493275111   119.81510238     0.38219835
 H     16  15  14     1.088930463600   119.90018799   179.83597472
 H     17  16  15     1.085168254325   119.86832720   179.93573888
 H     19  18  17     0.969341586144   107.53682326     4.34996744
 H     20  18  17     1.085234761561   118.89051740   179.37906547

---------------------------
INTERNAL COORDINATES (A.U.)
---------------------------
 C      0   0   0     0.000000000000     0.00000000     0.00000000
 C      1   0   0     2.909446924582     0.00000000     0.00000000
 O      2   1   0     2.731284616981   112.60513003     0.00000000
 C      3   2   1     2.597553962079   126.76120942    82.86755610
 O      4   3   2     2.299161163935   119.30497398   147.51066980
 C      4   3   2     2.815916159988   117.57084321   347.22215040
 C      6   4   3     2.554894120724   121.34273905   277.66073884
 C      7   6   4     2.861239443505   126.81882741     0.79893247
 N      7   6   4     2.638295683622   119.98032114   186.35096244
 C      9   7   6     2.590060771275   124.61838758     5.97342845
 S     10   9   7     3.124622818044   121.70808572   178.21522307
 N     10   9   7     2.595608164158   116.72516386   358.32767737
 C     12  10   9     2.791364533223   125.47974354   355.78030262
 C     13  12  10     2.882432066830   111.76981278   239.43002294
 C     14  13  12     2.658990399719   119.74532878   216.24849160
 C     15  14  13     2.654282010781   120.68842711   181.20323475
 C     16  15  14     2.655161275974   119.66338567     0.03699154
 C     17  16  15     2.647879824286   119.88633464     0.15026531
 O     18  17  16     2.563342378303   120.03453602   179.31625664
 C     18  17  16     2.643115082201   120.35953419     0.00000000
 H      1   2   3     2.067427886689   111.49373243   273.26436430
 H      1   2   3     2.073038584834   109.72252333   155.15673667
 H      1   2   3     2.072707539187   111.17345195    36.09807263
 H      2   1   3     2.068766019133   110.80202224   126.04303931
 H      2   1   3     2.074451293186   107.40765883   242.19419249
 H      8   7   6     2.072221788511   112.54979243     8.08921392
 H      8   7   6     2.073999710694   110.43458056   248.78445070
 H      8   7   6     2.072759422751   111.38820019   128.91791409
 H      9   7   6     1.904860738238   119.80644500   182.31228588
 H     12  10   9     1.913029362702   114.91298818   180.66301300
 H     13  12  10     2.079364250713   107.25096465   122.06956685
 H     15  14  13     2.056954188575   119.81510238     0.38219835
 H     16  15  14     2.057780355088   119.90018799   179.83597472
 H     17  16  15     2.050670809900   119.86832720   179.93573888
 H     19  18  17     1.831790128033   107.53682326     4.34996744
 H     20  18  17     2.050796490363   118.89051740   179.37906547

---------------------
BASIS SET INFORMATION
---------------------
There are 5 groups of distinct atoms

 Group   1 Type C   : 18s5p2d1f contracted to 4s3p2d1f pattern {8811/311/11/1}
 Group   2 Type O   : 18s5p2d1f contracted to 4s3p2d1f pattern {8811/311/11/1}
 Group   3 Type N   : 18s5p2d1f contracted to 4s3p2d1f pattern {8811/311/11/1}
 Group   4 Type S   : 41s16p2d1f contracted to 5s4p2d1f pattern {13131311/7711/11/1}
 Group   5 Type H   : 5s2p1d contracted to 3s2p1d pattern {311/11/1}

Atom   0C    basis set group =>   1
Atom   1C    basis set group =>   1
Atom   2O    basis set group =>   2
Atom   3C    basis set group =>   1
Atom   4O    basis set group =>   2
Atom   5C    basis set group =>   1
Atom   6C    basis set group =>   1
Atom   7C    basis set group =>   1
Atom   8N    basis set group =>   3
Atom   9C    basis set group =>   1
Atom  10S    basis set group =>   4
Atom  11N    basis set group =>   3
Atom  12C    basis set group =>   1
Atom  13C    basis set group =>   1
Atom  14C    basis set group =>   1
Atom  15C    basis set group =>   1
Atom  16C    basis set group =>   1
Atom  17C    basis set group =>   1
Atom  18O    basis set group =>   2
Atom  19C    basis set group =>   1
Atom  20H    basis set group =>   5
Atom  21H    basis set group =>   5
Atom  22H    basis set group =>   5
Atom  23H    basis set group =>   5
Atom  24H    basis set group =>   5
Atom  25H    basis set group =>   5
Atom  26H    basis set group =>   5
Atom  27H    basis set group =>   5
Atom  28H    basis set group =>   5
Atom  29H    basis set group =>   5
Atom  30H    basis set group =>   5
Atom  31H    basis set group =>   5
Atom  32H    basis set group =>   5
Atom  33H    basis set group =>   5
Atom  34H    basis set group =>   5
Atom  35H    basis set group =>   5
---------------------------------
AUXILIARY/C BASIS SET INFORMATION
---------------------------------
There are 5 groups of distinct atoms

 Group   1 Type C   : 8s6p5d3f1g contracted to 8s6p5d3f1g pattern {11111111/111111/11111/111/1}
 Group   2 Type O   : 8s6p5d3f1g contracted to 8s6p5d3f1g pattern {11111111/111111/11111/111/1}
 Group   3 Type N   : 8s6p5d3f1g contracted to 8s6p5d3f1g pattern {11111111/111111/11111/111/1}
 Group   4 Type S   : 10s8p7d5f2g contracted to 10s8p7d5f2g pattern {1111111111/11111111/1111111/11111/11}
 Group   5 Type H   : 4s3p2d1f contracted to 4s3p2d1f pattern {1111/111/11/1}

Atom   0C    basis set group =>   1
Atom   1C    basis set group =>   1
Atom   2O    basis set group =>   2
Atom   3C    basis set group =>   1
Atom   4O    basis set group =>   2
Atom   5C    basis set group =>   1
Atom   6C    basis set group =>   1
Atom   7C    basis set group =>   1
Atom   8N    basis set group =>   3
Atom   9C    basis set group =>   1
Atom  10S    basis set group =>   4
Atom  11N    basis set group =>   3
Atom  12C    basis set group =>   1
Atom  13C    basis set group =>   1
Atom  14C    basis set group =>   1
Atom  15C    basis set group =>   1
Atom  16C    basis set group =>   1
Atom  17C    basis set group =>   1
Atom  18O    basis set group =>   2
Atom  19C    basis set group =>   1
Atom  20H    basis set group =>   5
Atom  21H    basis set group =>   5
Atom  22H    basis set group =>   5
Atom  23H    basis set group =>   5
Atom  24H    basis set group =>   5
Atom  25H    basis set group =>   5
Atom  26H    basis set group =>   5
Atom  27H    basis set group =>   5
Atom  28H    basis set group =>   5
Atom  29H    basis set group =>   5
Atom  30H    basis set group =>   5
Atom  31H    basis set group =>   5
Atom  32H    basis set group =>   5
Atom  33H    basis set group =>   5
Atom  34H    basis set group =>   5
Atom  35H    basis set group =>   5
------------------------------------------------------------------------------
                           ORCA GTO INTEGRAL CALCULATION
------------------------------------------------------------------------------
------------------------------------------------------------------------------
                   ___                                                        
                  /   \      - P O W E R E D   B Y -                         
                 /     \                                                     
                 |  |  |   _    _      __       _____    __    __             
                 |  |  |  | |  | |    /  \     |  _  \  |  |  /  |          
                  \  \/   | |  | |   /    \    | | | |  |  | /  /          
                 / \  \   | |__| |  /  /\  \   | |_| |  |  |/  /          
                |  |  |   |  __  | /  /__\  \  |    /   |      \           
                |  |  |   | |  | | |   __   |  |    \   |  |\   \          
                \     /   | |  | | |  |  |  |  | |\  \  |  | \   \       
                 \___/    |_|  |_| |__|  |__|  |_| \__\ |__|  \__/        
                                                                              
                      - O R C A' S   B I G   F R I E N D -                    
                                      &                                       
                       - I N T E G R A L  F E E D E R -                       
                                                                              
 v1 FN, 2020, v2 2021                                                         
------------------------------------------------------------------------------


Reading SHARK input file CONFS/Conf697.orca.SHARKINP.tmp ... ok
----------------------
SHARK INTEGRAL PACKAGE
----------------------

Number of atoms                             ...     36
Number of basis functions                   ...    828
Number of shells                            ...    298
Maximum angular momentum                    ...      3
Integral batch strategy                     ... SHARK/LIBINT Hybrid
RI-J (if used) integral strategy            ... SPLIT-RIJ (Revised 2003 algorithm where possible)
Printlevel                                  ...      1
Contraction scheme used                     ... SEGMENTED contraction
Coulomb Range Separation                    ... NOT USED
Exchange Range Separation                   ... NOT USED
Finite Nucleus Model                        ... NOT USED
Auxiliary Coulomb fitting basis             ... NOT available
Auxiliary J/K fitting basis                 ... NOT available
Auxiliary Correlation fitting basis         ... AVAILABLE
   # of basis functions in Aux-C            ...   2141
   # of shells in Aux-C                     ...    629
   Maximum angular momentum in Aux-C        ...      4
Auxiliary 'external' fitting basis          ... NOT available
Integral threshold                          ...     2.500000e-11
Primitive cut-off                           ...     2.500000e-12
Primitive pair pre-selection threshold      ...     2.500000e-12

Calculating pre-screening integrals         ... done (  0.6 sec) Dimension = 298
Organizing shell pair data                  ... done (  1.3 sec)
Shell pair information
Total number of shell pairs                 ...     44551
Shell pairs after pre-screening             ...     34679
Total number of primitive shell pairs       ...    234348
Primitive shell pairs kept                  ...     99029
          la=0 lb=0:   6890 shell pairs
          la=1 lb=0:   9613 shell pairs
          la=1 lb=1:   3408 shell pairs
          la=2 lb=0:   5527 shell pairs
          la=2 lb=1:   3811 shell pairs
          la=2 lb=2:   1093 shell pairs
          la=3 lb=0:   2008 shell pairs
          la=3 lb=1:   1387 shell pairs
          la=3 lb=2:    791 shell pairs
          la=3 lb=3:    151 shell pairs

Calculating one electron integrals          ... done (  0.3 sec)
Calculating RI/C V-Matrix + Cholesky decomp.... done (  0.9 sec)
Calculating Nuclear repulsion               ... done (  0.0 sec) ENN=   1732.343977354454 Eh

SHARK setup successfully completed in   3.7 seconds

Maximum memory used throughout the entire GTOINT-calculation: 517.5 MB
-------------------------------------------------------------------------------
                                 ORCA SCF
-------------------------------------------------------------------------------

------------
SCF SETTINGS
------------
Hamiltonian:
 Ab initio Hamiltonian  Method          .... Hartree-Fock(GTOs)


General Settings:
 Integral files         IntName         .... CONFS/Conf697.orca
 Hartree-Fock type      HFTyp           .... RHF
 Total Charge           Charge          ....    0
 Multiplicity           Mult            ....    1
 Number of Electrons    NEL             ....  154
 Basis Dimension        Dim             ....  828
 Nuclear Repulsion      ENuc            ....   1732.3439773545 Eh

Convergence Acceleration:
 DIIS                   CNVDIIS         .... on
   Start iteration      DIISMaxIt       ....    12
   Startup error        DIISStart       ....  0.200000
   # of expansion vecs  DIISMaxEq       ....     5
   Bias factor          DIISBfac        ....   1.050
   Max. coefficient     DIISMaxC        ....  10.000
 Trust-Rad. Augm. Hess. CNVTRAH         .... auto
   Auto Start mean grad. ratio tolernc. ....  1.125000
   Auto Start start iteration           ....    20
   Auto Start num. interpolation iter.  ....    10
   Max. Number of Micro iterations      ....    16
   Max. Number of Macro iterations      .... Maxiter - #DIIS iter
   Number of Davidson start vectors     ....     2
   Converg. threshold I  (grad. norm)   ....   1.000e-05
   Converg. threshold II (energy diff.) ....   1.000e-08
   Grad. Scal. Fac. for Micro threshold ....   0.100
   Minimum threshold for Micro iter.    ....   0.010
   NR start threshold (gradient norm)   ....   0.001
   Initial trust radius                 ....   0.400
   Minimum AH scaling param. (alpha)    ....   1.000
   Maximum AH scaling param. (alpha)    .... 1000.000
   Orbital update algorithm             .... Taylor
   White noise on init. David. guess    .... on
   Maximum white noise                  ....   0.010
   Quad. conv. algorithm                .... NR
 SOSCF                  CNVSOSCF        .... on
   Start iteration      SOSCFMaxIt      ....   150
   Startup grad/error   SOSCFStart      ....  0.003300
 Level Shifting         CNVShift        .... on
   Level shift para.    LevelShift      ....    0.2500
   Turn off err/grad.   ShiftErr        ....    0.0010
 Zerner damping         CNVZerner       .... off
 Static damping         CNVDamp         .... on
   Fraction old density DampFac         ....    0.7000
   Max. Damping (<1)    DampMax         ....    0.9800
   Min. Damping (>=0)   DampMin         ....    0.0000
   Turn off err/grad.   DampErr         ....    0.1000
 Fernandez-Rico         CNVRico         .... off

SCF Procedure:
 Maximum # iterations   MaxIter         ....   125
 SCF integral mode      SCFMode         .... Direct
   Integral package                     .... SHARK and LIBINT hybrid scheme
 Reset frequency        DirectResetFreq ....    20
 Integral Threshold     Thresh          ....  2.500e-11 Eh
 Primitive CutOff       TCut            ....  2.500e-12 Eh

Convergence Tolerance:
 Convergence Check Mode ConvCheckMode   .... Total+1el-Energy
 Convergence forced     ConvForced      .... 1
 Energy Change          TolE            ....  1.000e-08 Eh
 1-El. energy change                    ....  1.000e-05 Eh
 Orbital Gradient       TolG            ....  1.000e-05
 Orbital Rotation angle TolX            ....  1.000e-05
 DIIS Error             TolErr          ....  5.000e-07


Diagonalization of the overlap matrix:
Smallest eigenvalue                        ... 3.271e-05
Time for diagonalization                   ...    0.107 sec
Threshold for overlap eigenvalues          ... 1.000e-08
Number of eigenvalues below threshold      ... 0
Time for construction of square roots      ...    0.285 sec
Total time needed                          ...    0.393 sec

Time for model grid setup =    1.410 sec

------------------------------
INITIAL GUESS: MODEL POTENTIAL
------------------------------
Loading Hartree-Fock densities                     ... done
Calculating cut-offs                               ... done
Initializing the effective Hamiltonian             ... done
Setting up the integral package (SHARK)            ... done
Starting the Coulomb interaction                   ... done (   3.8 sec)
Reading the grid                                   ... done
Mapping shells                                     ... done
Starting the XC term evaluation                    ... done (   1.2 sec)
Transforming the Hamiltonian                       ... done (   0.1 sec)
Diagonalizing the Hamiltonian                      ... done (   0.1 sec)
Back transforming the eigenvectors                 ... done (   0.0 sec)
Now organizing SCF variables                       ... done
                      ------------------
                      INITIAL GUESS DONE (   6.7 sec)
                      ------------------
--------------
SCF ITERATIONS
--------------
ITER       Energy         Delta-E        Max-DP      RMS-DP      [F,P]     Damp
               ***  Starting incremental Fock matrix formation  ***
  0  -1269.9974777265   0.000000000000 0.04928522  0.00044856  0.3086466 0.7000
  1  -1270.2622870958  -0.264809369354 0.03608073  0.00036468  0.1826816 0.7000
                               ***Turning on DIIS***
  2  -1270.4275955393  -0.165308443486 0.02585376  0.00024247  0.1097678 0.7000
  3  -1272.5403238646  -2.112728325340 0.06325368  0.00051783  0.0829224 0.0000
  4  -1270.7373991224   1.802924742229 0.01213069  0.00010504  0.0066712 0.0000
  5  -1270.7921465204  -0.054747397995 0.00557366  0.00005342  0.0036904 0.0000
                      *** Initiating the SOSCF procedure ***
                           *** Shutting down DIIS ***
                      *** Re-Reading the Fockian *** 
                      *** Removing any level shift *** 
ITER      Energy       Delta-E        Grad      Rot      Max-DP    RMS-DP
  6  -1270.77161165   0.0205348718  0.001301  0.001301  0.002655  0.000027
               *** Restarting incremental Fock matrix formation ***
  7  -1270.78702958  -0.0154179277  0.000663  0.001621  0.001474  0.000017
  8  -1270.78707259  -0.0000430120  0.000355  0.001837  0.001566  0.000018
  9  -1270.78708922  -0.0000166318  0.000118  0.000224  0.000410  0.000005
 10  -1270.78709133  -0.0000021131  0.000029  0.000065  0.000124  0.000001
 11  -1270.78709151  -0.0000001806  0.000018  0.000065  0.000076  0.000001
 12  -1270.78709157  -0.0000000516  0.000007  0.000025  0.000028  0.000000
                  ***Gradient check signals convergence***
              ***Rediagonalizing the Fockian in SOSCF/NRSCF***

               *****************************************************
               *                     SUCCESS                       *
               *           SCF CONVERGED AFTER  13 CYCLES          *
               *****************************************************


----------------
TOTAL SCF ENERGY
----------------

Total Energy       :        -1270.78709157 Eh          -34579.87477 eV

Components:
Nuclear Repulsion  :         1732.34397735 Eh           47139.47615 eV
Electronic Energy  :        -3003.13106893 Eh          -81719.35092 eV
One Electron Energy:        -5185.21077527 Eh         -141096.75842 eV
Two Electron Energy:         2182.07970634 Eh           59377.40750 eV

Virial components:
Potential Energy   :        -2539.78037345 Eh          -69110.93749 eV
Kinetic Energy     :         1268.99328188 Eh           34531.06273 eV
Virial Ratio       :            2.00141357


---------------
SCF CONVERGENCE
---------------

  Last Energy change         ...   -9.2546e-09  Tolerance :   1.0000e-08
  Last MAX-Density change    ...    6.8057e-06  Tolerance :   1.0000e-07
  Last RMS-Density change    ...    1.0778e-07  Tolerance :   5.0000e-09
  Last Orbital Gradient      ...    2.4423e-06  Tolerance :   1.0000e-05
  Last Orbital Rotation      ...    8.2456e-06  Tolerance :   1.0000e-05

             **** THE GBW FILE WAS UPDATED (CONFS/Conf697.orca.gbw) ****
             **** DENSITY CONFS/Conf697.orca.scfp WAS UPDATED ****
             **** ENERGY FILE WAS UPDATED (CONFS/Conf697.orca.en.tmp) ****
             **** THE GBW FILE WAS UPDATED (CONFS/Conf697.orca.gbw) ****
             **** DENSITY CONFS/Conf697.orca.scfp WAS UPDATED ****
----------------
ORBITAL ENERGIES
----------------

  NO   OCC          E(Eh)            E(eV) 
   0   2.0000     -91.890080     -2500.4562 
   1   2.0000     -20.602384      -560.6194 
   2   2.0000     -20.596037      -560.4466 
   3   2.0000     -20.551693      -559.2400 
   4   2.0000     -15.625948      -425.2037 
   5   2.0000     -15.612400      -424.8350 
   6   2.0000     -11.398405      -310.1664 
   7   2.0000     -11.386981      -309.8555 
   8   2.0000     -11.327458      -308.2358 
   9   2.0000     -11.320190      -308.0380 
  10   2.0000     -11.317297      -307.9593 
  11   2.0000     -11.302462      -307.5556 
  12   2.0000     -11.267234      -306.5970 
  13   2.0000     -11.266287      -306.5713 
  14   2.0000     -11.264046      -306.5103 
  15   2.0000     -11.260639      -306.4176 
  16   2.0000     -11.249156      -306.1051 
  17   2.0000     -11.244707      -305.9840 
  18   2.0000     -11.242250      -305.9172 
  19   2.0000     -11.235061      -305.7216 
  20   2.0000      -8.895194      -242.0505 
  21   2.0000      -6.576784      -178.9634 
  22   2.0000      -6.574756      -178.9082 
  23   2.0000      -6.574182      -178.8926 
  24   2.0000      -1.445351       -39.3300 
  25   2.0000      -1.422200       -38.7000 
  26   2.0000      -1.357585       -36.9418 
  27   2.0000      -1.340028       -36.4640 
  28   2.0000      -1.240385       -33.7526 
  29   2.0000      -1.164113       -31.6771 
  30   2.0000      -1.126277       -30.6476 
  31   2.0000      -1.050648       -28.5896 
  32   2.0000      -1.039286       -28.2804 
  33   2.0000      -1.021979       -27.8095 
  34   2.0000      -1.005281       -27.3551 
  35   2.0000      -0.990549       -26.9542 
  36   2.0000      -0.928879       -25.2761 
  37   2.0000      -0.894749       -24.3474 
  38   2.0000      -0.853076       -23.2134 
  39   2.0000      -0.842814       -22.9341 
  40   2.0000      -0.839354       -22.8400 
  41   2.0000      -0.834448       -22.7065 
  42   2.0000      -0.753951       -20.5161 
  43   2.0000      -0.735733       -20.0203 
  44   2.0000      -0.730731       -19.8842 
  45   2.0000      -0.699822       -19.0431 
  46   2.0000      -0.690558       -18.7910 
  47   2.0000      -0.679640       -18.4939 
  48   2.0000      -0.676875       -18.4187 
  49   2.0000      -0.665047       -18.0969 
  50   2.0000      -0.655098       -17.8261 
  51   2.0000      -0.640603       -17.4317 
  52   2.0000      -0.637828       -17.3562 
  53   2.0000      -0.619110       -16.8468 
  54   2.0000      -0.610821       -16.6213 
  55   2.0000      -0.608715       -16.5640 
  56   2.0000      -0.605715       -16.4823 
  57   2.0000      -0.586583       -15.9617 
  58   2.0000      -0.582207       -15.8427 
  59   2.0000      -0.578130       -15.7317 
  60   2.0000      -0.567303       -15.4371 
  61   2.0000      -0.558124       -15.1873 
  62   2.0000      -0.538930       -14.6650 
  63   2.0000      -0.535264       -14.5653 
  64   2.0000      -0.524184       -14.2638 
  65   2.0000      -0.515629       -14.0310 
  66   2.0000      -0.504128       -13.7180 
  67   2.0000      -0.496939       -13.5224 
  68   2.0000      -0.490310       -13.3420 
  69   2.0000      -0.466976       -12.7071 
  70   2.0000      -0.453773       -12.3478 
  71   2.0000      -0.450103       -12.2479 
  72   2.0000      -0.356863        -9.7107 
  73   2.0000      -0.354155        -9.6371 
  74   2.0000      -0.329966        -8.9788 
  75   2.0000      -0.328060        -8.9270 
  76   2.0000      -0.319251        -8.6873 
  77   0.0000       0.090171         2.4537 
  78   0.0000       0.102199         2.7810 
  79   0.0000       0.116742         3.1767 
  80   0.0000       0.125214         3.4073 
  81   0.0000       0.127993         3.4829 
  82   0.0000       0.139853         3.8056 
  83   0.0000       0.149087         4.0569 
  84   0.0000       0.152601         4.1525 
  85   0.0000       0.156890         4.2692 
  86   0.0000       0.167381         4.5547 
  87   0.0000       0.174060         4.7364 
  88   0.0000       0.179124         4.8742 
  89   0.0000       0.191041         5.1985 
  90   0.0000       0.196162         5.3378 
  91   0.0000       0.201406         5.4805 
  92   0.0000       0.207873         5.6565 
  93   0.0000       0.222748         6.0613 
  94   0.0000       0.227645         6.1945 
  95   0.0000       0.230790         6.2801 
  96   0.0000       0.241895         6.5823 
  97   0.0000       0.244059         6.6412 
  98   0.0000       0.249139         6.7794 
  99   0.0000       0.282998         7.7008 
 100   0.0000       0.295634         8.0446 
 101   0.0000       0.303631         8.2622 
 102   0.0000       0.306831         8.3493 
 103   0.0000       0.319919         8.7054 
 104   0.0000       0.323445         8.8014 
 105   0.0000       0.337926         9.1954 
 106   0.0000       0.343397         9.3443 
 107   0.0000       0.344631         9.3779 
 108   0.0000       0.346373         9.4253 
 109   0.0000       0.359206         9.7745 
 110   0.0000       0.372336        10.1318 
 111   0.0000       0.378828        10.3084 
 112   0.0000       0.380057        10.3419 
 113   0.0000       0.390629        10.6296 
 114   0.0000       0.394177        10.7261 
 115   0.0000       0.398746        10.8504 
 116   0.0000       0.407754        11.0955 
 117   0.0000       0.415256        11.2997 
 118   0.0000       0.429874        11.6975 
 119   0.0000       0.434676        11.8281 
 120   0.0000       0.444651        12.0996 
 121   0.0000       0.450467        12.2578 
 122   0.0000       0.454702        12.3731 
 123   0.0000       0.463467        12.6116 
 124   0.0000       0.466230        12.6868 
 125   0.0000       0.476582        12.9685 
 126   0.0000       0.480211        13.0672 
 127   0.0000       0.489643        13.3239 
 128   0.0000       0.494097        13.4450 
 129   0.0000       0.497517        13.5381 
 130   0.0000       0.499574        13.5941 
 131   0.0000       0.507617        13.8129 
 132   0.0000       0.511397        13.9158 
 133   0.0000       0.517376        14.0785 
 134   0.0000       0.522505        14.2181 
 135   0.0000       0.530207        14.4277 
 136   0.0000       0.530556        14.4372 
 137   0.0000       0.536762        14.6060 
 138   0.0000       0.545915        14.8551 
 139   0.0000       0.549848        14.9621 
 140   0.0000       0.551177        14.9983 
 141   0.0000       0.557829        15.1793 
 142   0.0000       0.566767        15.4225 
 143   0.0000       0.569709        15.5026 
 144   0.0000       0.574421        15.6308 
 145   0.0000       0.579228        15.7616 
 146   0.0000       0.585358        15.9284 
 147   0.0000       0.588264        16.0075 
 148   0.0000       0.593116        16.1395 
 149   0.0000       0.597021        16.2458 
 150   0.0000       0.600862        16.3503 
 151   0.0000       0.605082        16.4651 
 152   0.0000       0.607005        16.5174 
 153   0.0000       0.614810        16.7298 
 154   0.0000       0.620293        16.8790 
 155   0.0000       0.624342        16.9892 
 156   0.0000       0.628306        17.0971 
 157   0.0000       0.637846        17.3567 
 158   0.0000       0.642909        17.4944 
 159   0.0000       0.643757        17.5175 
 160   0.0000       0.646274        17.5860 
 161   0.0000       0.652694        17.7607 
 162   0.0000       0.655796        17.8451 
 163   0.0000       0.661386        17.9972 
 164   0.0000       0.673859        18.3366 
 165   0.0000       0.679354        18.4862 
 166   0.0000       0.680295        18.5118 
 167   0.0000       0.683425        18.5969 
 168   0.0000       0.695694        18.9308 
 169   0.0000       0.699286        19.0285 
 170   0.0000       0.704029        19.1576 
 171   0.0000       0.709976        19.3194 
 172   0.0000       0.716181        19.4883 
 173   0.0000       0.721800        19.6412 
 174   0.0000       0.730796        19.8860 
 175   0.0000       0.732850        19.9419 
 176   0.0000       0.738162        20.0864 
 177   0.0000       0.745847        20.2955 
 178   0.0000       0.759741        20.6736 
 179   0.0000       0.761805        20.7298 
 180   0.0000       0.768869        20.9220 
 181   0.0000       0.779443        21.2097 
 182   0.0000       0.794362        21.6157 
 183   0.0000       0.800303        21.7773 
 184   0.0000       0.806497        21.9459 
 185   0.0000       0.812179        22.1005 
 186   0.0000       0.820492        22.3267 
 187   0.0000       0.831975        22.6392 
 188   0.0000       0.841211        22.8905 
 189   0.0000       0.847449        23.0603 
 190   0.0000       0.850345        23.1391 
 191   0.0000       0.852973        23.2106 
 192   0.0000       0.857742        23.3403 
 193   0.0000       0.869931        23.6720 
 194   0.0000       0.876266        23.8444 
 195   0.0000       0.885780        24.1033 
 196   0.0000       0.895837        24.3770 
 197   0.0000       0.899407        24.4741 
 198   0.0000       0.908404        24.7189 
 199   0.0000       0.910864        24.7859 
 200   0.0000       0.918919        25.0051 
 201   0.0000       0.926237        25.2042 
 202   0.0000       0.928177        25.2570 
 203   0.0000       0.938599        25.5406 
 204   0.0000       0.941003        25.6060 
 205   0.0000       0.951629        25.8951 
 206   0.0000       0.959633        26.1129 
 207   0.0000       0.960376        26.1331 
 208   0.0000       0.965491        26.2723 
 209   0.0000       0.976557        26.5735 
 210   0.0000       0.985918        26.8282 
 211   0.0000       0.993578        27.0366 
 212   0.0000       0.999351        27.1937 
 213   0.0000       1.008308        27.4374 
 214   0.0000       1.017184        27.6790 
 215   0.0000       1.024207        27.8701 
 216   0.0000       1.028634        27.9905 
 217   0.0000       1.038351        28.2550 
 218   0.0000       1.041468        28.3398 
 219   0.0000       1.049326        28.5536 
 220   0.0000       1.050356        28.5816 
 221   0.0000       1.065520        28.9943 
 222   0.0000       1.073144        29.2017 
 223   0.0000       1.076611        29.2961 
 224   0.0000       1.086794        29.5732 
 225   0.0000       1.090478        29.6734 
 226   0.0000       1.095352        29.8061 
 227   0.0000       1.099195        29.9106 
 228   0.0000       1.106658        30.1137 
 229   0.0000       1.113076        30.2883 
 230   0.0000       1.118516        30.4364 
 231   0.0000       1.134872        30.8814 
 232   0.0000       1.143797        31.1243 
 233   0.0000       1.152008        31.3477 
 234   0.0000       1.152754        31.3680 
 235   0.0000       1.161461        31.6050 
 236   0.0000       1.172086        31.8941 
 237   0.0000       1.178724        32.0747 
 238   0.0000       1.186857        32.2960 
 239   0.0000       1.192499        32.4495 
 240   0.0000       1.202081        32.7103 
 241   0.0000       1.212510        32.9941 
 242   0.0000       1.217365        33.1262 
 243   0.0000       1.222661        33.2703 
 244   0.0000       1.226611        33.3778 
 245   0.0000       1.237682        33.6790 
 246   0.0000       1.249620        34.0039 
 247   0.0000       1.252086        34.0710 
 248   0.0000       1.259442        34.2711 
 249   0.0000       1.267153        34.4810 
 250   0.0000       1.268516        34.5181 
 251   0.0000       1.273536        34.6547 
 252   0.0000       1.278872        34.7999 
 253   0.0000       1.281498        34.8713 
 254   0.0000       1.302992        35.4562 
 255   0.0000       1.312656        35.7192 
 256   0.0000       1.316162        35.8146 
 257   0.0000       1.333877        36.2966 
 258   0.0000       1.335503        36.3409 
 259   0.0000       1.343794        36.5665 
 260   0.0000       1.349088        36.7105 
 261   0.0000       1.355683        36.8900 
 262   0.0000       1.364639        37.1337 
 263   0.0000       1.369966        37.2787 
 264   0.0000       1.377837        37.4928 
 265   0.0000       1.390833        37.8465 
 266   0.0000       1.392140        37.8820 
 267   0.0000       1.400205        38.1015 
 268   0.0000       1.413502        38.4633 
 269   0.0000       1.420911        38.6650 
 270   0.0000       1.424726        38.7688 
 271   0.0000       1.440866        39.2080 
 272   0.0000       1.450848        39.4796 
 273   0.0000       1.458296        39.6822 
 274   0.0000       1.462588        39.7990 
 275   0.0000       1.470809        40.0228 
 276   0.0000       1.472757        40.0758 
 277   0.0000       1.479996        40.2727 
 278   0.0000       1.486852        40.4593 
 279   0.0000       1.491419        40.5836 
 280   0.0000       1.498911        40.7874 
 281   0.0000       1.510175        41.0939 
 282   0.0000       1.515529        41.2396 
 283   0.0000       1.524003        41.4702 
 284   0.0000       1.527940        41.5774 
 285   0.0000       1.536019        41.7972 
 286   0.0000       1.541386        41.9432 
 287   0.0000       1.544991        42.0414 
 288   0.0000       1.556020        42.3415 
 289   0.0000       1.558833        42.4180 
 290   0.0000       1.570116        42.7250 
 291   0.0000       1.579355        42.9764 
 292   0.0000       1.587277        43.1920 
 293   0.0000       1.596273        43.4368 
 294   0.0000       1.602196        43.5980 
 295   0.0000       1.606000        43.7015 
 296   0.0000       1.621224        44.1158 
 297   0.0000       1.623659        44.1820 
 298   0.0000       1.628879        44.3241 
 299   0.0000       1.634255        44.4703 
 300   0.0000       1.641874        44.6777 
 301   0.0000       1.646255        44.7969 
 302   0.0000       1.658452        45.1288 
 303   0.0000       1.659648        45.1613 
 304   0.0000       1.664690        45.2985 
 305   0.0000       1.684870        45.8476 
 306   0.0000       1.688698        45.9518 
 307   0.0000       1.699380        46.2425 
 308   0.0000       1.706936        46.4481 
 309   0.0000       1.715947        46.6933 
 310   0.0000       1.716813        46.7169 
 311   0.0000       1.740470        47.3606 
 312   0.0000       1.745439        47.4958 
 313   0.0000       1.754264        47.7359 
 314   0.0000       1.760014        47.8924 
 315   0.0000       1.763640        47.9911 
 316   0.0000       1.776674        48.3458 
 317   0.0000       1.780599        48.4526 
 318   0.0000       1.806797        49.1654 
 319   0.0000       1.817689        49.4618 
 320   0.0000       1.827400        49.7261 
 321   0.0000       1.838781        50.0358 
 322   0.0000       1.845011        50.2053 
 323   0.0000       1.847705        50.2786 
 324   0.0000       1.854839        50.4727 
 325   0.0000       1.875252        51.0282 
 326   0.0000       1.887726        51.3676 
 327   0.0000       1.904135        51.8141 
 328   0.0000       1.909682        51.9651 
 329   0.0000       1.914738        52.1027 
 330   0.0000       1.931711        52.5645 
 331   0.0000       1.940908        52.8148 
 332   0.0000       1.947702        52.9997 
 333   0.0000       1.962288        53.3966 
 334   0.0000       1.973537        53.7027 
 335   0.0000       1.984232        53.9937 
 336   0.0000       1.995912        54.3115 
 337   0.0000       2.001470        54.4628 
 338   0.0000       2.015004        54.8310 
 339   0.0000       2.024877        55.0997 
 340   0.0000       2.032276        55.3010 
 341   0.0000       2.044560        55.6353 
 342   0.0000       2.055115        55.9225 
 343   0.0000       2.083521        56.6955 
 344   0.0000       2.086371        56.7730 
 345   0.0000       2.093654        56.9712 
 346   0.0000       2.114363        57.5348 
 347   0.0000       2.143968        58.3403 
 348   0.0000       2.154795        58.6349 
 349   0.0000       2.174257        59.1645 
 350   0.0000       2.181084        59.3503 
 351   0.0000       2.200810        59.8871 
 352   0.0000       2.213509        60.2326 
 353   0.0000       2.218668        60.3730 
 354   0.0000       2.239058        60.9279 
 355   0.0000       2.261130        61.5285 
 356   0.0000       2.279561        62.0300 
 357   0.0000       2.288893        62.2840 
 358   0.0000       2.298897        62.5562 
 359   0.0000       2.309092        62.8336 
 360   0.0000       2.324684        63.2579 
 361   0.0000       2.328442        63.3601 
 362   0.0000       2.338464        63.6328 
 363   0.0000       2.350190        63.9519 
 364   0.0000       2.363792        64.3221 
 365   0.0000       2.371607        64.5347 
 366   0.0000       2.384380        64.8823 
 367   0.0000       2.396144        65.2024 
 368   0.0000       2.403627        65.4060 
 369   0.0000       2.430343        66.1330 
 370   0.0000       2.437266        66.3214 
 371   0.0000       2.450841        66.6908 
 372   0.0000       2.462363        67.0043 
 373   0.0000       2.472776        67.2876 
 374   0.0000       2.486298        67.6556 
 375   0.0000       2.501511        68.0696 
 376   0.0000       2.514278        68.4170 
 377   0.0000       2.535197        68.9862 
 378   0.0000       2.544734        69.2457 
 379   0.0000       2.556850        69.5754 
 380   0.0000       2.578685        70.1696 
 381   0.0000       2.581887        70.2567 
 382   0.0000       2.589123        70.4536 
 383   0.0000       2.609284        71.0022 
 384   0.0000       2.615568        71.1732 
 385   0.0000       2.630207        71.5716 
 386   0.0000       2.646837        72.0241 
 387   0.0000       2.651472        72.1502 
 388   0.0000       2.658369        72.3379 
 389   0.0000       2.678195        72.8774 
 390   0.0000       2.687554        73.1320 
 391   0.0000       2.701795        73.5196 
 392   0.0000       2.708159        73.6928 
 393   0.0000       2.711926        73.7953 
 394   0.0000       2.733098        74.3714 
 395   0.0000       2.746292        74.7304 
 396   0.0000       2.758748        75.0693 
 397   0.0000       2.762951        75.1837 
 398   0.0000       2.772501        75.4436 
 399   0.0000       2.777776        75.5871 
 400   0.0000       2.802486        76.2595 
 401   0.0000       2.812222        76.5244 
 402   0.0000       2.816573        76.6428 
 403   0.0000       2.821109        76.7663 
 404   0.0000       2.832414        77.0739 
 405   0.0000       2.843172        77.3666 
 406   0.0000       2.850897        77.5769 
 407   0.0000       2.858319        77.7788 
 408   0.0000       2.861063        77.8535 
 409   0.0000       2.878333        78.3234 
 410   0.0000       2.887875        78.5831 
 411   0.0000       2.891738        78.6882 
 412   0.0000       2.896712        78.8235 
 413   0.0000       2.905275        79.0566 
 414   0.0000       2.916086        79.3507 
 415   0.0000       2.928008        79.6751 
 416   0.0000       2.936783        79.9139 
 417   0.0000       2.945478        80.1505 
 418   0.0000       2.955804        80.4315 
 419   0.0000       2.967872        80.7599 
 420   0.0000       2.973363        80.9093 
 421   0.0000       2.981522        81.1313 
 422   0.0000       2.997575        81.5682 
 423   0.0000       2.999180        81.6118 
 424   0.0000       3.011121        81.9368 
 425   0.0000       3.018241        82.1305 
 426   0.0000       3.023585        82.2759 
 427   0.0000       3.027734        82.3888 
 428   0.0000       3.032538        82.5196 
 429   0.0000       3.040689        82.7413 
 430   0.0000       3.056315        83.1666 
 431   0.0000       3.059870        83.2633 
 432   0.0000       3.064402        83.3866 
 433   0.0000       3.073250        83.6274 
 434   0.0000       3.077124        83.7328 
 435   0.0000       3.085728        83.9669 
 436   0.0000       3.091976        84.1369 
 437   0.0000       3.103203        84.4424 
 438   0.0000       3.113498        84.7226 
 439   0.0000       3.118578        84.8608 
 440   0.0000       3.123900        85.0056 
 441   0.0000       3.127804        85.1119 
 442   0.0000       3.133413        85.2645 
 443   0.0000       3.135232        85.3140 
 444   0.0000       3.146311        85.6155 
 445   0.0000       3.157815        85.9285 
 446   0.0000       3.168571        86.2212 
 447   0.0000       3.171777        86.3084 
 448   0.0000       3.183767        86.6347 
 449   0.0000       3.185137        86.6720 
 450   0.0000       3.197666        87.0129 
 451   0.0000       3.203154        87.1622 
 452   0.0000       3.212585        87.4189 
 453   0.0000       3.223718        87.7218 
 454   0.0000       3.234367        88.0116 
 455   0.0000       3.241355        88.2018 
 456   0.0000       3.245268        88.3082 
 457   0.0000       3.247351        88.3649 
 458   0.0000       3.259344        88.6913 
 459   0.0000       3.266676        88.8908 
 460   0.0000       3.273393        89.0736 
 461   0.0000       3.277981        89.1984 
 462   0.0000       3.291527        89.5670 
 463   0.0000       3.298641        89.7606 
 464   0.0000       3.302541        89.8667 
 465   0.0000       3.310857        90.0930 
 466   0.0000       3.321102        90.3718 
 467   0.0000       3.323243        90.4300 
 468   0.0000       3.327841        90.5552 
 469   0.0000       3.332212        90.6741 
 470   0.0000       3.335834        90.7727 
 471   0.0000       3.347788        91.0979 
 472   0.0000       3.349490        91.1443 
 473   0.0000       3.359813        91.4252 
 474   0.0000       3.361956        91.4835 
 475   0.0000       3.368795        91.6696 
 476   0.0000       3.372502        91.7704 
 477   0.0000       3.373785        91.8054 
 478   0.0000       3.378499        91.9336 
 479   0.0000       3.387843        92.1879 
 480   0.0000       3.397482        92.4502 
 481   0.0000       3.403547        92.6152 
 482   0.0000       3.411217        92.8239 
 483   0.0000       3.412419        92.8566 
 484   0.0000       3.417378        92.9916 
 485   0.0000       3.422522        93.1316 
 486   0.0000       3.425137        93.2027 
 487   0.0000       3.431070        93.3642 
 488   0.0000       3.439603        93.5964 
 489   0.0000       3.441861        93.6578 
 490   0.0000       3.445515        93.7572 
 491   0.0000       3.458710        94.1163 
 492   0.0000       3.466655        94.3325 
 493   0.0000       3.467629        94.3590 
 494   0.0000       3.474514        94.5463 
 495   0.0000       3.482792        94.7716 
 496   0.0000       3.497721        95.1778 
 497   0.0000       3.501697        95.2860 
 498   0.0000       3.512535        95.5809 
 499   0.0000       3.513896        95.6180 
 500   0.0000       3.522841        95.8614 
 501   0.0000       3.524872        95.9166 
 502   0.0000       3.533440        96.1498 
 503   0.0000       3.541604        96.3720 
 504   0.0000       3.549092        96.5757 
 505   0.0000       3.553328        96.6910 
 506   0.0000       3.560547        96.8874 
 507   0.0000       3.567429        97.0747 
 508   0.0000       3.574629        97.2706 
 509   0.0000       3.588210        97.6402 
 510   0.0000       3.596856        97.8754 
 511   0.0000       3.603407        98.0537 
 512   0.0000       3.612817        98.3097 
 513   0.0000       3.615259        98.3762 
 514   0.0000       3.626714        98.6879 
 515   0.0000       3.628736        98.7429 
 516   0.0000       3.633181        98.8639 
 517   0.0000       3.635156        98.9176 
 518   0.0000       3.642789        99.1253 
 519   0.0000       3.655839        99.4804 
 520   0.0000       3.663203        99.6808 
 521   0.0000       3.665925        99.7549 
 522   0.0000       3.673695        99.9663 
 523   0.0000       3.678182       100.0884 
 524   0.0000       3.685538       100.2886 
 525   0.0000       3.694354       100.5285 
 526   0.0000       3.697197       100.6058 
 527   0.0000       3.705037       100.8192 
 528   0.0000       3.708995       100.9269 
 529   0.0000       3.710619       100.9711 
 530   0.0000       3.712454       101.0210 
 531   0.0000       3.718747       101.1923 
 532   0.0000       3.726118       101.3928 
 533   0.0000       3.736417       101.6731 
 534   0.0000       3.736908       101.6864 
 535   0.0000       3.753003       102.1244 
 536   0.0000       3.757116       102.2363 
 537   0.0000       3.766494       102.4915 
 538   0.0000       3.768530       102.5469 
 539   0.0000       3.775209       102.7287 
 540   0.0000       3.780964       102.8853 
 541   0.0000       3.795033       103.2681 
 542   0.0000       3.804437       103.5240 
 543   0.0000       3.813503       103.7707 
 544   0.0000       3.821432       103.9865 
 545   0.0000       3.828925       104.1903 
 546   0.0000       3.835502       104.3693 
 547   0.0000       3.847327       104.6911 
 548   0.0000       3.849511       104.7505 
 549   0.0000       3.860748       105.0563 
 550   0.0000       3.863081       105.1198 
 551   0.0000       3.870220       105.3140 
 552   0.0000       3.875859       105.4675 
 553   0.0000       3.887660       105.7886 
 554   0.0000       3.890890       105.8765 
 555   0.0000       3.900879       106.1483 
 556   0.0000       3.907213       106.3207 
 557   0.0000       3.920447       106.6808 
 558   0.0000       3.927843       106.8820 
 559   0.0000       3.934358       107.0593 
 560   0.0000       3.950299       107.4931 
 561   0.0000       3.952417       107.5507 
 562   0.0000       3.961368       107.7943 
 563   0.0000       3.973490       108.1242 
 564   0.0000       3.982409       108.3669 
 565   0.0000       3.990513       108.5874 
 566   0.0000       4.000766       108.8664 
 567   0.0000       4.004437       108.9663 
 568   0.0000       4.017648       109.3258 
 569   0.0000       4.026098       109.5557 
 570   0.0000       4.027776       109.6014 
 571   0.0000       4.030948       109.6877 
 572   0.0000       4.039991       109.9338 
 573   0.0000       4.055799       110.3639 
 574   0.0000       4.062465       110.5453 
 575   0.0000       4.071047       110.7788 
 576   0.0000       4.079166       110.9997 
 577   0.0000       4.084563       111.1466 
 578   0.0000       4.088853       111.2634 
 579   0.0000       4.096062       111.4595 
 580   0.0000       4.112057       111.8947 
 581   0.0000       4.119850       112.1068 
 582   0.0000       4.128871       112.3523 
 583   0.0000       4.140922       112.6802 
 584   0.0000       4.142854       112.7328 
 585   0.0000       4.152567       112.9971 
 586   0.0000       4.157173       113.1224 
 587   0.0000       4.161939       113.2521 
 588   0.0000       4.169166       113.4488 
 589   0.0000       4.176140       113.6385 
 590   0.0000       4.180248       113.7503 
 591   0.0000       4.194148       114.1286 
 592   0.0000       4.200087       114.2902 
 593   0.0000       4.210793       114.5815 
 594   0.0000       4.216515       114.7372 
 595   0.0000       4.223792       114.9352 
 596   0.0000       4.229002       115.0770 
 597   0.0000       4.234615       115.2297 
 598   0.0000       4.241058       115.4051 
 599   0.0000       4.256272       115.8190 
 600   0.0000       4.260606       115.9370 
 601   0.0000       4.273619       116.2911 
 602   0.0000       4.275384       116.3391 
 603   0.0000       4.286871       116.6517 
 604   0.0000       4.293439       116.8304 
 605   0.0000       4.302671       117.0816 
 606   0.0000       4.305933       117.1704 
 607   0.0000       4.321638       117.5977 
 608   0.0000       4.324827       117.6845 
 609   0.0000       4.329454       117.8104 
 610   0.0000       4.347348       118.2974 
 611   0.0000       4.356485       118.5460 
 612   0.0000       4.367906       118.8568 
 613   0.0000       4.369685       118.9052 
 614   0.0000       4.376596       119.0932 
 615   0.0000       4.380031       119.1867 
 616   0.0000       4.393536       119.5542 
 617   0.0000       4.407158       119.9249 
 618   0.0000       4.422033       120.3296 
 619   0.0000       4.423702       120.3751 
 620   0.0000       4.432589       120.6169 
 621   0.0000       4.435134       120.6861 
 622   0.0000       4.442319       120.8816 
 623   0.0000       4.451853       121.1411 
 624   0.0000       4.459645       121.3531 
 625   0.0000       4.465072       121.5008 
 626   0.0000       4.469584       121.6236 
 627   0.0000       4.485297       122.0511 
 628   0.0000       4.491002       122.2064 
 629   0.0000       4.504730       122.5799 
 630   0.0000       4.511262       122.7577 
 631   0.0000       4.518350       122.9506 
 632   0.0000       4.520132       122.9991 
 633   0.0000       4.530370       123.2776 
 634   0.0000       4.536004       123.4309 
 635   0.0000       4.552462       123.8788 
 636   0.0000       4.568580       124.3174 
 637   0.0000       4.575260       124.4991 
 638   0.0000       4.582788       124.7040 
 639   0.0000       4.589514       124.8870 
 640   0.0000       4.596818       125.0858 
 641   0.0000       4.600369       125.1824 
 642   0.0000       4.604028       125.2820 
 643   0.0000       4.618223       125.6682 
 644   0.0000       4.620151       125.7207 
 645   0.0000       4.628208       125.9399 
 646   0.0000       4.636092       126.1545 
 647   0.0000       4.639457       126.2460 
 648   0.0000       4.652828       126.6099 
 649   0.0000       4.659919       126.8028 
 650   0.0000       4.662879       126.8834 
 651   0.0000       4.677997       127.2948 
 652   0.0000       4.678614       127.3116 
 653   0.0000       4.685796       127.5070 
 654   0.0000       4.701667       127.9389 
 655   0.0000       4.710422       128.1771 
 656   0.0000       4.720289       128.4456 
 657   0.0000       4.730074       128.7119 
 658   0.0000       4.733610       128.8081 
 659   0.0000       4.740494       128.9954 
 660   0.0000       4.758394       129.4825 
 661   0.0000       4.770489       129.8116 
 662   0.0000       4.790491       130.3559 
 663   0.0000       4.802591       130.6852 
 664   0.0000       4.822876       131.2371 
 665   0.0000       4.832668       131.5036 
 666   0.0000       4.859524       132.2344 
 667   0.0000       4.863314       132.3375 
 668   0.0000       4.882769       132.8669 
 669   0.0000       4.900771       133.3568 
 670   0.0000       4.905413       133.4831 
 671   0.0000       4.925935       134.0415 
 672   0.0000       4.944450       134.5453 
 673   0.0000       4.948468       134.6547 
 674   0.0000       4.962210       135.0286 
 675   0.0000       4.995248       135.9276 
 676   0.0000       5.008220       136.2806 
 677   0.0000       5.019598       136.5902 
 678   0.0000       5.034983       137.0089 
 679   0.0000       5.042889       137.2240 
 680   0.0000       5.051920       137.4697 
 681   0.0000       5.066283       137.8606 
 682   0.0000       5.073393       138.0540 
 683   0.0000       5.092175       138.5651 
 684   0.0000       5.102773       138.8535 
 685   0.0000       5.109209       139.0286 
 686   0.0000       5.122217       139.3826 
 687   0.0000       5.130321       139.6031 
 688   0.0000       5.138773       139.8331 
 689   0.0000       5.152375       140.2033 
 690   0.0000       5.171005       140.7102 
 691   0.0000       5.188844       141.1956 
 692   0.0000       5.196107       141.3933 
 693   0.0000       5.200228       141.5054 
 694   0.0000       5.215634       141.9246 
 695   0.0000       5.218331       141.9980 
 696   0.0000       5.234295       142.4324 
 697   0.0000       5.249132       142.8361 
 698   0.0000       5.254957       142.9946 
 699   0.0000       5.257199       143.0557 
 700   0.0000       5.267482       143.3355 
 701   0.0000       5.279113       143.6520 
 702   0.0000       5.290116       143.9514 
 703   0.0000       5.305852       144.3796 
 704   0.0000       5.324141       144.8772 
 705   0.0000       5.332395       145.1018 
 706   0.0000       5.353023       145.6632 
 707   0.0000       5.357611       145.7880 
 708   0.0000       5.361639       145.8976 
 709   0.0000       5.380008       146.3975 
 710   0.0000       5.396488       146.8459 
 711   0.0000       5.420198       147.4911 
 712   0.0000       5.440565       148.0453 
 713   0.0000       5.460914       148.5990 
 714   0.0000       5.469682       148.8376 
 715   0.0000       5.479594       149.1073 
 716   0.0000       5.489223       149.3694 
 717   0.0000       5.500320       149.6713 
 718   0.0000       5.508413       149.8915 
 719   0.0000       5.530629       150.4961 
 720   0.0000       5.531510       150.5200 
 721   0.0000       5.538167       150.7012 
 722   0.0000       5.566341       151.4678 
 723   0.0000       5.570988       151.5943 
 724   0.0000       5.580064       151.8413 
 725   0.0000       5.598268       152.3366 
 726   0.0000       5.610956       152.6819 
 727   0.0000       5.618824       152.8960 
 728   0.0000       5.637473       153.4034 
 729   0.0000       5.644382       153.5914 
 730   0.0000       5.651723       153.7912 
 731   0.0000       5.663291       154.1060 
 732   0.0000       5.675173       154.4293 
 733   0.0000       5.686345       154.7333 
 734   0.0000       5.694497       154.9551 
 735   0.0000       5.703578       155.2022 
 736   0.0000       5.724561       155.7732 
 737   0.0000       5.732634       155.9929 
 738   0.0000       5.745454       156.3417 
 739   0.0000       5.750333       156.4745 
 740   0.0000       5.769591       156.9986 
 741   0.0000       5.782325       157.3451 
 742   0.0000       5.794456       157.6752 
 743   0.0000       5.805925       157.9873 
 744   0.0000       5.816692       158.2802 
 745   0.0000       5.847776       159.1261 
 746   0.0000       5.862454       159.5255 
 747   0.0000       5.869948       159.7294 
 748   0.0000       5.897308       160.4739 
 749   0.0000       5.902864       160.6251 
 750   0.0000       5.933951       161.4710 
 751   0.0000       5.963072       162.2634 
 752   0.0000       5.968263       162.4047 
 753   0.0000       5.994508       163.1189 
 754   0.0000       6.001145       163.2995 
 755   0.0000       6.016468       163.7164 
 756   0.0000       6.046996       164.5471 
 757   0.0000       6.057835       164.8421 
 758   0.0000       6.066603       165.0807 
 759   0.0000       6.074708       165.3012 
 760   0.0000       6.108006       166.2073 
 761   0.0000       6.163350       167.7133 
 762   0.0000       6.225270       169.3982 
 763   0.0000       6.234876       169.6596 
 764   0.0000       6.271342       170.6519 
 765   0.0000       6.291323       171.1956 
 766   0.0000       6.298983       171.4040 
 767   0.0000       6.339314       172.5015 
 768   0.0000       6.350192       172.7975 
 769   0.0000       6.378389       173.5648 
 770   0.0000       6.397031       174.0721 
 771   0.0000       6.397643       174.0887 
 772   0.0000       6.409406       174.4088 
 773   0.0000       6.439320       175.2228 
 774   0.0000       6.458605       175.7476 
 775   0.0000       6.495759       176.7586 
 776   0.0000       6.505777       177.0312 
 777   0.0000       6.545527       178.1128 
 778   0.0000       6.555564       178.3860 
 779   0.0000       6.626741       180.3228 
 780   0.0000       6.660838       181.2506 
 781   0.0000       6.688888       182.0139 
 782   0.0000       6.729323       183.1142 
 783   0.0000       6.771321       184.2570 
 784   0.0000       6.822337       185.6452 
 785   0.0000       6.843952       186.2334 
 786   0.0000       6.903014       187.8406 
 787   0.0000       6.917330       188.2301 
 788   0.0000       6.963856       189.4961 
 789   0.0000       6.981481       189.9758 
 790   0.0000       7.048453       191.7982 
 791   0.0000       7.068755       192.3506 
 792   0.0000       7.078523       192.6164 
 793   0.0000       7.141420       194.3279 
 794   0.0000       7.212342       196.2578 
 795   0.0000       7.244472       197.1321 
 796   0.0000       7.254667       197.4095 
 797   0.0000       7.277768       198.0381 
 798   0.0000       7.338352       199.6867 
 799   0.0000       7.351512       200.0448 
 800   0.0000       7.396185       201.2604 
 801   0.0000       7.488383       203.7693 
 802   0.0000       7.568227       205.9419 
 803   0.0000       7.583302       206.3521 
 804   0.0000       7.599045       206.7805 
 805   0.0000       7.767252       211.3577 
 806   0.0000       7.817056       212.7129 
 807   0.0000       7.929243       215.7657 
 808   0.0000       8.055372       219.1978 
 809   0.0000       9.491708       258.2825 
 810   0.0000       9.726467       264.6706 
 811   0.0000      10.800450       293.8952 
 812   0.0000      11.173105       304.0356 
 813   0.0000      12.086190       328.8820 
 814   0.0000      12.578245       342.2714 
 815   0.0000      12.884285       350.5992 
 816   0.0000      13.013751       354.1222 
 817   0.0000      13.094543       356.3206 
 818   0.0000      13.277645       361.3031 
 819   0.0000      13.419172       365.1542 
 820   0.0000      13.508086       367.5737 
 821   0.0000      13.763432       374.5220 
 822   0.0000      13.941735       379.3739 
 823   0.0000      14.074913       382.9979 
 824   0.0000      14.200590       386.4177 
 825   0.0000      14.540952       395.6794 
 826   0.0000      14.770573       401.9277 
 827   0.0000      15.950987       434.0484 

                    ********************************
                    * MULLIKEN POPULATION ANALYSIS *
                    ********************************

-----------------------
MULLIKEN ATOMIC CHARGES
-----------------------
   0 C :   -0.320781
   1 C :    0.035817
   2 O :   -0.327523
   3 C :    0.394562
   4 O :   -0.376473
   5 C :   -0.164870
   6 C :    0.109905
   7 C :   -0.327015
   8 N :   -0.137347
   9 C :    0.208071
  10 S :   -0.442287
  11 N :   -0.227698
  12 C :    0.087611
  13 C :   -0.001366
  14 C :   -0.202239
  15 C :   -0.137295
  16 C :   -0.271032
  17 C :    0.311428
  18 O :   -0.356239
  19 C :   -0.256947
  20 H :    0.096170
  21 H :    0.120518
  22 H :    0.105687
  23 H :    0.106484
  24 H :    0.124512
  25 H :    0.121207
  26 H :    0.150380
  27 H :    0.119582
  28 H :    0.196846
  29 H :    0.202830
  30 H :    0.165721
  31 H :    0.172115
  32 H :    0.165625
  33 H :    0.134189
  34 H :    0.241703
  35 H :    0.178148
Sum of atomic charges:    0.0000000

--------------------------------
MULLIKEN REDUCED ORBITAL CHARGES
--------------------------------
  0 C s       :     3.265458  s :     3.265458
      pz      :     1.011877  p :     2.974866
      px      :     0.998528
      py      :     0.964461
      dz2     :     0.020940  d :     0.076022
      dxz     :     0.007062
      dyz     :     0.013968
      dx2y2   :     0.019264
      dxy     :     0.014788
      f0      :     0.001244  f :     0.004436
      f+1     :     0.000250
      f-1     :     0.000488
      f+2     :     0.000133
      f-2     :     0.000514
      f+3     :     0.001039
      f-3     :     0.000768
  1 C s       :     3.174810  s :     3.174810
      pz      :     0.883769  p :     2.623821
      px      :     0.736463
      py      :     1.003589
      dz2     :     0.036243  d :     0.154052
      dxz     :     0.031346
      dyz     :     0.015321
      dx2y2   :     0.032820
      dxy     :     0.038321
      f0      :     0.001517  f :     0.011501
      f+1     :     0.002561
      f-1     :     0.000460
      f+2     :     0.001594
      f-2     :     0.001872
      f+3     :     0.001923
      f-3     :     0.001574
  2 O s       :     3.720486  s :     3.720486
      pz      :     1.645636  p :     4.572237
      px      :     1.267050
      py      :     1.659551
      dz2     :     0.005195  d :     0.032514
      dxz     :     0.009481
      dyz     :     0.002949
      dx2y2   :     0.004662
      dxy     :     0.010227
      f0      :     0.000215  f :     0.002285
      f+1     :     0.000326
      f-1     :     0.000089
      f+2     :     0.000358
      f-2     :     0.000270
      f+3     :     0.000424
      f-3     :     0.000604
[...]
 15 C s       :     2.705773  s :     2.705773
      pz      :     0.900914  p :     2.790403
      px      :     0.913429
      py      :     0.976060
      dz2     :     0.095785  d :     0.416339
      dxz     :     0.062631
      dyz     :     0.069164
      dx2y2   :     0.099467
      dxy     :     0.089291
      f0      :     0.003526  f :     0.041113
      f+1     :     0.004920
      f-1     :     0.006638
      f+2     :     0.006142
      f-2     :     0.007374
      f+3     :     0.005895
      f-3     :     0.006618
 16 C s       :     2.701745  s :     2.701745
      pz      :     0.943255  p :     2.867884
      px      :     0.954882
      py      :     0.969747
      dz2     :     0.052118  d :     0.390179
      dxz     :     0.052128
      dyz     :     0.095725
      dx2y2   :     0.088139
      dxy     :     0.102069
      f0      :     0.005286  f :     0.040305
      f+1     :     0.004485
      f-1     :     0.003528
      f+2     :     0.005502
      f-2     :     0.006861
      f+3     :     0.007170
      f-3     :     0.007472
 17 C s       :     2.701684  s :     2.701684
      pz      :     0.825172  p :     2.682661
      px      :     0.816765
      py      :     1.040724
      dz2     :     0.137029  d :     0.710004
      dxz     :     0.109785
      dyz     :     0.146819
      dx2y2   :     0.159518
      dxy     :     0.156853
      f0      :     0.011645  f :     0.099361
      f+1     :     0.015491
      f-1     :     0.010579
      f+2     :     0.014069
      f-2     :     0.017564
      f+3     :     0.012922
      f-3     :     0.017091
 18 O s       :     3.177225  s :     3.177225
      pz      :     1.430701  p :     4.345785
      px      :     1.452914
      py      :     1.462171
      dz2     :     0.010443  d :     0.075527
      dxz     :     0.018284
      dyz     :     0.017172
      dx2y2   :     0.017619
      dxy     :     0.012009
      f0      :     0.000623  f :     0.005063
      f+1     :     0.000831
      f-1     :     0.000343
      f+2     :     0.000957
      f-2     :     0.000899
      f+3     :     0.000597
      f-3     :     0.000812
 19 C s       :     2.696357  s :     2.696357
      pz      :     0.936918  p :     2.850494
      px      :     0.942673
      py      :     0.970904
      dz2     :     0.076249  d :     0.387666
      dxz     :     0.060536
      dyz     :     0.071938
      dx2y2   :     0.087705
      dxy     :     0.091238
      f0      :     0.003555  f :     0.040645
      f+1     :     0.004961
      f-1     :     0.006026
      f+2     :     0.006356
      f-2     :     0.007781
      f+3     :     0.005996
      f-3     :     0.005970
 20 H s       :     0.849176  s :     0.849176
      pz      :     0.047813  p :     0.156725
      px      :     0.044322
      py      :     0.064590
      dz2     :     0.005948  d :     0.028151
      dxz     :     0.002061
      dyz     :     0.006887
      dx2y2   :     0.006298
      dxy     :     0.006957
 21 H s       :     0.843287  s :     0.843287
      pz      :     0.042428  p :     0.151220
      px      :     0.068461
      py      :     0.040331
      dz2     :     0.003790  d :     0.027531
      dxz     :     0.007677
      dyz     :     0.000986
      dx2y2   :     0.006953
      dxy     :     0.008125
 22 H s       :     0.848272  s :     0.848272
      pz      :     0.072866  p :     0.151035
      px      :     0.038350
      py      :     0.039819
      dz2     :     0.009004  d :     0.027739
      dxz     :     0.008900
      dyz     :     0.009122
      dx2y2   :     0.000240
      dxy     :     0.000473
 23 H s       :     0.847708  s :     0.847708
      pz      :     0.084700  p :     0.157817
      px      :     0.031775
      py      :     0.041342
      dz2     :     0.010118  d :     0.027392
      dxz     :     0.006918
      dyz     :     0.009126
      dx2y2   :     0.000215
      dxy     :     0.001016
 24 H s       :     0.847717  s :     0.847717
      pz      :     0.035744  p :     0.144535
      px      :     0.038892
      py      :     0.069899
      dz2     :     0.003318  d :     0.027155
      dxz     :     0.002579
      dyz     :     0.005608
      dx2y2   :     0.007875
      dxy     :     0.007776
 25 H s       :     0.832878  s :     0.832878
      pz      :     0.049612  p :     0.149634
      px      :     0.039536
      py      :     0.060486
      dz2     :     0.006449  d :     0.027617
      dxz     :     0.003420
      dyz     :     0.007163
      dx2y2   :     0.004313
      dxy     :     0.006272
 26 H s       :     0.830144  s :     0.830144
      pz      :     0.044695  p :     0.151007
      px      :     0.051034
      py      :     0.055278
      dz2     :     0.004711  d :     0.027584
      dxz     :     0.004505
      dyz     :     0.005375
      dx2y2   :     0.007438
      dxy     :     0.005555
 27 H s       :     0.837376  s :     0.837376
      pz      :     0.036800  p :     0.151662
      px      :     0.068459
      py      :     0.046403
      dz2     :     0.002356  d :     0.027728
      dxz     :     0.007029
      dyz     :     0.001996
      dx2y2   :     0.008222
      dxy     :     0.008126
 28 H s       :     0.742378  s :     0.742378
      pz      :     0.054099  p :     0.253544
      px      :     0.090899
      py      :     0.108546
      dz2     :     0.006810  d :     0.061652
      dxz     :     0.003431
      dyz     :     0.015329
      dx2y2   :     0.017596
      dxy     :     0.018487
 29 H s       :     0.747729  s :     0.747729
      pz      :     0.116836  p :     0.254866
      px      :     0.093426
      py      :     0.044603
      dz2     :     0.022069  d :     0.061459
      dxz     :     0.017902
      dyz     :     0.012547
      dx2y2   :     0.005404
      dxy     :     0.003537
 30 H s       :     0.824552  s :     0.824552
      pz      :     0.038903  p :     0.149502
      px      :     0.075845
      py      :     0.034754
      dz2     :     0.002926  d :     0.028462
      dxz     :     0.008521
      dyz     :     0.001586
      dx2y2   :     0.007934
      dxy     :     0.007496
 31 H s       :     0.836705  s :     0.836705
      pz      :     0.060610  p :     0.157146
      px      :     0.063553
      py      :     0.032983
      dz2     :     0.006350  d :     0.027390
      dxz     :     0.007271
      dyz     :     0.004052
      dx2y2   :     0.004715
      dxy     :     0.005003
 32 H s       :     0.840527  s :     0.840527
      pz      :     0.036709  p :     0.150540
      px      :     0.040821
      py      :     0.073011
      dz2     :     0.002743  d :     0.026382
      dxz     :     0.001114
      dyz     :     0.006951
      dx2y2   :     0.007853
      dxy     :     0.007720
 33 H s       :     0.847610  s :     0.847610
      pz      :     0.053022  p :     0.158698
      px      :     0.046546
      py      :     0.059129
      dz2     :     0.005307  d :     0.027719
      dxz     :     0.003591
      dyz     :     0.006585
      dx2y2   :     0.006292
      dxy     :     0.005944
 34 H s       :     0.705752  s :     0.705752
      pz      :     0.101107  p :     0.347273
      px      :     0.085669
      py      :     0.160497
      dz2     :     0.018928  d :     0.099431
      dxz     :     0.008065
      dyz     :     0.025859
      dx2y2   :     0.022792
      dxy     :     0.023788
 35 H s       :     0.836092  s :     0.836092
      pz      :     0.041151  p :     0.159873
      px      :     0.044031
      py      :     0.074691
      dz2     :     0.002768  d :     0.028046
      dxz     :     0.001276
      dyz     :     0.007571
      dx2y2   :     0.008079
      dxy     :     0.008352


                      *****************************
                      * MAYER POPULATION ANALYSIS *
                      *****************************

  NA   - Mulliken gross atomic population
  ZA   - Total nuclear charge
  QA   - Mulliken gross atomic charge
  VA   - Mayer's total valence
  BVA  - Mayer's bonded valence
  FA   - Mayer's free valence

  ATOM       NA         ZA         QA         VA         BVA        FA
  0 C      6.3208     6.0000    -0.3208     3.8710     3.8710     0.0000
  1 C      5.9642     6.0000     0.0358     3.8459     3.8459     0.0000
  2 O      8.3275     8.0000    -0.3275     2.0484     2.0484    -0.0000
  3 C      5.6054     6.0000     0.3946     4.2526     4.2526    -0.0000
  4 O      8.3765     8.0000    -0.3765     2.1327     2.1327     0.0000
  5 C      6.1649     6.0000    -0.1649     3.5594     3.5594     0.0000
  6 C      5.8901     6.0000     0.1099     3.8182     3.8182     0.0000
  7 C      6.3270     6.0000    -0.3270     3.8810     3.8810     0.0000
  8 N      7.1373     7.0000    -0.1373     3.2516     3.2516     0.0000
  9 C      5.7919     6.0000     0.2081     4.1455     4.1455     0.0000
 10 S     16.4423    16.0000    -0.4423     1.7494     1.7494    -0.0000
 11 N      7.2277     7.0000    -0.2277     3.2504     3.2504     0.0000
 12 C      5.9124     6.0000     0.0876     3.9272     3.9272     0.0000
 13 C      6.0014     6.0000    -0.0014     3.7354     3.7354     0.0000
 14 C      6.2022     6.0000    -0.2022     3.8733     3.8733    -0.0000
 15 C      6.1373     6.0000    -0.1373     3.8159     3.8159     0.0000
 16 C      6.2710     6.0000    -0.2710     3.7844     3.7844     0.0000
 17 C      5.6886     6.0000     0.3114     3.8702     3.8702     0.0000
 18 O      8.3562     8.0000    -0.3562     2.1190     2.1190    -0.0000
 19 C      6.2569     6.0000    -0.2569     3.8072     3.8072     0.0000
 20 H      0.9038     1.0000     0.0962     0.9711     0.9711     0.0000
 21 H      0.8795     1.0000     0.1205     0.9817     0.9817     0.0000
 22 H      0.8943     1.0000     0.1057     0.9807     0.9807    -0.0000
 23 H      0.8935     1.0000     0.1065     0.9632     0.9632     0.0000
 24 H      0.8755     1.0000     0.1245     0.9766     0.9766    -0.0000
 25 H      0.8788     1.0000     0.1212     0.9869     0.9869     0.0000
 26 H      0.8496     1.0000     0.1504     0.9729     0.9729    -0.0000
 27 H      0.8804     1.0000     0.1196     0.9717     0.9717     0.0000
 28 H      0.8032     1.0000     0.1968     1.0210     1.0210    -0.0000
 29 H      0.7972     1.0000     0.2028     1.0129     1.0129    -0.0000
 30 H      0.8343     1.0000     0.1657     0.9899     0.9899     0.0000
 31 H      0.8279     1.0000     0.1721     0.9863     0.9863     0.0000
 32 H      0.8344     1.0000     0.1656     0.9762     0.9762    -0.0000
 33 H      0.8658     1.0000     0.1342     0.9903     0.9903    -0.0000
 34 H      0.7583     1.0000     0.2417     1.0099     1.0099    -0.0000
 35 H      0.8219     1.0000     0.1781     0.9874     0.9874     0.0000

  Mayer bond orders larger than 0.100000
B(  0-C ,  1-C ) :   0.9534 B(  0-C , 20-H ) :   0.9774 B(  0-C , 21-H ) :   0.9790 
B(  0-C , 22-H ) :   0.9743 B(  1-C ,  2-O ) :   0.8985 B(  1-C , 23-H ) :   0.9632 
B(  1-C , 24-H ) :   0.9872 B(  2-O ,  3-C ) :   1.1800 B(  3-C ,  4-O ) :   2.1025 
B(  3-C ,  5-C ) :   0.8976 B(  5-C ,  6-C ) :   1.7188 B(  5-C , 12-C ) :   0.9486 
B(  6-C ,  7-C ) :   0.9521 B(  6-C ,  8-N ) :   1.0954 B(  7-C , 25-H ) :   0.9804 
B(  7-C , 26-H ) :   0.9656 B(  7-C , 27-H ) :   0.9675 B(  8-N ,  9-C ) :   1.2020 
B(  8-N , 28-H ) :   0.9514 B(  9-C , 10-S ) :   1.6081 B(  9-C , 11-N ) :   1.2854 
B( 11-N , 12-C ) :   0.9905 B( 11-N , 29-H ) :   0.9463 B( 12-C , 13-C ) :   0.9516 
B( 12-C , 30-H ) :   0.9961 B( 13-C , 14-C ) :   1.3929 B( 13-C , 19-C ) :   1.3407 
B( 14-C , 15-C ) :   1.3978 B( 14-C , 31-H ) :   0.9605 B( 15-C , 16-C ) :   1.3616 
B( 15-C , 32-H ) :   0.9692 B( 16-C , 17-C ) :   1.3295 B( 16-C , 33-H ) :   0.9839 
B( 17-C , 18-O ) :   1.1113 B( 17-C , 19-C ) :   1.3658 B( 18-O , 34-H ) :   0.9788 
B( 19-C , 35-H ) :   0.9590 

-------
TIMINGS
-------

Total SCF time: 0 days 1 hours 33 min 32 sec 

Total time                  ....    5612.550 sec
Sum of individual times     ....    5604.574 sec  ( 99.9%)

Fock matrix formation       ....    5590.117 sec  ( 99.6%)
Diagonalization             ....       1.319 sec  (  0.0%)
Density matrix formation    ....       0.170 sec  (  0.0%)
Population analysis         ....       0.383 sec  (  0.0%)
Initial guess               ....       5.308 sec  (  0.1%)
Orbital Transformation      ....       0.000 sec  (  0.0%)
Orbital Orthonormalization  ....       0.000 sec  (  0.0%)
DIIS solution               ....       4.058 sec  (  0.1%)
SOSCF solution              ....       1.810 sec  (  0.0%)

Maximum memory used throughout the entire SCF-calculation: 759.9 MB

------------------------------------------------------------------------------
                                ORCA  MP2 
------------------------------------------------------------------------------

Freezing NCore=48 chemical core electrons

-------------
RI-MP2 ENERGY
-------------
Dimension of the basis                    ...  828
Memory devoted to MP2                     ...  256 MB   
Data format for buffers                   ... DOUBLE
Compression type for matrix containers    ... UNCOMPRESSED
Overall scaling of the MP2 energy         ...   1.000e+00
Calculating two index integrals           ... done (    0.038 sec)
Cholesky decomposition of V**-1           ... done (    0.477 sec)

-----------------
RI-TRANSFORMATION (AUX index driven)
-----------------

Dimension of the orbital-basis         ... 828
Dimension of the aux-basis             ... 2141
Transformation of internal/external MOs...   24-  76 to   77- 827
Number Format for Storage              ... Double (8 Byte)
Integral mode                          ... Direct

First Phase: integral generation and transformation of MO indices
  Aux angular momentum 0               ... done (    4.816 sec)
  Aux angular momentum 1               ... done (    7.485 sec)
  Aux angular momentum 2               ... done (    9.220 sec)
  Aux angular momentum 3               ... done (    7.402 sec)
  Aux angular momentum 4               ... done (    2.608 sec)
Closing buffer VIA ( 0.63 GB; CompressionRatio= 1.00)
  Phase 1 completed in    31.802 sec
Second Phase: sorting and transformation of aux index

IA-Transformation
Memory available                       ... 156 MB 
Max. # MO pairs treated in a batch     ... 11    
# of internal orbitals                 ... 53
# batches for internal orbitals        ... 5
Closing buffer IAV ( 0.63 GB; CompressionRatio= 1.00)
(ia|v) transformation done in    30.064 sec

  Phase 2 completed in    30.074 sec
RI-Integral transformation completed in    61.889 sec
Opening buffers                              ... done

Starting loop over batches of integrals:

Operator 0  - window                       ... ( 24- 76)x( 77-827)
Operator 0  - Memory available             ...   256 MB
Operator 0  - Memory needed per MO         ...  12.3 MB
Operator 0  - Number of orbitals per batch ... 13
Operator 0  - Number of batches            ... 5

OPERATOR  0   PASS   0:  MOs    24 ...   36
  Reading integrals       ... ok
  Internal MO  26
  Internal MO  29
  Internal MO  32
  Internal MO  35
OPERATOR  0   PASS   1:  MOs    37 ...   49
  Reading integrals       ... ok
  Internal MO  38
  Internal MO  41
  Internal MO  44
  Internal MO  47
OPERATOR  0   PASS   2:  MOs    50 ...   62
  Reading integrals       ... ok
  Internal MO  50
  Internal MO  53
  Internal MO  56
  Internal MO  59
  Internal MO  62
OPERATOR  0   PASS   3:  MOs    63 ...   75
  Reading integrals       ... ok
  Internal MO  65
  Internal MO  68
  Internal MO  71
  Internal MO  74
OPERATOR  0   PASS   4:  MOs    76 ...   76
  Reading integrals       ... ok
Time spent in pair loops =   105.135 sec
Deleting buffer (Ka|jb)[aa] ...done

-----------------------------------------------
 RI-MP2 CORRELATION ENERGY:     -3.540482762 Eh
-----------------------------------------------


-------
TIMINGS
-------

Total time                :  167.687 sec
Integral trafo            :   61.902 sec ( 36.9%)
I/O of integrals          :    4.030 sec (  2.4%)
K(i,j) Operators          :   78.390 sec ( 46.7%)
T(i,j) pair energies      :    2.835 sec (  1.7%)
V-calculation             :    0.038 sec (  0.0%)
V**(-1/2)                 :    0.477 sec (  0.3%)
Gamma(ia|P)               :    0.000 sec (  0.0%)
Gamma-Trafo               :    0.000 sec (  0.0%)
D(virtual)                :    0.000 sec (  0.0%)
D(internal)               :    0.000 sec (  0.0%)
W(virtual)                :    0.000 sec (  0.0%)
W(internal)               :    0.000 sec (  0.0%)
L(virtual)                :    0.000 sec (  0.0%)
L(internal)               :    0.000 sec (  0.0%)
G(D)                      :    0.000 sec (  0.0%)
G(Z)                      :    0.000 sec (  0.0%)
Z-Vector Solution         :    0.000 sec (  0.0%)
3-Index Derivative        :    0.000 sec (  0.0%)
2-Index Derivative        :    0.000 sec (  0.0%)
Separable Gradient        :    0.000 sec (  0.0%)


---------------------------------------
MP2 TOTAL ENERGY:    -1274.327574337 Eh
---------------------------------------

Maximum memory used throughout the entire MP2-calculation: 305.9 MB

-------------------------   --------------------
FINAL SINGLE POINT ENERGY     -1274.327574337175
-------------------------   --------------------


                            ***************************************
                            *     ORCA property calculations      *
                            ***************************************


  WARNING: The energy has been calculated at the MP2 level but the densities
           used in the property calculations are still SCF densities
           MP2 response densities have not been calculated 
           use %mp2 Density relaxed end
           or  %mp2 Density unrelaxed end

                                    ---------------------
                                    Active property flags
                                    ---------------------
   (+) Dipole Moment


------------------------------------------------------------------------------
                       ORCA ELECTRIC PROPERTIES CALCULATION
------------------------------------------------------------------------------

Dipole Moment Calculation                       ... on
Quadrupole Moment Calculation                   ... off
Polarizability Calculation                      ... off
GBWName                                         ... CONFS/Conf697.orca.gbw
Electron density file                           ... CONFS/Conf697.orca.scfp
The origin for moment calculation is the CENTER OF MASS  = (32.792500, 31.253255 35.263604)

-------------
DIPOLE MOMENT
-------------
                                X             Y             Z
Electronic contribution:     10.06534       4.97321       7.01951
Nuclear contribution   :    -11.54721      -6.23011      -7.24736
                        -----------------------------------------
Total Dipole Moment    :     -1.48186      -1.25690      -0.22785
                        -----------------------------------------
Magnitude (a.u.)       :      1.95643
Magnitude (Debye)      :      4.97285



--------------------
Rotational spectrum 
--------------------
 
Rotational constants in cm-1:     0.011964     0.009278     0.006816 
Rotational constants in MHz :   358.673462   278.152856   204.325448 

 Dipole components along the rotational axes: 
x,y,z [a.u.] :    -1.386878    -0.714072     1.180802 
x,y,z [Debye]:    -3.525164    -1.815028     3.001361 

 

Timings for individual modules:

Sum of individual times         ...     5785.314 sec (=  96.422 min)
GTO integral calculation        ...        3.806 sec (=   0.063 min)   0.1 %
SCF iterations                  ...     5612.731 sec (=  93.546 min)  97.0 %
MP2 module                      ...      168.777 sec (=   2.813 min)   2.9 %
                             ****ORCA TERMINATED NORMALLY****
TOTAL RUN TIME: 0 days 1 hours 36 minutes 26 seconds 800 msec
