
                                        *****************
                                        * O   R   C   A *
                                        *****************

                                            #,                                       
                                            ###                                      
                                            ####                                     
                                            #####                                    
                                            ######                                   
                                           ########,                                 
                                     ,,################,,,,,                         
                               ,,#################################,,                 
                          ,,##########################################,,             
                       ,#########################################, ''#####,          
                    ,#############################################,,   '####,        
                  ,##################################################,,,,####,       
                ,###########''''           ''''###############################       
              ,#####''   ,,,,##########,,,,          '''####'''          '####       
            ,##' ,,,,###########################,,,                        '##       
           ' ,,###''''                  '''############,,,                           
         ,,##''                                '''############,,,,        ,,,,,,###''
      ,#''                                            '''#######################'''  
     '                                                          ''''####''''         
             ,#######,   #######,   ,#######,      ##                                
            ,#'     '#,  ##    ##  ,#'     '#,    #''#        ######   ,####,        
            ##       ##  ##   ,#'  ##            #'  '#       #        #'  '#        
            ##       ##  #######   ##           ,######,      #####,   #    #        
            '#,     ,#'  ##    ##  '#,     ,#' ,#      #,         ##   #,  ,#        
             '#######'   ##     ##  '#######'  #'      '#     #####' # '####'        



                  #######################################################
                  #                        -***-                        #
                  #          Department of theory and spectroscopy      #
                  #    Directorship and core code : Frank Neese         #
                  #        Max Planck Institute fuer Kohlenforschung    #
                  #                Kaiser Wilhelm Platz 1               #
                  #                 D-45470 Muelheim/Ruhr               #
                  #                      Germany                        #
                  #                                                     #
                  #                  All rights reserved                #
                  #                        -***-                        #
                  #######################################################


                         Program Version 5.0.0 -  RELEASE  -
                                (SVN: $Rev: 19529$)
                ($Date: 2021-06-28 11:36:33 +0200 (Mo, 28 Jun 2021) $)


 With contributions from (in alphabetic order):
   Daniel Aravena         : Magnetic Suceptibility
   Michael Atanasov       : Ab Initio Ligand Field Theory (pilot matlab implementation)
   Alexander A. Auer      : GIAO ZORA, VPT2 properties, NMR spectrum
   Ute Becker             : Parallelization
   Giovanni Bistoni       : ED, misc. LED, open-shell LED, HFLD
   Martin Brehm           : Molecular dynamics
   Dmytro Bykov           : SCF Hessian
   Vijay G. Chilkuri      : MRCI spin determinant printing, contributions to CSF-ICE
   Dipayan Datta          : RHF DLPNO-CCSD density
   Achintya Kumar Dutta   : EOM-CC, STEOM-CC
   Dmitry Ganyushin       : Spin-Orbit,Spin-Spin,Magnetic field MRCI
   Miquel Garcia          : C-PCM Hessian, Gaussian charge scheme
   Yang Guo               : DLPNO-NEVPT2, F12-NEVPT2, CIM, IAO-localization
   Andreas Hansen         : Spin unrestricted coupled pair/coupled cluster methods
   Benjamin Helmich-Paris : MC-RPA, TRAH-SCF, COSX integrals
   Lee Huntington         : MR-EOM, pCC
   Robert Izsak           : Overlap fitted RIJCOSX, COSX-SCS-MP3, EOM
   Marcus Kettner         : VPT2
   Christian Kollmar      : KDIIS, OOCD, Brueckner-CCSD(T), CCSD density, CASPT2, CASPT2-K
   Simone Kossmann        : Meta GGA functionals, TD-DFT gradient, OOMP2, MP2 Hessian
   Martin Krupicka        : Initial AUTO-CI
   Lucas Lang             : DCDCAS
   Marvin Lechner         : AUTO-CI (C++ implementation), FIC-MRCC
   Dagmar Lenk            : GEPOL surface, SMD
   Dimitrios Liakos       : Extrapolation schemes; Compound Job, initial MDCI parallelization
   Dimitrios Manganas     : Further ROCIS development; embedding schemes
   Dimitrios Pantazis     : SARC Basis sets
   Anastasios Papadopoulos: AUTO-CI, single reference methods and gradients
   Taras Petrenko         : DFT Hessian,TD-DFT gradient, ASA, ECA, R-Raman, ABS, FL, XAS/XES, NRVS
   Peter Pinski           : DLPNO-MP2, DLPNO-MP2 Gradient
   Christoph Reimann      : Effective Core Potentials
   Marius Retegan         : Local ZFS, SOC
   Christoph Riplinger    : Optimizer, TS searches, QM/MM, DLPNO-CCSD(T), (RO)-DLPNO pert. Triples
   Tobias Risthaus        : Range-separated hybrids, TD-DFT gradient, RPA, STAB
   Michael Roemelt        : Original ROCIS implementation
   Masaaki Saitow         : Open-shell DLPNO-CCSD energy and density
   Barbara Sandhoefer     : DKH picture change effects
   Avijit Sen             : IP-ROCIS
   Kantharuban Sivalingam : CASSCF convergence, NEVPT2, FIC-MRCI
   Bernardo de Souza      : ESD, SOC TD-DFT
   Georgi Stoychev        : AutoAux, RI-MP2 NMR
   Willem Van den Heuvel  : Paramagnetic NMR
   Boris Wezisla          : Elementary symmetry handling
   Frank Wennmohs         : Technical directorship


 We gratefully acknowledge several colleagues who have allowed us to
 interface, adapt or use parts of their codes:
   Stefan Grimme, W. Hujo, H. Kruse, P. Pracht,  : VdW corrections, initial TS optimization,
                  C. Bannwarth, S. Ehlert          DFT functionals, gCP, sTDA/sTD-DF
   Ed Valeev, F. Pavosevic, A. Kumar             : LibInt (2-el integral package), F12 methods
   Garnet Chan, S. Sharma, J. Yang, R. Olivares  : DMRG
   Ulf Ekstrom                                   : XCFun DFT Library
   Mihaly Kallay                                 : mrcc  (arbitrary order and MRCC methods)
   Jiri Pittner, Ondrej Demel                    : Mk-CCSD
   Frank Weinhold                                : gennbo (NPA and NBO analysis)
   Christopher J. Cramer and Donald G. Truhlar   : smd solvation model
   Lars Goerigk                                  : TD-DFT with DH, B97 family of functionals
   V. Asgeirsson, H. Jonsson                     : NEB implementation
   FAccTs GmbH                                   : IRC, NEB, NEB-TS, DLPNO-Multilevel, CI-OPT
                                                   MM, QMMM, 2- and 3-layer-ONIOM, Crystal-QMMM,
                                                   LR-CPCM, SF, NACMEs, symmetry and pop. for TD-DFT,
                                                   nearIR, NL-DFT gradient (VV10), updates on ESD,
                                                   ML-optimized integration grids
   S Lehtola, MJT Oliveira, MAL Marques          : LibXC Library
   Liviu Ungur et al                             : ANISO software


 Your calculation uses the libint2 library for the computation of 2-el integrals
 For citations please refer to: http://libint.valeyev.net

 Your ORCA version has been built with support for libXC version: 5.1.0
 For citations please refer to: https://tddft.org/programs/libxc/

 This ORCA versions uses:
   CBLAS   interface :  Fast vector & matrix operations
   LAPACKE interface :  Fast linear algebra routines
   SCALAPACK package :  Parallel linear algebra routines
   Shared memory     :  Shared parallel matrices
   BLAS/LAPACK       :  OpenBLAS 0.3.15  USE64BITINT DYNAMIC_ARCH NO_AFFINITY SkylakeX SINGLE_THREADED
        Core in use  :  SkylakeX
   Copyright (c) 2011-2014, The OpenBLAS Project


================================================================================

----- Orbital basis set information -----
Your calculation utilizes the basis: cc-pVTZ 
       H, B-Ne : Obtained from the ccRepo (grant-hill.group.shef.ac.uk/ccrepo) Feb. 2017
                 T. H. Dunning, Jr., J. Chem. Phys. 90, 1007 (1989)
            He : Obtained from the ccRepo (grant-hill.group.shef.ac.uk/ccrepo) Feb. 2017
                 D. E. Woon, T. H. Dunning, Jr., J. Chem. Phys. 100, 2975 (1994)
  Li-Be, Na-Mg : Obtained from the ccRepo (grant-hill.group.shef.ac.uk/ccrepo) Feb. 2017
                 B. P. Prascher, D. E. Woon, K. A. Peterson, T. H. Dunning, Jr., A. K. Wilson, Theor. Chem. Acc. 128, 69 (2011)
         Al-Ar : Obtained from the ccRepo (grant-hill.group.shef.ac.uk/ccrepo) Feb. 2017
                 D. E. Woon, T. H. Dunning, Jr., J. Chem. Phys. 98, 1358 (1993)
            Ca : Obtained from the Peterson Research Group Website (tyr0.chem.wsu.edu/~kipeters) Feb. 2017
                 J. Koput, K. A. Peterson, J. Phys. Chem. 106, 9595 (2002)
         Sc-Zn : Obtained from the ccRepo (grant-hill.group.shef.ac.uk/ccrepo) Feb. 2017
                 N. B. Balabanov, K. A. Peterson, J. Chem. Phys. 123, 064107 (2005)
                 N. B. Balabanov, K. A. Peterson, J. Chem. Phys. 125, 074110 (2006)
         Ga-Kr : Obtained from the ccRepo (grant-hill.group.shef.ac.uk/ccrepo) Feb. 2017
                 A. K. Wilson, D. E. Woon, K. A. Peterson, T. H. Dunning, Jr., J. Chem. Phys. 110, 7667 (1999)
             Y : Obtained from the ccRepo (grant-hill.group.shef.ac.uk/ccrepo) Feb. 2017
                 K. A. Peterson, D. Figgen, M. Dolg, H. Stoll, J. Chem. Phys. 126, 124101 (2007)
        Ag, Au : Obtained from the Peterson Research Group Website (tyr0.chem.wsu.edu/~kipeters) Feb. 2017
                 K. A. Peterson, C. Puzzarini, Theor. Chem. Acc. 114, 283 (2005)

----- AuxC basis set information -----
Your calculation utilizes the auxiliary basis: cc-pVTZ/C 
  Obtained from the EMSL Basis Set Exchange (bse.pnl.gov) Feb. 2017
  H-He, B-F, Al-Ar, Ga-Kr : F. Weigend, A. Kohn, C. Hattig, J. Chem. Phys. 116, 3175 (2002)
             Li-Be, Na-Mg : C. Haettig, Phys. Chem. Chem. Phys. 7, 59 (2005)
                       Ne : C. Haettig, Phys. Chem. Chem. Phys. 7, 59 (2005)
                            F. Weigend, A. Kohn, C. Hattig, J. Chem. Phys. 116, 3175 (2002)
                    Sc-Zn : J. G. Hill, J. A. Platts, J. Chem. Phys. 128, 044104 (2008)

================================================================================
                                        WARNINGS
                       Please study these warnings very carefully!
================================================================================


WARNING: No MP2 level density has been requested!
         To caclulate MP2 level properties use
         %mp2 Density relaxed end
         or
         %mp2 Density unrelaxed end

WARNING: Post HF methods need fully converged wavefunctions
  ===> : Setting SCFConvForced true
         You can overwrite this default with %scf ConvForced false 


INFO   : the flag for use of the SHARK integral package has been found!

================================================================================
                                       INPUT FILE
================================================================================
NAME = CONFS/Conf479.orca
|  1> ! ri-mp2 cc-pvtz cc-pvtz/c TightSCF NoKeepInts
|  2> 
|  3> %scf
|  4>   MaxCore 4096
|  5> end
|  6> *xyz  0  1
|  7>     C       15.1088800   15.6152900   17.4050322
|  8>     C       15.5236936   15.2893214   15.9542118
|  9>     O       16.9512947   15.2206749   15.6910390
| 10>     C       18.0282367   15.5876809   16.4652008
| 11>     O       19.0022104   14.8583976   16.5068751
| 12>     C       17.9159398   16.7649282   17.3860259
| 13>     C       17.3752215   17.9501304   17.0084218
| 14>     C       16.7944577   18.3129691   15.6575713
| 15>     N       17.4112709   19.0418732   17.8795930
| 16>     C       18.1230753   19.0830538   19.0492621
| 17>     S       18.2036911   20.4540307   19.9701529
| 18>     N       18.7683180   17.9285365   19.4154809
| 19>     C       18.6249672   16.6243508   18.7383442
| 20>     C       17.9213062   15.6099490   19.6366092
| 21>     C       18.3546888   14.2713934   19.6598182
| 22>     C       17.7092109   13.3216729   20.4688482
| 23>     C       16.6186247   13.7117047   21.2640973
| 24>     C       16.1814069   15.0427302   21.2439194
| 25>     O       15.1214387   15.4203439   22.0018372
| 26>     C       16.8255243   15.9863543   20.4373559
| 27>     H       15.6613272   14.9879604   18.1138187
| 28>     H       14.0441783   15.3891110   17.5402786
| 29>     H       15.2383411   16.6688187   17.6657939
| 30>     H       15.0921905   14.3151960   15.6889860
| 31>     H       15.0652763   16.0242554   15.2811060
| 32>     H       17.1535636   17.6481134   14.8627542
| 33>     H       17.0853364   19.3286784   15.3605983
| 34>     H       15.6992670   18.2717143   15.6730911
| 35>     H       16.9593482   19.9043642   17.6195258
| 36>     H       19.2745959   17.9814534   20.2903731
| 37>     H       19.6392994   16.2460451   18.5424729
| 38>     H       19.1911633   13.9626883   19.0360356
| 39>     H       18.0535256   12.2888220   20.4729074
| 40>     H       16.1160186   12.9804925   21.8885420
| 41>     H       14.8471439   14.6500571   22.5220547
| 42>     H       16.4629672   17.0088437   20.4359652
| 43> *
| 44> 
| 45>                          ****END OF INPUT****
================================================================================

                       ****************************
                       * Single Point Calculation *
                       ****************************

---------------------------------
CARTESIAN COORDINATES (ANGSTROEM)
---------------------------------
  C     15.108880   15.615290   17.405032
  C     15.523694   15.289321   15.954212
  O     16.951295   15.220675   15.691039
  C     18.028237   15.587681   16.465201
  O     19.002210   14.858398   16.506875
  C     17.915940   16.764928   17.386026
  C     17.375221   17.950130   17.008422
  C     16.794458   18.312969   15.657571
  N     17.411271   19.041873   17.879593
  C     18.123075   19.083054   19.049262
  S     18.203691   20.454031   19.970153
  N     18.768318   17.928536   19.415481
  C     18.624967   16.624351   18.738344
  C     17.921306   15.609949   19.636609
  C     18.354689   14.271393   19.659818
  C     17.709211   13.321673   20.468848
  C     16.618625   13.711705   21.264097
  C     16.181407   15.042730   21.243919
  O     15.121439   15.420344   22.001837
  C     16.825524   15.986354   20.437356
  H     15.661327   14.987960   18.113819
  H     14.044178   15.389111   17.540279
  H     15.238341   16.668819   17.665794
  H     15.092190   14.315196   15.688986
  H     15.065276   16.024255   15.281106
  H     17.153564   17.648113   14.862754
  H     17.085336   19.328678   15.360598
  H     15.699267   18.271714   15.673091
  H     16.959348   19.904364   17.619526
  H     19.274596   17.981453   20.290373
  H     19.639299   16.246045   18.542473
  H     19.191163   13.962688   19.036036
  H     18.053526   12.288822   20.472907
  H     16.116019   12.980492   21.888542
  H     14.847144   14.650057   22.522055
  H     16.462967   17.008844   20.435965

----------------------------
CARTESIAN COORDINATES (A.U.)
----------------------------
  NO LB      ZA    FRAG     MASS         X           Y           Z
   0 C     6.0000    0    12.011   28.551645   29.508622   32.890744
   1 C     6.0000    0    12.011   29.335529   28.892630   30.149091
   2 O     8.0000    0    15.999   32.033305   28.762907   29.651766
   3 C     6.0000    0    12.011   34.068430   29.456448   31.114720
   4 O     8.0000    0    15.999   35.908974   28.078302   31.193473
   5 C     6.0000    0    12.011   33.856220   31.681123   32.854828
   6 C     6.0000    0    12.011   32.834410   33.920831   32.141259
   7 C     6.0000    0    12.011   31.736926   34.606496   29.588522
   8 N     7.0000    0    14.007   32.902534   35.983925   33.787534
   9 C     6.0000    0    12.011   34.247649   36.061745   35.997888
  10 S    16.0000    0    32.060   34.399991   38.652516   37.738120
  11 N     7.0000    0    14.007   35.466981   33.880024   36.689942
  12 C     6.0000    0    12.011   35.196087   31.415470   35.410339
  13 C     6.0000    0    12.011   33.866361   29.498529   37.107814
  14 C     6.0000    0    12.011   34.685335   26.969025   37.151672
  15 C     6.0000    0    12.011   33.465559   25.174313   38.680517
  16 C     6.0000    0    12.011   31.404649   25.911367   40.183320
  17 C     6.0000    0    12.011   30.578428   28.426640   40.145190
  18 O     8.0000    0    15.999   28.575378   29.140227   41.577447
  19 C     6.0000    0    12.011   31.795633   30.209832   38.621006
  20 H     1.0000    0     1.008   29.595619   28.323140   34.230157
  21 H     1.0000    0     1.008   26.539651   29.081205   33.146323
  22 H     1.0000    0     1.008   28.796291   31.499502   33.383512
  23 H     1.0000    0     1.008   28.520107   27.051800   29.647887
  24 H     1.0000    0     1.008   28.469246   30.281454   28.877105
  25 H     1.0000    0     1.008   32.415537   33.350101   28.086535
  26 H     1.0000    0     1.008   32.286607   36.525909   29.027324
  27 H     1.0000    0     1.008   29.667315   34.528536   29.617850
  28 H     1.0000    0     1.008   32.048524   37.613797   33.296078
  29 H     1.0000    0     1.008   36.423708   33.980022   38.343248
  30 H     1.0000    0     1.008   37.112897   30.700576   35.040196
  31 H     1.0000    0     1.008   36.266043   26.385657   35.972894
  32 H     1.0000    0     1.008   34.116219   23.222508   38.688188
  33 H     1.0000    0     1.008   30.454862   24.529576   41.363350
  34 H     1.0000    0     1.008   28.057036   27.684596   42.560515
  35 H     1.0000    0     1.008   31.110499   32.142056   38.618378

--------------------------------
INTERNAL COORDINATES (ANGSTROEM)
--------------------------------
 C      0   0   0     0.000000000000     0.00000000     0.00000000
 C      1   0   0     1.543763480585     0.00000000     0.00000000
 O      2   1   0     1.453278075711   116.36677605     0.00000000
 C      3   2   1     1.376162769435   130.86455307   349.06813256
 O      4   3   2     1.217462790902   119.04933177   137.86601213
 C      4   3   2     1.498813085043   119.76554096   326.39612446
 C      6   4   3     1.356342652568   123.03666517   314.07584505
 C      7   6   4     1.514508364770   127.62809966     0.44404913
 N      7   6   4     1.397190452409   119.92849509   185.74710246
 C      9   7   6     1.369849316228   124.70122738     9.54677573
 S     10   9   7     1.653516384276   121.72226138   175.38345732
 N     10   9   7     1.372357295815   116.54360972   355.53252734
 C     12  10   9     1.476470081794   125.10440618   352.48697182
 C     13  12  10     1.526771045373   111.21103868   247.55481822
 C     14  13  12     1.407156789400   119.98532704   219.62317852
 C     15  14  13     1.404685120733   120.73864840   180.72568896
 C     16  15  14     1.404964126123   119.67008556     0.00000000
 C     17  16  15     1.401140761642   119.85368563     0.08268346
 O     18  17  16     1.356673904443   120.01084861   179.43538680
 C     18  17  16     1.398520055850   120.36806668   359.93151987
 H      1   2   3     1.095955582314   110.57793300   311.99304073
 H      1   2   3     1.096830998257   109.46145333   194.41650531
 H      1   2   3     1.093013980846   113.32247057    75.68373165
 H      2   1   3     1.097934399325   107.98461986   120.89259555
 H      2   1   3     1.096971204403   108.83885799   235.97819689
 H      8   7   6     1.096687909886   112.06280818   339.57478704
 H      8   7   6     1.097482921484   111.18889851   220.95281155
 H      8   7   6     1.096077320303   111.19296448   100.99151851
 H      9   7   6     1.007849096032   119.75060609   183.74009129
 H     12  10   9     1.012202485649   114.95086395   180.91947459
 H     13  12  10     1.100159343356   107.21008541   130.26759838
 H     15  14  13     1.088160447719   119.81217761   359.97008723
 H     16  15  14     1.088737834087   119.88280080   179.74445270
 H     17  16  15     1.084995556002   119.88455275   179.85662747
 H     19  18  17     0.969126224425   107.44474600     3.67436306
 H     20  18  17     1.084865963112   118.86543960   179.63528770

---------------------------
INTERNAL COORDINATES (A.U.)
---------------------------
 C      0   0   0     0.000000000000     0.00000000     0.00000000
 C      1   0   0     2.917290193854     0.00000000     0.00000000
 O      2   1   0     2.746297559527   116.36677605     0.00000000
 C      3   2   1     2.600570749931   130.86455307   349.06813256
 O      4   3   2     2.300671253044   119.04933177   137.86601213
 C      4   3   2     2.832346256669   119.76554096   326.39612446
 C      6   4   3     2.563116157111   123.03666517   314.07584505
 C      7   6   4     2.862006036948   127.62809966     0.44404913
 N      7   6   4     2.640307311982   119.92849509   185.74710246
 C      9   7   6     2.588640052410   124.70122738     9.54677573
 S     10   9   7     3.124693124233   121.72226138   175.38345732
 N     10   9   7     2.593379446979   116.54360972   355.53252734
 C     12  10   9     2.790124099518   125.10440618   352.48697182
 C     13  12  10     2.885179144956   111.21103868   247.55481822
 C     14  13  12     2.659140959454   119.98532704   219.62317852
 C     15  14  13     2.654470182579   120.73864840   180.72568896
 C     16  15  14     2.654997426356   119.67008556     0.00000000
 C     17  16  15     2.647772314578   119.85368563     0.08268346
 O     18  17  16     2.563742132434   120.01084861   179.43538680
 C     18  17  16     2.642819898354   120.36806668   359.93151987
 H      1   2   3     2.071055905517   110.57793300   311.99304073
 H      1   2   3     2.072710201901   109.46145333   194.41650531
 H      1   2   3     2.065497084345   113.32247057    75.68373165
 H      2   1   3     2.074795327735   107.98461986   120.89259555
 H      2   1   3     2.072975153119   108.83885799   235.97819689
 H      8   7   6     2.072439804067   112.06280818   339.57478704
 H      8   7   6     2.073942158261   111.18889851   220.95281155
 H      8   7   6     2.071285956974   111.19296448   100.99151851
 H      9   7   6     1.904558775820   119.75060609   183.74009129
 H     12  10   9     1.912785489952   114.95086395   180.91947459
 H     13  12  10     2.078999862617   107.21008541   130.26759838
 H     15  14  13     2.056325235953   119.81217761   359.97008723
 H     16  15  14     2.057416338062   119.88280080   179.74445270
 H     17  16  15     2.050344457365   119.88455275   179.85662747
 H     19  18  17     1.831383153364   107.44474600     3.67436306
 H     20  18  17     2.050099562295   118.86543960   179.63528770

---------------------
BASIS SET INFORMATION
---------------------
There are 5 groups of distinct atoms

 Group   1 Type C   : 18s5p2d1f contracted to 4s3p2d1f pattern {8811/311/11/1}
 Group   2 Type O   : 18s5p2d1f contracted to 4s3p2d1f pattern {8811/311/11/1}
 Group   3 Type N   : 18s5p2d1f contracted to 4s3p2d1f pattern {8811/311/11/1}
 Group   4 Type S   : 41s16p2d1f contracted to 5s4p2d1f pattern {13131311/7711/11/1}
 Group   5 Type H   : 5s2p1d contracted to 3s2p1d pattern {311/11/1}

Atom   0C    basis set group =>   1
Atom   1C    basis set group =>   1
Atom   2O    basis set group =>   2
Atom   3C    basis set group =>   1
Atom   4O    basis set group =>   2
Atom   5C    basis set group =>   1
Atom   6C    basis set group =>   1
Atom   7C    basis set group =>   1
Atom   8N    basis set group =>   3
Atom   9C    basis set group =>   1
Atom  10S    basis set group =>   4
Atom  11N    basis set group =>   3
Atom  12C    basis set group =>   1
Atom  13C    basis set group =>   1
Atom  14C    basis set group =>   1
Atom  15C    basis set group =>   1
Atom  16C    basis set group =>   1
Atom  17C    basis set group =>   1
Atom  18O    basis set group =>   2
Atom  19C    basis set group =>   1
Atom  20H    basis set group =>   5
Atom  21H    basis set group =>   5
Atom  22H    basis set group =>   5
Atom  23H    basis set group =>   5
Atom  24H    basis set group =>   5
Atom  25H    basis set group =>   5
Atom  26H    basis set group =>   5
Atom  27H    basis set group =>   5
Atom  28H    basis set group =>   5
Atom  29H    basis set group =>   5
Atom  30H    basis set group =>   5
Atom  31H    basis set group =>   5
Atom  32H    basis set group =>   5
Atom  33H    basis set group =>   5
Atom  34H    basis set group =>   5
Atom  35H    basis set group =>   5
---------------------------------
AUXILIARY/C BASIS SET INFORMATION
---------------------------------
There are 5 groups of distinct atoms

 Group   1 Type C   : 8s6p5d3f1g contracted to 8s6p5d3f1g pattern {11111111/111111/11111/111/1}
 Group   2 Type O   : 8s6p5d3f1g contracted to 8s6p5d3f1g pattern {11111111/111111/11111/111/1}
 Group   3 Type N   : 8s6p5d3f1g contracted to 8s6p5d3f1g pattern {11111111/111111/11111/111/1}
 Group   4 Type S   : 10s8p7d5f2g contracted to 10s8p7d5f2g pattern {1111111111/11111111/1111111/11111/11}
 Group   5 Type H   : 4s3p2d1f contracted to 4s3p2d1f pattern {1111/111/11/1}

Atom   0C    basis set group =>   1
Atom   1C    basis set group =>   1
Atom   2O    basis set group =>   2
Atom   3C    basis set group =>   1
Atom   4O    basis set group =>   2
Atom   5C    basis set group =>   1
Atom   6C    basis set group =>   1
Atom   7C    basis set group =>   1
Atom   8N    basis set group =>   3
Atom   9C    basis set group =>   1
Atom  10S    basis set group =>   4
Atom  11N    basis set group =>   3
Atom  12C    basis set group =>   1
Atom  13C    basis set group =>   1
Atom  14C    basis set group =>   1
Atom  15C    basis set group =>   1
Atom  16C    basis set group =>   1
Atom  17C    basis set group =>   1
Atom  18O    basis set group =>   2
Atom  19C    basis set group =>   1
Atom  20H    basis set group =>   5
Atom  21H    basis set group =>   5
Atom  22H    basis set group =>   5
Atom  23H    basis set group =>   5
Atom  24H    basis set group =>   5
Atom  25H    basis set group =>   5
Atom  26H    basis set group =>   5
Atom  27H    basis set group =>   5
Atom  28H    basis set group =>   5
Atom  29H    basis set group =>   5
Atom  30H    basis set group =>   5
Atom  31H    basis set group =>   5
Atom  32H    basis set group =>   5
Atom  33H    basis set group =>   5
Atom  34H    basis set group =>   5
Atom  35H    basis set group =>   5
------------------------------------------------------------------------------
                           ORCA GTO INTEGRAL CALCULATION
------------------------------------------------------------------------------
------------------------------------------------------------------------------
                   ___                                                        
                  /   \      - P O W E R E D   B Y -                         
                 /     \                                                     
                 |  |  |   _    _      __       _____    __    __             
                 |  |  |  | |  | |    /  \     |  _  \  |  |  /  |          
                  \  \/   | |  | |   /    \    | | | |  |  | /  /          
                 / \  \   | |__| |  /  /\  \   | |_| |  |  |/  /          
                |  |  |   |  __  | /  /__\  \  |    /   |      \           
                |  |  |   | |  | | |   __   |  |    \   |  |\   \          
                \     /   | |  | | |  |  |  |  | |\  \  |  | \   \       
                 \___/    |_|  |_| |__|  |__|  |_| \__\ |__|  \__/        
                                                                              
                      - O R C A' S   B I G   F R I E N D -                    
                                      &                                       
                       - I N T E G R A L  F E E D E R -                       
                                                                              
 v1 FN, 2020, v2 2021                                                         
------------------------------------------------------------------------------


Reading SHARK input file CONFS/Conf479.orca.SHARKINP.tmp ... ok
----------------------
SHARK INTEGRAL PACKAGE
----------------------

Number of atoms                             ...     36
Number of basis functions                   ...    828
Number of shells                            ...    298
Maximum angular momentum                    ...      3
Integral batch strategy                     ... SHARK/LIBINT Hybrid
RI-J (if used) integral strategy            ... SPLIT-RIJ (Revised 2003 algorithm where possible)
Printlevel                                  ...      1
Contraction scheme used                     ... SEGMENTED contraction
Coulomb Range Separation                    ... NOT USED
Exchange Range Separation                   ... NOT USED
Finite Nucleus Model                        ... NOT USED
Auxiliary Coulomb fitting basis             ... NOT available
Auxiliary J/K fitting basis                 ... NOT available
Auxiliary Correlation fitting basis         ... AVAILABLE
   # of basis functions in Aux-C            ...   2141
   # of shells in Aux-C                     ...    629
   Maximum angular momentum in Aux-C        ...      4
Auxiliary 'external' fitting basis          ... NOT available
Integral threshold                          ...     2.500000e-11
Primitive cut-off                           ...     2.500000e-12
Primitive pair pre-selection threshold      ...     2.500000e-12

Calculating pre-screening integrals         ... done (  0.6 sec) Dimension = 298
Organizing shell pair data                  ... done (  1.3 sec)
Shell pair information
Total number of shell pairs                 ...     44551
Shell pairs after pre-screening             ...     34791
Total number of primitive shell pairs       ...    234348
Primitive shell pairs kept                  ...     99303
          la=0 lb=0:   6897 shell pairs
          la=1 lb=0:   9635 shell pairs
          la=1 lb=1:   3420 shell pairs
          la=2 lb=0:   5575 shell pairs
          la=2 lb=1:   3841 shell pairs
          la=2 lb=2:   1108 shell pairs
          la=3 lb=0:   2003 shell pairs
          la=3 lb=1:   1380 shell pairs
          la=3 lb=2:    781 shell pairs
          la=3 lb=3:    151 shell pairs

Calculating one electron integrals          ... done (  0.4 sec)
Calculating RI/C V-Matrix + Cholesky decomp.... done (  1.0 sec)
Calculating Nuclear repulsion               ... done (  0.0 sec) ENN=   1734.132847652828 Eh

SHARK setup successfully completed in   3.8 seconds

Maximum memory used throughout the entire GTOINT-calculation: 519.3 MB
-------------------------------------------------------------------------------
                                 ORCA SCF
-------------------------------------------------------------------------------

------------
SCF SETTINGS
------------
Hamiltonian:
 Ab initio Hamiltonian  Method          .... Hartree-Fock(GTOs)


General Settings:
 Integral files         IntName         .... CONFS/Conf479.orca
 Hartree-Fock type      HFTyp           .... RHF
 Total Charge           Charge          ....    0
 Multiplicity           Mult            ....    1
 Number of Electrons    NEL             ....  154
 Basis Dimension        Dim             ....  828
 Nuclear Repulsion      ENuc            ....   1734.1328476528 Eh

Convergence Acceleration:
 DIIS                   CNVDIIS         .... on
   Start iteration      DIISMaxIt       ....    12
   Startup error        DIISStart       ....  0.200000
   # of expansion vecs  DIISMaxEq       ....     5
   Bias factor          DIISBfac        ....   1.050
   Max. coefficient     DIISMaxC        ....  10.000
 Trust-Rad. Augm. Hess. CNVTRAH         .... auto
   Auto Start mean grad. ratio tolernc. ....  1.125000
   Auto Start start iteration           ....    20
   Auto Start num. interpolation iter.  ....    10
   Max. Number of Micro iterations      ....    16
   Max. Number of Macro iterations      .... Maxiter - #DIIS iter
   Number of Davidson start vectors     ....     2
   Converg. threshold I  (grad. norm)   ....   1.000e-05
   Converg. threshold II (energy diff.) ....   1.000e-08
   Grad. Scal. Fac. for Micro threshold ....   0.100
   Minimum threshold for Micro iter.    ....   0.010
   NR start threshold (gradient norm)   ....   0.001
   Initial trust radius                 ....   0.400
   Minimum AH scaling param. (alpha)    ....   1.000
   Maximum AH scaling param. (alpha)    .... 1000.000
   Orbital update algorithm             .... Taylor
   White noise on init. David. guess    .... on
   Maximum white noise                  ....   0.010
   Quad. conv. algorithm                .... NR
 SOSCF                  CNVSOSCF        .... on
   Start iteration      SOSCFMaxIt      ....   150
   Startup grad/error   SOSCFStart      ....  0.003300
 Level Shifting         CNVShift        .... on
   Level shift para.    LevelShift      ....    0.2500
   Turn off err/grad.   ShiftErr        ....    0.0010
 Zerner damping         CNVZerner       .... off
 Static damping         CNVDamp         .... on
   Fraction old density DampFac         ....    0.7000
   Max. Damping (<1)    DampMax         ....    0.9800
   Min. Damping (>=0)   DampMin         ....    0.0000
   Turn off err/grad.   DampErr         ....    0.1000
 Fernandez-Rico         CNVRico         .... off

SCF Procedure:
 Maximum # iterations   MaxIter         ....   125
 SCF integral mode      SCFMode         .... Direct
   Integral package                     .... SHARK and LIBINT hybrid scheme
 Reset frequency        DirectResetFreq ....    20
 Integral Threshold     Thresh          ....  2.500e-11 Eh
 Primitive CutOff       TCut            ....  2.500e-12 Eh

Convergence Tolerance:
 Convergence Check Mode ConvCheckMode   .... Total+1el-Energy
 Convergence forced     ConvForced      .... 1
 Energy Change          TolE            ....  1.000e-08 Eh
 1-El. energy change                    ....  1.000e-05 Eh
 Orbital Gradient       TolG            ....  1.000e-05
 Orbital Rotation angle TolX            ....  1.000e-05
 DIIS Error             TolErr          ....  5.000e-07


Diagonalization of the overlap matrix:
Smallest eigenvalue                        ... 3.259e-05
Time for diagonalization                   ...    0.146 sec
Threshold for overlap eigenvalues          ... 1.000e-08
Number of eigenvalues below threshold      ... 0
Time for construction of square roots      ...    0.250 sec
Total time needed                          ...    0.397 sec

Time for model grid setup =    1.527 sec

------------------------------
INITIAL GUESS: MODEL POTENTIAL
------------------------------
Loading Hartree-Fock densities                     ... done
Calculating cut-offs                               ... done
Initializing the effective Hamiltonian             ... done
Setting up the integral package (SHARK)            ... done
Starting the Coulomb interaction                   ... done (   4.8 sec)
Reading the grid                                   ... done
Mapping shells                                     ... done
Starting the XC term evaluation                    ... done (   1.6 sec)
Transforming the Hamiltonian                       ... done (   0.1 sec)
Diagonalizing the Hamiltonian                      ... done (   0.1 sec)
Back transforming the eigenvectors                 ... done (   0.0 sec)
Now organizing SCF variables                       ... done
                      ------------------
                      INITIAL GUESS DONE (   8.2 sec)
                      ------------------
--------------
SCF ITERATIONS
--------------
ITER       Energy         Delta-E        Max-DP      RMS-DP      [F,P]     Damp
               ***  Starting incremental Fock matrix formation  ***
  0  -1269.9968582302   0.000000000000 0.04936064  0.00044686  0.3136812 0.7000
  1  -1270.2615223599  -0.264664129610 0.03611940  0.00036360  0.1831268 0.7000
                               ***Turning on DIIS***
  2  -1270.4267153473  -0.165192987408 0.02587009  0.00024162  0.1098256 0.7000
  3  -1272.5494095958  -2.122694248573 0.06324312  0.00051574  0.0830387 0.0000
  4  -1270.7371735342   1.812236061646 0.01252399  0.00010647  0.0068500 0.0000
  5  -1270.7911339355  -0.053960401303 0.00621257  0.00005600  0.0036369 0.0000
                      *** Initiating the SOSCF procedure ***
                           *** Shutting down DIIS ***
                      *** Re-Reading the Fockian *** 
                      *** Removing any level shift *** 
ITER      Energy       Delta-E        Grad      Rot      Max-DP    RMS-DP
  6  -1270.77095922   0.0201747130  0.001670  0.001670  0.002877  0.000028
               *** Restarting incremental Fock matrix formation ***
  7  -1270.78634803  -0.0153888043  0.000885  0.002234  0.001520  0.000018
  8  -1270.78639788  -0.0000498535  0.000409  0.002661  0.001726  0.000020
  9  -1270.78641745  -0.0000195683  0.000184  0.000335  0.000383  0.000005
 10  -1270.78642000  -0.0000025540  0.000046  0.000124  0.000128  0.000001
 11  -1270.78642025  -0.0000002449  0.000023  0.000128  0.000100  0.000001
 12  -1270.78642031  -0.0000000672  0.000010  0.000035  0.000028  0.000000
 13  -1270.78642032  -0.0000000081  0.000003  0.000008  0.000006  0.000000
                  ***Gradient check signals convergence***
              ***Rediagonalizing the Fockian in SOSCF/NRSCF***

               *****************************************************
               *                     SUCCESS                       *
               *           SCF CONVERGED AFTER  14 CYCLES          *
               *****************************************************


----------------
TOTAL SCF ENERGY
----------------

Total Energy       :        -1270.78642032 Eh          -34579.85650 eV

Components:
Nuclear Repulsion  :         1734.13284765 Eh           47188.15378 eV
Electronic Energy  :        -3004.91926797 Eh          -81768.01029 eV
One Electron Energy:        -5189.02263518 Eh         -141200.48440 eV
Two Electron Energy:         2184.10336721 Eh           59432.47411 eV

Virial components:
Potential Energy   :        -2539.71637708 Eh          -69109.19606 eV
Kinetic Energy     :         1268.92995676 Eh           34529.33956 eV
Virial Ratio       :            2.00146302


---------------
SCF CONVERGENCE
---------------

  Last Energy change         ...    2.1855e-09  Tolerance :   1.0000e-08
  Last MAX-Density change    ...    3.2554e-06  Tolerance :   1.0000e-07
  Last RMS-Density change    ...    3.7448e-08  Tolerance :   5.0000e-09
  Last Orbital Gradient      ...    1.1866e-06  Tolerance :   1.0000e-05
  Last Orbital Rotation      ...    3.0548e-06  Tolerance :   1.0000e-05

             **** THE GBW FILE WAS UPDATED (CONFS/Conf479.orca.gbw) ****
             **** DENSITY CONFS/Conf479.orca.scfp WAS UPDATED ****
             **** ENERGY FILE WAS UPDATED (CONFS/Conf479.orca.en.tmp) ****
             **** THE GBW FILE WAS UPDATED (CONFS/Conf479.orca.gbw) ****
             **** DENSITY CONFS/Conf479.orca.scfp WAS UPDATED ****
----------------
ORBITAL ENERGIES
----------------

  NO   OCC          E(Eh)            E(eV) 
   0   2.0000     -91.891052     -2500.4827 
   1   2.0000     -20.597560      -560.4881 
   2   2.0000     -20.594430      -560.4029 
   3   2.0000     -20.546924      -559.1102 
   4   2.0000     -15.630045      -425.3152 
   5   2.0000     -15.610691      -424.7885 
   6   2.0000     -11.399428      -310.1942 
   7   2.0000     -11.386913      -309.8537 
   8   2.0000     -11.334718      -308.4334 
   9   2.0000     -11.314120      -307.8728 
  10   2.0000     -11.312786      -307.8366 
  11   2.0000     -11.311585      -307.8039 
  12   2.0000     -11.267893      -306.6150 
  13   2.0000     -11.265276      -306.5438 
  14   2.0000     -11.260822      -306.4225 
  15   2.0000     -11.254537      -306.2515 
  16   2.0000     -11.243861      -305.9610 
  17   2.0000     -11.239260      -305.8358 
  18   2.0000     -11.236034      -305.7480 
  19   2.0000     -11.235443      -305.7319 
  20   2.0000      -8.896135      -242.0761 
  21   2.0000      -6.577717      -178.9888 
  22   2.0000      -6.575699      -178.9339 
  23   2.0000      -6.575117      -178.9180 
  24   2.0000      -1.441468       -39.2243 
  25   2.0000      -1.417376       -38.5688 
  26   2.0000      -1.354023       -36.8448 
  27   2.0000      -1.342321       -36.5264 
  28   2.0000      -1.240624       -33.7591 
  29   2.0000      -1.158670       -31.5290 
  30   2.0000      -1.124350       -30.5951 
  31   2.0000      -1.046841       -28.4860 
  32   2.0000      -1.040690       -28.3186 
  33   2.0000      -1.016774       -27.6678 
  34   2.0000      -1.005219       -27.3534 
  35   2.0000      -0.990052       -26.9407 
  36   2.0000      -0.927788       -25.2464 
  37   2.0000      -0.901124       -24.5208 
  38   2.0000      -0.854260       -23.2456 
  39   2.0000      -0.841005       -22.8849 
  40   2.0000      -0.834342       -22.7036 
  41   2.0000      -0.826444       -22.4887 
  42   2.0000      -0.745018       -20.2730 
  43   2.0000      -0.733256       -19.9529 
  44   2.0000      -0.730420       -19.8757 
  45   2.0000      -0.694933       -18.9101 
  46   2.0000      -0.686792       -18.6886 
  47   2.0000      -0.679371       -18.4866 
  48   2.0000      -0.674363       -18.3503 
  49   2.0000      -0.661097       -17.9894 
  50   2.0000      -0.657769       -17.8988 
  51   2.0000      -0.651872       -17.7384 
  52   2.0000      -0.642243       -17.4763 
  53   2.0000      -0.618462       -16.8292 
  54   2.0000      -0.607540       -16.5320 
  55   2.0000      -0.605132       -16.4665 
  56   2.0000      -0.602038       -16.3823 
  57   2.0000      -0.588867       -16.0239 
  58   2.0000      -0.576270       -15.6811 
  59   2.0000      -0.568179       -15.4609 
  60   2.0000      -0.565139       -15.3782 
  61   2.0000      -0.555192       -15.1075 
  62   2.0000      -0.544370       -14.8131 
  63   2.0000      -0.531783       -14.4705 
  64   2.0000      -0.522456       -14.2168 
  65   2.0000      -0.513699       -13.9785 
  66   2.0000      -0.501031       -13.6338 
  67   2.0000      -0.493258       -13.4222 
  68   2.0000      -0.483420       -13.1545 
  69   2.0000      -0.470539       -12.8040 
  70   2.0000      -0.456624       -12.4254 
  71   2.0000      -0.447599       -12.1798 
  72   2.0000      -0.356738        -9.7073 
  73   2.0000      -0.348735        -9.4896 
  74   2.0000      -0.330462        -8.9923 
  75   2.0000      -0.322787        -8.7835 
  76   2.0000      -0.319058        -8.6820 
  77   0.0000       0.077964         2.1215 
  78   0.0000       0.107774         2.9327 
  79   0.0000       0.115481         3.1424 
  80   0.0000       0.131091         3.5672 
  81   0.0000       0.131329         3.5736 
  82   0.0000       0.141990         3.8637 
  83   0.0000       0.150604         4.0981 
  84   0.0000       0.157324         4.2810 
  85   0.0000       0.160110         4.3568 
  86   0.0000       0.167707         4.5635 
  87   0.0000       0.170475         4.6389 
  88   0.0000       0.192825         5.2470 
  89   0.0000       0.196957         5.3595 
  90   0.0000       0.202768         5.5176 
  91   0.0000       0.204898         5.5756 
  92   0.0000       0.210285         5.7221 
  93   0.0000       0.214764         5.8440 
  94   0.0000       0.221536         6.0283 
  95   0.0000       0.234227         6.3736 
  96   0.0000       0.243940         6.6379 
  97   0.0000       0.249580         6.7914 
  98   0.0000       0.263450         7.1689 
  99   0.0000       0.272075         7.4035 
 100   0.0000       0.287552         7.8247 
 101   0.0000       0.303315         8.2536 
 102   0.0000       0.312572         8.5055 
 103   0.0000       0.317228         8.6322 
 104   0.0000       0.322537         8.7767 
 105   0.0000       0.335034         9.1167 
 106   0.0000       0.343168         9.3381 
 107   0.0000       0.349736         9.5168 
 108   0.0000       0.352518         9.5925 
 109   0.0000       0.360011         9.7964 
 110   0.0000       0.370585        10.0841 
 111   0.0000       0.378433        10.2977 
 112   0.0000       0.380748        10.3607 
 113   0.0000       0.387757        10.5514 
 114   0.0000       0.396445        10.7878 
 115   0.0000       0.409480        11.1425 
 116   0.0000       0.422940        11.5088 
 117   0.0000       0.424828        11.5602 
 118   0.0000       0.436101        11.8669 
 119   0.0000       0.441277        12.0078 
 120   0.0000       0.444485        12.0951 
 121   0.0000       0.445782        12.1304 
 122   0.0000       0.455124        12.3845 
 123   0.0000       0.460178        12.5221 
 124   0.0000       0.468556        12.7500 
 125   0.0000       0.473186        12.8761 
 126   0.0000       0.482330        13.1249 
 127   0.0000       0.486171        13.2294 
 128   0.0000       0.489458        13.3188 
 129   0.0000       0.493620        13.4321 
 130   0.0000       0.505695        13.7607 
 131   0.0000       0.506801        13.7908 
 132   0.0000       0.514750        14.0071 
 133   0.0000       0.519221        14.1287 
 134   0.0000       0.525065        14.2877 
 135   0.0000       0.529408        14.4059 
 136   0.0000       0.532387        14.4870 
 137   0.0000       0.536983        14.6120 
 138   0.0000       0.544331        14.8120 
 139   0.0000       0.552523        15.0349 
 140   0.0000       0.555262        15.1095 
 141   0.0000       0.560608        15.2549 
 142   0.0000       0.566924        15.4268 
 143   0.0000       0.575454        15.6589 
 144   0.0000       0.578811        15.7502 
 145   0.0000       0.584357        15.9012 
 146   0.0000       0.585417        15.9300 
 147   0.0000       0.589439        16.0394 
 148   0.0000       0.594030        16.1644 
 149   0.0000       0.597338        16.2544 
 150   0.0000       0.605419        16.4743 
 151   0.0000       0.610114        16.6020 
 152   0.0000       0.612310        16.6618 
 153   0.0000       0.614471        16.7206 
 154   0.0000       0.618854        16.8399 
 155   0.0000       0.626706        17.0535 
 156   0.0000       0.627943        17.0872 
 157   0.0000       0.636120        17.3097 
 158   0.0000       0.638427        17.3725 
 159   0.0000       0.645938        17.5769 
 160   0.0000       0.651410        17.7258 
 161   0.0000       0.658166        17.9096 
 162   0.0000       0.659136        17.9360 
 163   0.0000       0.664421        18.0798 
 164   0.0000       0.672665        18.3041 
 165   0.0000       0.680025        18.5044 
 166   0.0000       0.682141        18.5620 
 167   0.0000       0.683774        18.6064 
 168   0.0000       0.687924        18.7194 
 169   0.0000       0.694284        18.8924 
 170   0.0000       0.704516        19.1708 
 171   0.0000       0.714646        19.4465 
 172   0.0000       0.724296        19.7091 
 173   0.0000       0.727253        19.7896 
 174   0.0000       0.729739        19.8572 
 175   0.0000       0.739221        20.1152 
 176   0.0000       0.747998        20.3541 
 177   0.0000       0.750922        20.4336 
 178   0.0000       0.758303        20.6345 
 179   0.0000       0.763722        20.7819 
 180   0.0000       0.767125        20.8745 
 181   0.0000       0.773807        21.0563 
 182   0.0000       0.783518        21.3206 
 183   0.0000       0.800022        21.7697 
 184   0.0000       0.807156        21.9638 
 185   0.0000       0.809255        22.0209 
 186   0.0000       0.812754        22.1162 
 187   0.0000       0.826453        22.4889 
 188   0.0000       0.834857        22.7176 
 189   0.0000       0.853101        23.2141 
 190   0.0000       0.853703        23.2304 
 191   0.0000       0.859678        23.3930 
 192   0.0000       0.865957        23.5639 
 193   0.0000       0.869787        23.6681 
 194   0.0000       0.872240        23.7349 
 195   0.0000       0.885451        24.0943 
 196   0.0000       0.889966        24.2172 
 197   0.0000       0.896784        24.4027 
 198   0.0000       0.903207        24.5775 
 199   0.0000       0.912575        24.8324 
 200   0.0000       0.921157        25.0659 
 201   0.0000       0.930718        25.3261 
 202   0.0000       0.932446        25.3731 
 203   0.0000       0.936944        25.4955 
 204   0.0000       0.946538        25.7566 
 205   0.0000       0.954514        25.9736 
 206   0.0000       0.959264        26.1029 
 207   0.0000       0.962074        26.1794 
 208   0.0000       0.975702        26.5502 
 209   0.0000       0.988652        26.9026 
 210   0.0000       0.989421        26.9235 
 211   0.0000       0.995576        27.0910 
 212   0.0000       1.002603        27.2822 
 213   0.0000       1.007736        27.4219 
 214   0.0000       1.016315        27.6553 
 215   0.0000       1.020424        27.7672 
 216   0.0000       1.023730        27.8571 
 217   0.0000       1.032151        28.0863 
 218   0.0000       1.043369        28.3915 
 219   0.0000       1.052960        28.6525 
 220   0.0000       1.061441        28.8833 
 221   0.0000       1.064980        28.9796 
 222   0.0000       1.071249        29.1502 
 223   0.0000       1.079974        29.3876 
 224   0.0000       1.083131        29.4735 
 225   0.0000       1.096282        29.8313 
 226   0.0000       1.104069        30.0433 
 227   0.0000       1.109450        30.1897 
 228   0.0000       1.115669        30.3589 
 229   0.0000       1.120306        30.4851 
 230   0.0000       1.129109        30.7246 
 231   0.0000       1.147599        31.2278 
 232   0.0000       1.150255        31.3000 
 233   0.0000       1.155533        31.4437 
 234   0.0000       1.163480        31.6599 
 235   0.0000       1.175329        31.9823 
 236   0.0000       1.178012        32.0553 
 237   0.0000       1.188070        32.3290 
 238   0.0000       1.194062        32.4921 
 239   0.0000       1.198150        32.6033 
 240   0.0000       1.203799        32.7570 
 241   0.0000       1.209250        32.9054 
 242   0.0000       1.215628        33.0789 
 243   0.0000       1.221512        33.2390 
 244   0.0000       1.225236        33.3404 
 245   0.0000       1.233662        33.5697 
 246   0.0000       1.248543        33.9746 
 247   0.0000       1.262483        34.3539 
 248   0.0000       1.267229        34.4831 
 249   0.0000       1.273227        34.6463 
 250   0.0000       1.277910        34.7737 
 251   0.0000       1.284569        34.9549 
 252   0.0000       1.289701        35.0945 
 253   0.0000       1.299505        35.3613 
 254   0.0000       1.302465        35.4419 
 255   0.0000       1.316472        35.8230 
 256   0.0000       1.317733        35.8573 
 257   0.0000       1.331935        36.2438 
 258   0.0000       1.333847        36.2958 
 259   0.0000       1.335598        36.3435 
 260   0.0000       1.344819        36.5944 
 261   0.0000       1.357690        36.9446 
 262   0.0000       1.365046        37.1448 
 263   0.0000       1.378807        37.5192 
 264   0.0000       1.383395        37.6441 
 265   0.0000       1.389951        37.8225 
 266   0.0000       1.400637        38.1133 
 267   0.0000       1.408236        38.3201 
 268   0.0000       1.416225        38.5375 
 269   0.0000       1.420301        38.6483 
 270   0.0000       1.432594        38.9829 
 271   0.0000       1.436503        39.0892 
 272   0.0000       1.445654        39.3382 
 273   0.0000       1.454914        39.5902 
 274   0.0000       1.467818        39.9414 
 275   0.0000       1.471213        40.0338 
 276   0.0000       1.475324        40.1456 
 277   0.0000       1.482402        40.3382 
 278   0.0000       1.484673        40.4000 
 279   0.0000       1.493650        40.6443 
 280   0.0000       1.501444        40.8564 
 281   0.0000       1.508152        41.0389 
 282   0.0000       1.518709        41.3262 
 283   0.0000       1.523517        41.4570 
 284   0.0000       1.529004        41.6063 
 285   0.0000       1.535339        41.7787 
 286   0.0000       1.539661        41.8963 
 287   0.0000       1.546900        42.0933 
 288   0.0000       1.549707        42.1697 
 289   0.0000       1.555833        42.3364 
 290   0.0000       1.561093        42.4795 
 291   0.0000       1.576796        42.9068 
 292   0.0000       1.587838        43.2073 
 293   0.0000       1.594775        43.3960 
 294   0.0000       1.604849        43.6702 
 295   0.0000       1.605659        43.6922 
 296   0.0000       1.611682        43.8561 
 297   0.0000       1.621483        44.1228 
 298   0.0000       1.624601        44.2076 
 299   0.0000       1.642394        44.6918 
 300   0.0000       1.645211        44.7685 
 301   0.0000       1.648303        44.8526 
 302   0.0000       1.662816        45.2475 
 303   0.0000       1.666971        45.3606 
 304   0.0000       1.672898        45.5219 
 305   0.0000       1.678591        45.6768 
 306   0.0000       1.684255        45.8309 
 307   0.0000       1.695724        46.1430 
 308   0.0000       1.704506        46.3820 
 309   0.0000       1.713772        46.6341 
 310   0.0000       1.717824        46.7444 
 311   0.0000       1.732724        47.1498 
 312   0.0000       1.734486        47.1978 
 313   0.0000       1.746444        47.5232 
 314   0.0000       1.753524        47.7158 
 315   0.0000       1.765632        48.0453 
 316   0.0000       1.774684        48.2916 
 317   0.0000       1.787245        48.6334 
 318   0.0000       1.798560        48.9413 
 319   0.0000       1.805265        49.1238 
 320   0.0000       1.828343        49.7518 
 321   0.0000       1.837020        49.9879 
 322   0.0000       1.848128        50.2901 
 323   0.0000       1.860622        50.6301 
 324   0.0000       1.864168        50.7266 
 325   0.0000       1.875839        51.0442 
 326   0.0000       1.895782        51.5869 
 327   0.0000       1.904747        51.8308 
 328   0.0000       1.908928        51.9446 
 329   0.0000       1.917923        52.1893 
 330   0.0000       1.930030        52.5188 
 331   0.0000       1.939209        52.7686 
 332   0.0000       1.954478        53.1840 
 333   0.0000       1.966526        53.5119 
 334   0.0000       1.975701        53.7616 
 335   0.0000       1.990177        54.1555 
 336   0.0000       1.998466        54.3810 
 337   0.0000       2.002403        54.4882 
 338   0.0000       2.017703        54.9045 
 339   0.0000       2.025103        55.1058 
 340   0.0000       2.035923        55.4003 
 341   0.0000       2.045126        55.6507 
 342   0.0000       2.057145        55.9778 
 343   0.0000       2.077482        56.5312 
 344   0.0000       2.094663        56.9987 
 345   0.0000       2.103184        57.2305 
 346   0.0000       2.130807        57.9822 
 347   0.0000       2.137867        58.1743 
 348   0.0000       2.149142        58.4811 
 349   0.0000       2.167648        58.9847 
 350   0.0000       2.183832        59.4251 
 351   0.0000       2.205909        60.0258 
 352   0.0000       2.210687        60.1558 
 353   0.0000       2.219061        60.3837 
 354   0.0000       2.238261        60.9062 
 355   0.0000       2.269381        61.7530 
 356   0.0000       2.283989        62.1505 
 357   0.0000       2.289655        62.3047 
 358   0.0000       2.301607        62.6299 
 359   0.0000       2.312912        62.9375 
 360   0.0000       2.327314        63.3294 
 361   0.0000       2.330372        63.4127 
 362   0.0000       2.353528        64.0427 
 363   0.0000       2.366966        64.4084 
 364   0.0000       2.371433        64.5300 
 365   0.0000       2.385006        64.8993 
 366   0.0000       2.389426        65.0196 
 367   0.0000       2.405393        65.4541 
 368   0.0000       2.411406        65.6177 
 369   0.0000       2.435728        66.2795 
 370   0.0000       2.451826        66.7176 
 371   0.0000       2.462829        67.0170 
 372   0.0000       2.471841        67.2622 
 373   0.0000       2.478423        67.4413 
 374   0.0000       2.498611        67.9907 
 375   0.0000       2.506089        68.1942 
 376   0.0000       2.537168        69.0399 
 377   0.0000       2.542954        69.1973 
 378   0.0000       2.546718        69.2997 
 379   0.0000       2.572539        70.0023 
 380   0.0000       2.574686        70.0608 
 381   0.0000       2.587471        70.4087 
 382   0.0000       2.599440        70.7344 
 383   0.0000       2.611161        71.0533 
 384   0.0000       2.614678        71.1490 
 385   0.0000       2.624352        71.4122 
 386   0.0000       2.632788        71.6418 
 387   0.0000       2.649301        72.0911 
 388   0.0000       2.666462        72.5581 
 389   0.0000       2.680494        72.9399 
 390   0.0000       2.684470        73.0482 
 391   0.0000       2.693919        73.3053 
 392   0.0000       2.719077        73.9898 
 393   0.0000       2.724569        74.1393 
 394   0.0000       2.731062        74.3160 
 395   0.0000       2.739394        74.5427 
 396   0.0000       2.744952        74.6939 
 397   0.0000       2.760811        75.1255 
 398   0.0000       2.773756        75.4777 
 399   0.0000       2.784181        75.7614 
 400   0.0000       2.790575        75.9354 
 401   0.0000       2.798401        76.1484 
 402   0.0000       2.818968        76.7080 
 403   0.0000       2.823403        76.8287 
 404   0.0000       2.827729        76.9464 
 405   0.0000       2.844946        77.4149 
 406   0.0000       2.854758        77.6819 
 407   0.0000       2.859362        77.8072 
 408   0.0000       2.874909        78.2303 
 409   0.0000       2.875214        78.2386 
 410   0.0000       2.884155        78.4818 
 411   0.0000       2.893202        78.7280 
 412   0.0000       2.899879        78.9097 
 413   0.0000       2.916932        79.3738 
 414   0.0000       2.918742        79.4230 
 415   0.0000       2.939642        79.9917 
 416   0.0000       2.944928        80.1356 
 417   0.0000       2.951314        80.3093 
 418   0.0000       2.954121        80.3857 
 419   0.0000       2.962457        80.6125 
 420   0.0000       2.964240        80.6611 
 421   0.0000       2.980487        81.1032 
 422   0.0000       2.997695        81.5714 
 423   0.0000       3.002129        81.6921 
 424   0.0000       3.009199        81.8845 
 425   0.0000       3.016655        82.0873 
 426   0.0000       3.020942        82.2040 
 427   0.0000       3.023778        82.2812 
 428   0.0000       3.032283        82.5126 
 429   0.0000       3.044302        82.8397 
 430   0.0000       3.047632        82.9303 
 431   0.0000       3.048889        82.9645 
 432   0.0000       3.061053        83.2955 
 433   0.0000       3.070924        83.5641 
 434   0.0000       3.073448        83.6328 
 435   0.0000       3.084381        83.9303 
 436   0.0000       3.086135        83.9780 
 437   0.0000       3.100646        84.3729 
 438   0.0000       3.110866        84.6510 
 439   0.0000       3.118227        84.8513 
 440   0.0000       3.127498        85.1036 
 441   0.0000       3.130463        85.1842 
 442   0.0000       3.135449        85.3199 
 443   0.0000       3.141664        85.4890 
 444   0.0000       3.153026        85.7982 
 445   0.0000       3.157499        85.9199 
 446   0.0000       3.162638        86.0597 
 447   0.0000       3.179433        86.5168 
 448   0.0000       3.187205        86.7283 
 449   0.0000       3.191771        86.8525 
 450   0.0000       3.206164        87.2442 
 451   0.0000       3.215574        87.5002 
 452   0.0000       3.218997        87.5934 
 453   0.0000       3.226587        87.7999 
 454   0.0000       3.235846        88.0519 
 455   0.0000       3.242655        88.2371 
 456   0.0000       3.249562        88.4251 
 457   0.0000       3.257195        88.6328 
 458   0.0000       3.261450        88.7486 
 459   0.0000       3.276244        89.1511 
 460   0.0000       3.277463        89.1843 
 461   0.0000       3.284731        89.3821 
 462   0.0000       3.288670        89.4893 
 463   0.0000       3.294646        89.6519 
 464   0.0000       3.301127        89.8282 
 465   0.0000       3.305441        89.9456 
 466   0.0000       3.317673        90.2785 
 467   0.0000       3.322195        90.4015 
 468   0.0000       3.326323        90.5138 
 469   0.0000       3.334596        90.7390 
 470   0.0000       3.336703        90.7963 
 471   0.0000       3.343912        90.9925 
 472   0.0000       3.354525        91.2813 
 473   0.0000       3.360253        91.4371 
 474   0.0000       3.374534        91.8257 
 475   0.0000       3.375868        91.8620 
 476   0.0000       3.379161        91.9516 
 477   0.0000       3.380471        91.9873 
 478   0.0000       3.382767        92.0498 
 479   0.0000       3.393588        92.3442 
 480   0.0000       3.400269        92.5260 
 481   0.0000       3.402657        92.5910 
 482   0.0000       3.404001        92.6276 
 483   0.0000       3.407956        92.7352 
 484   0.0000       3.417890        93.0055 
 485   0.0000       3.425162        93.2034 
 486   0.0000       3.433027        93.4174 
 487   0.0000       3.437984        93.5523 
 488   0.0000       3.442762        93.6823 
 489   0.0000       3.446213        93.7762 
 490   0.0000       3.447543        93.8124 
 491   0.0000       3.459281        94.1318 
 492   0.0000       3.463469        94.2458 
 493   0.0000       3.468297        94.3772 
 494   0.0000       3.470857        94.4468 
 495   0.0000       3.484347        94.8139 
 496   0.0000       3.491043        94.9961 
 497   0.0000       3.498700        95.2045 
 498   0.0000       3.504280        95.3563 
 499   0.0000       3.507572        95.4459 
 500   0.0000       3.515671        95.6663 
 501   0.0000       3.524848        95.9160 
 502   0.0000       3.528267        96.0090 
 503   0.0000       3.534480        96.1781 
 504   0.0000       3.546586        96.5075 
 505   0.0000       3.564399        96.9922 
 506   0.0000       3.568352        97.0998 
 507   0.0000       3.573866        97.2498 
 508   0.0000       3.583814        97.5205 
 509   0.0000       3.596455        97.8645 
 510   0.0000       3.599593        97.9499 
 511   0.0000       3.608274        98.1861 
 512   0.0000       3.612301        98.2957 
 513   0.0000       3.616058        98.3979 
 514   0.0000       3.625340        98.6505 
 515   0.0000       3.627941        98.7213 
 516   0.0000       3.633759        98.8796 
 517   0.0000       3.641098        99.0793 
 518   0.0000       3.644774        99.1793 
 519   0.0000       3.654363        99.4403 
 520   0.0000       3.658814        99.5614 
 521   0.0000       3.667245        99.7908 
 522   0.0000       3.675846       100.0249 
 523   0.0000       3.678094       100.0860 
 524   0.0000       3.690585       100.4259 
 525   0.0000       3.697283       100.6082 
 526   0.0000       3.698698       100.6467 
 527   0.0000       3.705097       100.8208 
 528   0.0000       3.713404       101.0469 
 529   0.0000       3.720157       101.2306 
 530   0.0000       3.728327       101.4529 
 531   0.0000       3.730496       101.5120 
 532   0.0000       3.737095       101.6915 
 533   0.0000       3.740655       101.7884 
 534   0.0000       3.749672       102.0338 
 535   0.0000       3.761830       102.3646 
 536   0.0000       3.763856       102.4197 
 537   0.0000       3.770156       102.5912 
 538   0.0000       3.772195       102.6466 
 539   0.0000       3.777370       102.7875 
 540   0.0000       3.791212       103.1641 
 541   0.0000       3.798004       103.3489 
 542   0.0000       3.801641       103.4479 
 543   0.0000       3.807591       103.6098 
 544   0.0000       3.811208       103.7082 
 545   0.0000       3.826509       104.1246 
 546   0.0000       3.843111       104.5764 
 547   0.0000       3.843839       104.5962 
 548   0.0000       3.852478       104.8313 
 549   0.0000       3.864349       105.1543 
 550   0.0000       3.865742       105.1922 
 551   0.0000       3.871348       105.3447 
 552   0.0000       3.880300       105.5883 
 553   0.0000       3.884727       105.7088 
 554   0.0000       3.896041       106.0167 
 555   0.0000       3.901289       106.1595 
 556   0.0000       3.912187       106.4560 
 557   0.0000       3.919618       106.6582 
 558   0.0000       3.924207       106.7831 
 559   0.0000       3.928763       106.9071 
 560   0.0000       3.950008       107.4852 
 561   0.0000       3.954946       107.6196 
 562   0.0000       3.962750       107.8319 
 563   0.0000       3.970408       108.0403 
 564   0.0000       3.984999       108.4373 
 565   0.0000       3.993593       108.6712 
 566   0.0000       3.997357       108.7736 
 567   0.0000       4.003864       108.9507 
 568   0.0000       4.011492       109.1583 
 569   0.0000       4.023815       109.4936 
 570   0.0000       4.024929       109.5239 
 571   0.0000       4.038380       109.8899 
 572   0.0000       4.053472       110.3006 
 573   0.0000       4.063991       110.5868 
 574   0.0000       4.073334       110.8411 
 575   0.0000       4.082139       111.0807 
 576   0.0000       4.088354       111.2498 
 577   0.0000       4.090273       111.3020 
 578   0.0000       4.103039       111.6494 
 579   0.0000       4.111768       111.8869 
 580   0.0000       4.118436       112.0683 
 581   0.0000       4.124650       112.2374 
 582   0.0000       4.127420       112.3128 
 583   0.0000       4.141142       112.6862 
 584   0.0000       4.145964       112.8174 
 585   0.0000       4.156945       113.1162 
 586   0.0000       4.159934       113.1975 
 587   0.0000       4.165502       113.3491 
 588   0.0000       4.171041       113.4998 
 589   0.0000       4.174100       113.5830 
 590   0.0000       4.180650       113.7613 
 591   0.0000       4.190230       114.0220 
 592   0.0000       4.199461       114.2731 
 593   0.0000       4.203109       114.3724 
 594   0.0000       4.219663       114.8229 
 595   0.0000       4.225357       114.9778 
 596   0.0000       4.240813       115.3984 
 597   0.0000       4.244076       115.4872 
 598   0.0000       4.249707       115.6404 
 599   0.0000       4.255541       115.7991 
 600   0.0000       4.256320       115.8204 
 601   0.0000       4.268983       116.1649 
 602   0.0000       4.269320       116.1741 
 603   0.0000       4.286157       116.6323 
 604   0.0000       4.291199       116.7695 
 605   0.0000       4.310062       117.2827 
 606   0.0000       4.311981       117.3350 
 607   0.0000       4.316823       117.4667 
 608   0.0000       4.325959       117.7153 
 609   0.0000       4.334763       117.9549 
 610   0.0000       4.339165       118.0747 
 611   0.0000       4.350392       118.3802 
 612   0.0000       4.364734       118.7704 
 613   0.0000       4.369260       118.8936 
 614   0.0000       4.379046       119.1599 
 615   0.0000       4.381775       119.2342 
 616   0.0000       4.396685       119.6399 
 617   0.0000       4.408814       119.9699 
 618   0.0000       4.419206       120.2527 
 619   0.0000       4.421516       120.3156 
 620   0.0000       4.427040       120.4659 
 621   0.0000       4.433888       120.6522 
 622   0.0000       4.444089       120.9298 
 623   0.0000       4.449012       121.0638 
 624   0.0000       4.462312       121.4257 
 625   0.0000       4.467618       121.5701 
 626   0.0000       4.474680       121.7622 
 627   0.0000       4.486574       122.0859 
 628   0.0000       4.493173       122.2655 
 629   0.0000       4.506860       122.6379 
 630   0.0000       4.512411       122.7889 
 631   0.0000       4.523150       123.0812 
 632   0.0000       4.525486       123.1447 
 633   0.0000       4.536987       123.4577 
 634   0.0000       4.541551       123.5819 
 635   0.0000       4.546392       123.7136 
 636   0.0000       4.551405       123.8500 
 637   0.0000       4.566407       124.2582 
 638   0.0000       4.567797       124.2961 
 639   0.0000       4.577100       124.5492 
 640   0.0000       4.594853       125.0323 
 641   0.0000       4.601339       125.2088 
 642   0.0000       4.612141       125.5027 
 643   0.0000       4.621271       125.7512 
 644   0.0000       4.630519       126.0028 
 645   0.0000       4.632786       126.0645 
 646   0.0000       4.640200       126.2663 
 647   0.0000       4.657213       126.7292 
 648   0.0000       4.662965       126.8857 
 649   0.0000       4.664588       126.9299 
 650   0.0000       4.672326       127.1405 
 651   0.0000       4.674523       127.2002 
 652   0.0000       4.677235       127.2740 
 653   0.0000       4.682522       127.4179 
 654   0.0000       4.700882       127.9175 
 655   0.0000       4.703799       127.9969 
 656   0.0000       4.710727       128.1854 
 657   0.0000       4.728814       128.6776 
 658   0.0000       4.746429       129.1569 
 659   0.0000       4.759625       129.5160 
 660   0.0000       4.767041       129.7178 
 661   0.0000       4.774887       129.9313 
 662   0.0000       4.792490       130.4103 
 663   0.0000       4.808428       130.8440 
 664   0.0000       4.811665       130.9321 
 665   0.0000       4.829842       131.4267 
 666   0.0000       4.840972       131.7296 
 667   0.0000       4.874513       132.6422 
 668   0.0000       4.888294       133.0173 
 669   0.0000       4.910580       133.6237 
 670   0.0000       4.911657       133.6530 
 671   0.0000       4.917017       133.7988 
 672   0.0000       4.939215       134.4029 
 673   0.0000       4.959556       134.9564 
 674   0.0000       4.988664       135.7484 
 675   0.0000       4.989924       135.7827 
 676   0.0000       5.013516       136.4247 
 677   0.0000       5.021590       136.6444 
 678   0.0000       5.029908       136.8708 
 679   0.0000       5.035360       137.0191 
 680   0.0000       5.036576       137.0522 
 681   0.0000       5.052682       137.4905 
 682   0.0000       5.075306       138.1061 
 683   0.0000       5.094362       138.6246 
 684   0.0000       5.116047       139.2147 
 685   0.0000       5.122074       139.3787 
 686   0.0000       5.126820       139.5079 
 687   0.0000       5.127488       139.5261 
 688   0.0000       5.149816       140.1336 
 689   0.0000       5.157651       140.3468 
 690   0.0000       5.170788       140.7043 
 691   0.0000       5.178710       140.9199 
 692   0.0000       5.185269       141.0983 
 693   0.0000       5.202426       141.5652 
 694   0.0000       5.206594       141.6786 
 695   0.0000       5.221960       142.0967 
 696   0.0000       5.231195       142.3480 
 697   0.0000       5.233977       142.4238 
 698   0.0000       5.241012       142.6152 
 699   0.0000       5.256655       143.0409 
 700   0.0000       5.264588       143.2567 
 701   0.0000       5.276977       143.5938 
 702   0.0000       5.296645       144.1290 
 703   0.0000       5.302365       144.2847 
 704   0.0000       5.321765       144.8126 
 705   0.0000       5.332095       145.0937 
 706   0.0000       5.340406       145.3198 
 707   0.0000       5.344604       145.4341 
 708   0.0000       5.356548       145.7591 
 709   0.0000       5.373473       146.2196 
 710   0.0000       5.387459       146.6002 
 711   0.0000       5.407012       147.1323 
 712   0.0000       5.447090       148.2229 
 713   0.0000       5.462262       148.6357 
 714   0.0000       5.471552       148.8885 
 715   0.0000       5.480870       149.1420 
 716   0.0000       5.498249       149.6150 
 717   0.0000       5.501090       149.6923 
 718   0.0000       5.515267       150.0781 
 719   0.0000       5.523167       150.2930 
 720   0.0000       5.538944       150.7223 
 721   0.0000       5.548342       150.9781 
 722   0.0000       5.558234       151.2472 
 723   0.0000       5.570560       151.5826 
 724   0.0000       5.579560       151.8275 
 725   0.0000       5.593174       152.1980 
 726   0.0000       5.616462       152.8317 
 727   0.0000       5.633474       153.2946 
 728   0.0000       5.637791       153.4121 
 729   0.0000       5.648289       153.6978 
 730   0.0000       5.654945       153.8789 
 731   0.0000       5.662208       154.0765 
 732   0.0000       5.674476       154.4104 
 733   0.0000       5.688990       154.8053 
 734   0.0000       5.714063       155.4876 
 735   0.0000       5.718141       155.5985 
 736   0.0000       5.732701       155.9947 
 737   0.0000       5.737437       156.1236 
 738   0.0000       5.748876       156.4349 
 739   0.0000       5.753660       156.5650 
 740   0.0000       5.762618       156.8088 
 741   0.0000       5.770703       157.0288 
 742   0.0000       5.796411       157.7284 
 743   0.0000       5.804903       157.9594 
 744   0.0000       5.814074       158.2090 
 745   0.0000       5.817965       158.3149 
 746   0.0000       5.847073       159.1069 
 747   0.0000       5.857928       159.4023 
 748   0.0000       5.878654       159.9663 
 749   0.0000       5.890377       160.2853 
 750   0.0000       5.933620       161.4620 
 751   0.0000       5.958806       162.1474 
 752   0.0000       5.972670       162.5246 
 753   0.0000       5.997878       163.2106 
 754   0.0000       6.004453       163.3895 
 755   0.0000       6.040971       164.3832 
 756   0.0000       6.050731       164.6488 
 757   0.0000       6.052597       164.6995 
 758   0.0000       6.074399       165.2928 
 759   0.0000       6.081051       165.4738 
 760   0.0000       6.097480       165.9209 
 761   0.0000       6.173823       167.9983 
 762   0.0000       6.210135       168.9864 
 763   0.0000       6.234739       169.6559 
 764   0.0000       6.237618       169.7342 
 765   0.0000       6.299991       171.4315 
 766   0.0000       6.319651       171.9665 
 767   0.0000       6.347942       172.7363 
 768   0.0000       6.353361       172.8837 
 769   0.0000       6.379540       173.5961 
 770   0.0000       6.388318       173.8350 
 771   0.0000       6.401213       174.1859 
 772   0.0000       6.434677       175.0965 
 773   0.0000       6.448423       175.4705 
 774   0.0000       6.460360       175.7953 
 775   0.0000       6.480920       176.3548 
 776   0.0000       6.506590       177.0533 
 777   0.0000       6.548439       178.1921 
 778   0.0000       6.556874       178.4216 
 779   0.0000       6.598650       179.5584 
 780   0.0000       6.636614       180.5915 
 781   0.0000       6.688279       181.9973 
 782   0.0000       6.720061       182.8622 
 783   0.0000       6.744240       183.5201 
 784   0.0000       6.840924       186.1510 
 785   0.0000       6.891949       187.5395 
 786   0.0000       6.910777       188.0518 
 787   0.0000       6.922278       188.3648 
 788   0.0000       6.958661       189.3548 
 789   0.0000       7.015536       190.9024 
 790   0.0000       7.052893       191.9190 
 791   0.0000       7.064685       192.2399 
 792   0.0000       7.082798       192.7327 
 793   0.0000       7.133103       194.1016 
 794   0.0000       7.172100       195.1628 
 795   0.0000       7.221881       196.5174 
 796   0.0000       7.260403       197.5656 
 797   0.0000       7.282139       198.1571 
 798   0.0000       7.344560       199.8556 
 799   0.0000       7.388787       201.0591 
 800   0.0000       7.424025       202.0180 
 801   0.0000       7.525479       204.7787 
 802   0.0000       7.580547       206.2772 
 803   0.0000       7.587444       206.4649 
 804   0.0000       7.642994       207.9764 
 805   0.0000       7.741174       210.6480 
 806   0.0000       7.820994       212.8201 
 807   0.0000       7.934072       215.8971 
 808   0.0000       8.038642       218.7426 
 809   0.0000       9.516700       258.9626 
 810   0.0000       9.677659       263.3425 
 811   0.0000      10.782095       293.3957 
 812   0.0000      11.107194       302.2421 
 813   0.0000      11.936204       324.8006 
 814   0.0000      12.580780       342.3404 
 815   0.0000      12.870742       350.2307 
 816   0.0000      12.964393       352.7791 
 817   0.0000      13.085825       356.0834 
 818   0.0000      13.280723       361.3868 
 819   0.0000      13.437663       365.6574 
 820   0.0000      13.518980       367.8702 
 821   0.0000      13.718539       373.3004 
 822   0.0000      13.970929       380.1683 
 823   0.0000      14.096731       383.5915 
 824   0.0000      14.237544       387.4233 
 825   0.0000      14.444013       393.0416 
 826   0.0000      14.703875       400.1128 
 827   0.0000      15.974406       434.6857 

                    ********************************
                    * MULLIKEN POPULATION ANALYSIS *
                    ********************************

-----------------------
MULLIKEN ATOMIC CHARGES
-----------------------
   0 C :   -0.346506
   1 C :    0.043399
   2 O :   -0.343606
   3 C :    0.439335
   4 O :   -0.386428
   5 C :   -0.211758
   6 C :    0.140528
   7 C :   -0.334546
   8 N :   -0.134728
   9 C :    0.196282
  10 S :   -0.437920
  11 N :   -0.215520
  12 C :    0.072766
  13 C :    0.019665
  14 C :   -0.202701
  15 C :   -0.135518
  16 C :   -0.277621
  17 C :    0.316732
  18 O :   -0.358087
  19 C :   -0.268467
  20 H :    0.130821
  21 H :    0.123689
  22 H :    0.109057
  23 H :    0.128669
  24 H :    0.088820
  25 H :    0.142265
  26 H :    0.131998
  27 H :    0.119778
  28 H :    0.197811
  29 H :    0.199400
  30 H :    0.165509
  31 H :    0.175159
  32 H :    0.163612
  33 H :    0.131898
  34 H :    0.241068
  35 H :    0.175145
Sum of atomic charges:    0.0000000

--------------------------------
MULLIKEN REDUCED ORBITAL CHARGES
--------------------------------
  0 C s       :     3.273116  s :     3.273116
      pz      :     0.918867  p :     2.990985
      px      :     1.052044
      py      :     1.020075
      dz2     :     0.020625  d :     0.077998
      dxz     :     0.009921
      dyz     :     0.018929
      dx2y2   :     0.021323
      dxy     :     0.007199
      f0      :     0.001058  f :     0.004406
      f+1     :     0.000922
      f-1     :     0.000830
      f+2     :     0.000277
      f-2     :     0.000251
      f+3     :     0.000485
      f-3     :     0.000583
  1 C s       :     3.168033  s :     3.168033
      pz      :     0.949305  p :     2.622138
      px      :     0.638179
      py      :     1.034654
      dz2     :     0.025483  d :     0.155093
      dxz     :     0.035389
      dyz     :     0.022858
      dx2y2   :     0.033173
      dxy     :     0.038190
      f0      :     0.001819  f :     0.011337
      f+1     :     0.001839
      f-1     :     0.000964
      f+2     :     0.001693
      f-2     :     0.000427
      f+3     :     0.002245
      f-3     :     0.002351
  2 O s       :     3.721228  s :     3.721228
      pz      :     1.633008  p :     4.590097
      px      :     1.173408
      py      :     1.783681
      dz2     :     0.004640  d :     0.029998
      dxz     :     0.011086
      dyz     :     0.002908
      dx2y2   :     0.004748
      dxy     :     0.006617
      f0      :     0.000158  f :     0.002283
      f+1     :     0.000386
      f-1     :     0.000046
      f+2     :     0.000458
      f-2     :     0.000266
[...]
 15 C s       :     2.705684  s :     2.705684
      pz      :     0.897450  p :     2.794099
      px      :     0.926861
      py      :     0.969788
      dz2     :     0.093931  d :     0.416283
      dxz     :     0.067636
      dyz     :     0.059599
      dx2y2   :     0.106496
      dxy     :     0.088622
      f0      :     0.003072  f :     0.041069
      f+1     :     0.005187
      f-1     :     0.006263
      f+2     :     0.006883
      f-2     :     0.006636
      f+3     :     0.006537
      f-3     :     0.006491
 16 C s       :     2.701730  s :     2.701730
      pz      :     0.938175  p :     2.868625
      px      :     0.959192
      py      :     0.971259
      dz2     :     0.045751  d :     0.391115
      dxz     :     0.054852
      dyz     :     0.090387
      dx2y2   :     0.092536
      dxy     :     0.107588
      f0      :     0.004681  f :     0.040365
      f+1     :     0.004641
      f-1     :     0.003464
      f+2     :     0.005939
      f-2     :     0.005770
      f+3     :     0.008262
      f-3     :     0.007609
 17 C s       :     2.701419  s :     2.701419
      pz      :     0.838785  p :     2.684217
      px      :     0.819183
      py      :     1.026249
      dz2     :     0.127987  d :     0.709264
      dxz     :     0.109006
      dyz     :     0.141037
      dx2y2   :     0.165054
      dxy     :     0.166181
      f0      :     0.009903  f :     0.099339
      f+1     :     0.016005
      f-1     :     0.009299
      f+2     :     0.015466
      f-2     :     0.015630
      f+3     :     0.015459
      f-3     :     0.017577
 18 O s       :     3.177149  s :     3.177149
      pz      :     1.436160  p :     4.347171
      px      :     1.424122
      py      :     1.486889
      dz2     :     0.008645  d :     0.075600
      dxz     :     0.017624
      dyz     :     0.017778
      dx2y2   :     0.016555
      dxy     :     0.014998
      f0      :     0.000606  f :     0.005072
      f+1     :     0.000766
      f-1     :     0.000342
      f+2     :     0.000812
      f-2     :     0.000958
      f+3     :     0.000700
      f-3     :     0.000888
 19 C s       :     2.695911  s :     2.695911
      pz      :     0.931966  p :     2.846338
      px      :     0.946857
      py      :     0.967515
      dz2     :     0.075768  d :     0.388352
      dxz     :     0.065034
      dyz     :     0.062479
      dx2y2   :     0.093300
      dxy     :     0.091770
      f0      :     0.003162  f :     0.040731
      f+1     :     0.005274
      f-1     :     0.005732
      f+2     :     0.006940
      f-2     :     0.007131
      f+3     :     0.006575
      f-3     :     0.005917
 20 H s       :     0.836634  s :     0.836634
      pz      :     0.056750  p :     0.156355
      px      :     0.049274
      py      :     0.050331
      dz2     :     0.007315  d :     0.028018
      dxz     :     0.004934
      dyz     :     0.005516
      dx2y2   :     0.006249
      dxy     :     0.004004
 21 H s       :     0.840811  s :     0.840811
      pz      :     0.039724  p :     0.152316
      px      :     0.070542
      py      :     0.042051
      dz2     :     0.002614  d :     0.027647
      dxz     :     0.008693
      dyz     :     0.000306
      dx2y2   :     0.007332
      dxy     :     0.008702
 22 H s       :     0.848692  s :     0.848692
      pz      :     0.040972  p :     0.158603
      px      :     0.044768
      py      :     0.072864
      dz2     :     0.003238  d :     0.028401
      dxz     :     0.000501
      dyz     :     0.008536
      dx2y2   :     0.007286
      dxy     :     0.008840
 23 H s       :     0.847543  s :     0.847543
      pz      :     0.043228  p :     0.144531
      px      :     0.030077
      py      :     0.071227
      dz2     :     0.003646  d :     0.027086
      dxz     :     0.001563
      dyz     :     0.008087
      dx2y2   :     0.007035
      dxy     :     0.006755
 24 H s       :     0.859877  s :     0.859877
      pz      :     0.056480  p :     0.148069
      px      :     0.032580
      py      :     0.059009
      dz2     :     0.007373  d :     0.027224
      dxz     :     0.004127
      dyz     :     0.005838
      dx2y2   :     0.005557
      dxy     :     0.004329
 25 H s       :     0.827170  s :     0.827170
      pz      :     0.054962  p :     0.151497
      px      :     0.041911
      py      :     0.054624
      dz2     :     0.007719  d :     0.027750
      dxz     :     0.005168
      dyz     :     0.006415
      dx2y2   :     0.004981
      dxy     :     0.003466
 26 H s       :     0.833672  s :     0.833672
      pz      :     0.038756  p :     0.150252
      px      :     0.042140
      py      :     0.069356
      dz2     :     0.003140  d :     0.027724
      dxz     :     0.001138
      dyz     :     0.008401
      dx2y2   :     0.007560
      dxy     :     0.007485
 27 H s       :     0.836271  s :     0.836271
      pz      :     0.037990  p :     0.154166
      px      :     0.074691
      py      :     0.041486
      dz2     :     0.002347  d :     0.027810
      dxz     :     0.008903
      dyz     :     0.000053
      dx2y2   :     0.006981
      dxy     :     0.009527
 28 H s       :     0.742524  s :     0.742524
      pz      :     0.055796  p :     0.253262
      px      :     0.091136
      py      :     0.106330
      dz2     :     0.007084  d :     0.061736
      dxz     :     0.004119
      dyz     :     0.014907
      dx2y2   :     0.017942
      dxy     :     0.017683
 29 H s       :     0.747735  s :     0.747735
      pz      :     0.116623  p :     0.254168
      px      :     0.092650
      py      :     0.044895
      dz2     :     0.022230  d :     0.061371
      dxz     :     0.017185
      dyz     :     0.011939
      dx2y2   :     0.005873
      dxy     :     0.004144
 30 H s       :     0.823646  s :     0.823646
      pz      :     0.038356  p :     0.150105
      px      :     0.074464
      py      :     0.037285
      dz2     :     0.002804  d :     0.028469
      dxz     :     0.008222
      dyz     :     0.001673
      dx2y2   :     0.008164
      dxy     :     0.007606
 31 H s       :     0.837090  s :     0.837090
      pz      :     0.056859  p :     0.157395
      px      :     0.065225
      py      :     0.035311
      dz2     :     0.005579  d :     0.027454
      dxz     :     0.007024
      dyz     :     0.003609
      dx2y2   :     0.005490
      dxy     :     0.005752
 32 H s       :     0.841648  s :     0.841648
      pz      :     0.036455  p :     0.150809
      px      :     0.039860
      py      :     0.074494
      dz2     :     0.002603  d :     0.026422
      dxz     :     0.000835
      dyz     :     0.007108
      dx2y2   :     0.007920
      dxy     :     0.007957
 33 H s       :     0.848454  s :     0.848454
      pz      :     0.056293  p :     0.158892
      px      :     0.048045
      py      :     0.054554
      dz2     :     0.005792  d :     0.027741
      dxz     :     0.004378
      dyz     :     0.006178
      dx2y2   :     0.005932
      dxy     :     0.005461
 34 H s       :     0.706419  s :     0.706419
      pz      :     0.109398  p :     0.347711
      px      :     0.085505
      py      :     0.152809
      dz2     :     0.021717  d :     0.099535
      dxz     :     0.010353
      dyz     :     0.024766
      dx2y2   :     0.021462
      dxy     :     0.021237
 35 H s       :     0.837881  s :     0.837881
      pz      :     0.040900  p :     0.159248
      px      :     0.042442
      py      :     0.075905
      dz2     :     0.002568  d :     0.028088
      dxz     :     0.001037
      dyz     :     0.007793
      dx2y2   :     0.008173
      dxy     :     0.008518


                      *****************************
                      * MAYER POPULATION ANALYSIS *
                      *****************************

  NA   - Mulliken gross atomic population
  ZA   - Total nuclear charge
  QA   - Mulliken gross atomic charge
  VA   - Mayer's total valence
  BVA  - Mayer's bonded valence
  FA   - Mayer's free valence

  ATOM       NA         ZA         QA         VA         BVA        FA
  0 C      6.3465     6.0000    -0.3465     3.8788     3.8788    -0.0000
  1 C      5.9566     6.0000     0.0434     3.8592     3.8592     0.0000
  2 O      8.3436     8.0000    -0.3436     2.0379     2.0379    -0.0000
  3 C      5.5607     6.0000     0.4393     4.2471     4.2471    -0.0000
  4 O      8.3864     8.0000    -0.3864     2.1222     2.1222    -0.0000
  5 C      6.2118     6.0000    -0.2118     3.5838     3.5838    -0.0000
  6 C      5.8595     6.0000     0.1405     3.7904     3.7904    -0.0000
  7 C      6.3345     6.0000    -0.3345     3.8774     3.8774    -0.0000
  8 N      7.1347     7.0000    -0.1347     3.2592     3.2592     0.0000
  9 C      5.8037     6.0000     0.1963     4.1500     4.1500    -0.0000
 10 S     16.4379    16.0000    -0.4379     1.7547     1.7547     0.0000
 11 N      7.2155     7.0000    -0.2155     3.2531     3.2531     0.0000
 12 C      5.9272     6.0000     0.0728     3.9399     3.9399    -0.0000
 13 C      5.9803     6.0000     0.0197     3.7257     3.7257     0.0000
 14 C      6.2027     6.0000    -0.2027     3.8711     3.8711    -0.0000
 15 C      6.1355     6.0000    -0.1355     3.8102     3.8102     0.0000
 16 C      6.2776     6.0000    -0.2776     3.7873     3.7873     0.0000
 17 C      5.6833     6.0000     0.3167     3.8689     3.8689    -0.0000
 18 O      8.3581     8.0000    -0.3581     2.1168     2.1168    -0.0000
 19 C      6.2685     6.0000    -0.2685     3.8179     3.8179     0.0000
 20 H      0.8692     1.0000     0.1308     0.9679     0.9679    -0.0000
 21 H      0.8763     1.0000     0.1237     0.9823     0.9823    -0.0000
 22 H      0.8909     1.0000     0.1091     0.9650     0.9650     0.0000
 23 H      0.8713     1.0000     0.1287     0.9696     0.9696    -0.0000
 24 H      0.9112     1.0000     0.0888     0.9638     0.9638     0.0000
 25 H      0.8577     1.0000     0.1423     0.9813     0.9813    -0.0000
 26 H      0.8680     1.0000     0.1320     0.9838     0.9838    -0.0000
 27 H      0.8802     1.0000     0.1198     0.9702     0.9702    -0.0000
 28 H      0.8022     1.0000     0.1978     1.0214     1.0214    -0.0000
 29 H      0.8006     1.0000     0.1994     1.0146     1.0146     0.0000
 30 H      0.8345     1.0000     0.1655     0.9943     0.9943    -0.0000
 31 H      0.8248     1.0000     0.1752     0.9851     0.9851    -0.0000
 32 H      0.8364     1.0000     0.1636     0.9765     0.9765     0.0000
 33 H      0.8681     1.0000     0.1319     0.9909     0.9909     0.0000
 34 H      0.7589     1.0000     0.2411     1.0105     1.0105     0.0000
 35 H      0.8249     1.0000     0.1751     0.9870     0.9870     0.0000

  Mayer bond orders larger than 0.100000
B(  0-C ,  1-C ) :   0.9611 B(  0-C , 20-H ) :   0.9655 B(  0-C , 21-H ) :   0.9769 
B(  0-C , 22-H ) :   0.9720 B(  1-C ,  2-O ) :   0.9009 B(  1-C , 23-H ) :   0.9796 
B(  1-C , 24-H ) :   0.9758 B(  2-O ,  3-C ) :   1.1659 B(  3-C ,  4-O ) :   2.0705 
B(  3-C ,  5-C ) :   0.9446 B(  5-C ,  6-C ) :   1.6886 B(  5-C , 12-C ) :   0.9566 
B(  6-C ,  7-C ) :   0.9431 B(  6-C ,  8-N ) :   1.1110 B(  7-C , 25-H ) :   0.9736 
B(  7-C , 26-H ) :   0.9794 B(  7-C , 27-H ) :   0.9639 B(  8-N ,  9-C ) :   1.1885 
B(  8-N , 28-H ) :   0.9509 B(  9-C , 10-S ) :   1.6128 B(  9-C , 11-N ) :   1.2921 
B( 11-N , 12-C ) :   0.9885 B( 11-N , 29-H ) :   0.9498 B( 12-C , 13-C ) :   0.9461 
B( 12-C , 30-H ) :   0.9963 B( 13-C , 14-C ) :   1.3915 B( 13-C , 19-C ) :   1.3460 
B( 14-C , 15-C ) :   1.3973 B( 14-C , 31-H ) :   0.9575 B( 15-C , 16-C ) :   1.3610 
B( 15-C , 32-H ) :   0.9704 B( 16-C , 17-C ) :   1.3295 B( 16-C , 33-H ) :   0.9848 
B( 17-C , 18-O ) :   1.1112 B( 17-C , 19-C ) :   1.3711 B( 18-O , 34-H ) :   0.9797 
B( 19-C , 35-H ) :   0.9577 

-------
TIMINGS
-------

Total SCF time: 0 days 2 hours 8 min 38 sec 

Total time                  ....    7718.893 sec
Sum of individual times     ....    7711.349 sec  ( 99.9%)

Fock matrix formation       ....    7690.628 sec  ( 99.6%)
Diagonalization             ....       1.527 sec  (  0.0%)
Density matrix formation    ....       0.200 sec  (  0.0%)
Population analysis         ....       0.294 sec  (  0.0%)
Initial guess               ....       6.690 sec  (  0.1%)
Orbital Transformation      ....       0.000 sec  (  0.0%)
Orbital Orthonormalization  ....       0.000 sec  (  0.0%)
DIIS solution               ....       8.089 sec  (  0.1%)
SOSCF solution              ....       2.395 sec  (  0.0%)

Maximum memory used throughout the entire SCF-calculation: 761.7 MB

------------------------------------------------------------------------------
                                ORCA  MP2 
------------------------------------------------------------------------------

Freezing NCore=48 chemical core electrons

-------------
RI-MP2 ENERGY
-------------
Dimension of the basis                    ...  828
Memory devoted to MP2                     ...  256 MB   
Data format for buffers                   ... DOUBLE
Compression type for matrix containers    ... UNCOMPRESSED
Overall scaling of the MP2 energy         ...   1.000e+00
Calculating two index integrals           ... done (    0.043 sec)
Cholesky decomposition of V**-1           ... done (    0.639 sec)

-----------------
RI-TRANSFORMATION (AUX index driven)
-----------------

Dimension of the orbital-basis         ... 828
Dimension of the aux-basis             ... 2141
Transformation of internal/external MOs...   24-  76 to   77- 827
Number Format for Storage              ... Double (8 Byte)
Integral mode                          ... Direct

First Phase: integral generation and transformation of MO indices
  Aux angular momentum 0               ... done (    5.070 sec)
  Aux angular momentum 1               ... done (    8.567 sec)
  Aux angular momentum 2               ... done (   12.721 sec)
  Aux angular momentum 3               ... done (   10.720 sec)
  Aux angular momentum 4               ... done (    3.737 sec)
Closing buffer VIA ( 0.63 GB; CompressionRatio= 1.00)
  Phase 1 completed in    41.080 sec
Second Phase: sorting and transformation of aux index

IA-Transformation
Memory available                       ... 156 MB 
Max. # MO pairs treated in a batch     ... 11    
# of internal orbitals                 ... 53
# batches for internal orbitals        ... 5
Closing buffer IAV ( 0.63 GB; CompressionRatio= 1.00)
(ia|v) transformation done in    32.157 sec

  Phase 2 completed in    32.168 sec
RI-Integral transformation completed in    73.280 sec
Opening buffers                              ... done

Starting loop over batches of integrals:

Operator 0  - window                       ... ( 24- 76)x( 77-827)
Operator 0  - Memory available             ...   256 MB
Operator 0  - Memory needed per MO         ...  12.3 MB
Operator 0  - Number of orbitals per batch ... 13
Operator 0  - Number of batches            ... 5

OPERATOR  0   PASS   0:  MOs    24 ...   36
  Reading integrals       ... ok
  Internal MO  26
  Internal MO  29
  Internal MO  32
  Internal MO  35
OPERATOR  0   PASS   1:  MOs    37 ...   49
  Reading integrals       ... ok
  Internal MO  38
  Internal MO  41
  Internal MO  44
  Internal MO  47
OPERATOR  0   PASS   2:  MOs    50 ...   62
  Reading integrals       ... ok
  Internal MO  50
  Internal MO  53
  Internal MO  56
  Internal MO  59
  Internal MO  62
OPERATOR  0   PASS   3:  MOs    63 ...   75
  Reading integrals       ... ok
  Internal MO  65
  Internal MO  68
  Internal MO  71
  Internal MO  74
OPERATOR  0   PASS   4:  MOs    76 ...   76
  Reading integrals       ... ok
Time spent in pair loops =   100.362 sec
Deleting buffer (Ka|jb)[aa] ...done

-----------------------------------------------
 RI-MP2 CORRELATION ENERGY:     -3.541740127 Eh
-----------------------------------------------


-------
TIMINGS
-------

Total time                :  174.431 sec
Integral trafo            :   73.302 sec ( 42.0%)
I/O of integrals          :    4.134 sec (  2.4%)
K(i,j) Operators          :   59.863 sec ( 34.3%)
T(i,j) pair energies      :    8.387 sec (  4.8%)
V-calculation             :    0.043 sec (  0.0%)
V**(-1/2)                 :    0.639 sec (  0.4%)
Gamma(ia|P)               :    0.000 sec (  0.0%)
Gamma-Trafo               :    0.000 sec (  0.0%)
D(virtual)                :    0.000 sec (  0.0%)
D(internal)               :    0.000 sec (  0.0%)
W(virtual)                :    0.000 sec (  0.0%)
W(internal)               :    0.000 sec (  0.0%)
L(virtual)                :    0.000 sec (  0.0%)
L(internal)               :    0.000 sec (  0.0%)
G(D)                      :    0.000 sec (  0.0%)
G(Z)                      :    0.000 sec (  0.0%)
Z-Vector Solution         :    0.000 sec (  0.0%)
3-Index Derivative        :    0.000 sec (  0.0%)
2-Index Derivative        :    0.000 sec (  0.0%)
Separable Gradient        :    0.000 sec (  0.0%)


---------------------------------------
MP2 TOTAL ENERGY:    -1274.328160448 Eh
---------------------------------------

Maximum memory used throughout the entire MP2-calculation: 306.0 MB

-------------------------   --------------------
FINAL SINGLE POINT ENERGY     -1274.328160447928
-------------------------   --------------------


                            ***************************************
                            *     ORCA property calculations      *
                            ***************************************


  WARNING: The energy has been calculated at the MP2 level but the densities
           used in the property calculations are still SCF densities
           MP2 response densities have not been calculated 
           use %mp2 Density relaxed end
           or  %mp2 Density unrelaxed end

                                    ---------------------
                                    Active property flags
                                    ---------------------
   (+) Dipole Moment


------------------------------------------------------------------------------
                       ORCA ELECTRIC PROPERTIES CALCULATION
------------------------------------------------------------------------------

Dipole Moment Calculation                       ... on
Quadrupole Moment Calculation                   ... off
Polarizability Calculation                      ... off
GBWName                                         ... CONFS/Conf479.orca.gbw
Electron density file                           ... CONFS/Conf479.orca.scfp
The origin for moment calculation is the CENTER OF MASS  = (32.779150, 31.296524 35.230960)

-------------
DIPOLE MOMENT
-------------
                                X             Y             Z
Electronic contribution:      9.60658       6.01128       6.37063
Nuclear contribution   :    -11.24408      -7.02638      -6.91305
                        -----------------------------------------
Total Dipole Moment    :     -1.63750      -1.01510      -0.54242
                        -----------------------------------------
Magnitude (a.u.)       :      2.00151
Magnitude (Debye)      :      5.08743



--------------------
Rotational spectrum 
--------------------
 
Rotational constants in cm-1:     0.011419     0.009748     0.006807 
Rotational constants in MHz :   342.336670   292.237657   204.057393 

 Dipole components along the rotational axes: 
x,y,z [a.u.] :    -1.060083    -0.984009     1.383471 
x,y,z [Debye]:    -2.694518    -2.501152     3.516504 

 

Timings for individual modules:

Sum of individual times         ...     7898.567 sec (= 131.643 min)
GTO integral calculation        ...        3.917 sec (=   0.065 min)   0.0 %
SCF iterations                  ...     7719.152 sec (= 128.653 min)  97.7 %
MP2 module                      ...      175.498 sec (=   2.925 min)   2.2 %
                             ****ORCA TERMINATED NORMALLY****
TOTAL RUN TIME: 0 days 2 hours 11 minutes 40 seconds 651 msec
