
                                        *****************
                                        * O   R   C   A *
                                        *****************

                                            #,                                       
                                            ###                                      
                                            ####                                     
                                            #####                                    
                                            ######                                   
                                           ########,                                 
                                     ,,################,,,,,                         
                               ,,#################################,,                 
                          ,,##########################################,,             
                       ,#########################################, ''#####,          
                    ,#############################################,,   '####,        
                  ,##################################################,,,,####,       
                ,###########''''           ''''###############################       
              ,#####''   ,,,,##########,,,,          '''####'''          '####       
            ,##' ,,,,###########################,,,                        '##       
           ' ,,###''''                  '''############,,,                           
         ,,##''                                '''############,,,,        ,,,,,,###''
      ,#''                                            '''#######################'''  
     '                                                          ''''####''''         
             ,#######,   #######,   ,#######,      ##                                
            ,#'     '#,  ##    ##  ,#'     '#,    #''#        ######   ,####,        
            ##       ##  ##   ,#'  ##            #'  '#       #        #'  '#        
            ##       ##  #######   ##           ,######,      #####,   #    #        
            '#,     ,#'  ##    ##  '#,     ,#' ,#      #,         ##   #,  ,#        
             '#######'   ##     ##  '#######'  #'      '#     #####' # '####'        



                  #######################################################
                  #                        -***-                        #
                  #          Department of theory and spectroscopy      #
                  #    Directorship and core code : Frank Neese         #
                  #        Max Planck Institute fuer Kohlenforschung    #
                  #                Kaiser Wilhelm Platz 1               #
                  #                 D-45470 Muelheim/Ruhr               #
                  #                      Germany                        #
                  #                                                     #
                  #                  All rights reserved                #
                  #                        -***-                        #
                  #######################################################


                         Program Version 5.0.0 -  RELEASE  -
                                (SVN: $Rev: 19529$)
                ($Date: 2021-06-28 11:36:33 +0200 (Mo, 28 Jun 2021) $)


 With contributions from (in alphabetic order):
   Daniel Aravena         : Magnetic Suceptibility
   Michael Atanasov       : Ab Initio Ligand Field Theory (pilot matlab implementation)
   Alexander A. Auer      : GIAO ZORA, VPT2 properties, NMR spectrum
   Ute Becker             : Parallelization
   Giovanni Bistoni       : ED, misc. LED, open-shell LED, HFLD
   Martin Brehm           : Molecular dynamics
   Dmytro Bykov           : SCF Hessian
   Vijay G. Chilkuri      : MRCI spin determinant printing, contributions to CSF-ICE
   Dipayan Datta          : RHF DLPNO-CCSD density
   Achintya Kumar Dutta   : EOM-CC, STEOM-CC
   Dmitry Ganyushin       : Spin-Orbit,Spin-Spin,Magnetic field MRCI
   Miquel Garcia          : C-PCM Hessian, Gaussian charge scheme
   Yang Guo               : DLPNO-NEVPT2, F12-NEVPT2, CIM, IAO-localization
   Andreas Hansen         : Spin unrestricted coupled pair/coupled cluster methods
   Benjamin Helmich-Paris : MC-RPA, TRAH-SCF, COSX integrals
   Lee Huntington         : MR-EOM, pCC
   Robert Izsak           : Overlap fitted RIJCOSX, COSX-SCS-MP3, EOM
   Marcus Kettner         : VPT2
   Christian Kollmar      : KDIIS, OOCD, Brueckner-CCSD(T), CCSD density, CASPT2, CASPT2-K
   Simone Kossmann        : Meta GGA functionals, TD-DFT gradient, OOMP2, MP2 Hessian
   Martin Krupicka        : Initial AUTO-CI
   Lucas Lang             : DCDCAS
   Marvin Lechner         : AUTO-CI (C++ implementation), FIC-MRCC
   Dagmar Lenk            : GEPOL surface, SMD
   Dimitrios Liakos       : Extrapolation schemes; Compound Job, initial MDCI parallelization
   Dimitrios Manganas     : Further ROCIS development; embedding schemes
   Dimitrios Pantazis     : SARC Basis sets
   Anastasios Papadopoulos: AUTO-CI, single reference methods and gradients
   Taras Petrenko         : DFT Hessian,TD-DFT gradient, ASA, ECA, R-Raman, ABS, FL, XAS/XES, NRVS
   Peter Pinski           : DLPNO-MP2, DLPNO-MP2 Gradient
   Christoph Reimann      : Effective Core Potentials
   Marius Retegan         : Local ZFS, SOC
   Christoph Riplinger    : Optimizer, TS searches, QM/MM, DLPNO-CCSD(T), (RO)-DLPNO pert. Triples
   Tobias Risthaus        : Range-separated hybrids, TD-DFT gradient, RPA, STAB
   Michael Roemelt        : Original ROCIS implementation
   Masaaki Saitow         : Open-shell DLPNO-CCSD energy and density
   Barbara Sandhoefer     : DKH picture change effects
   Avijit Sen             : IP-ROCIS
   Kantharuban Sivalingam : CASSCF convergence, NEVPT2, FIC-MRCI
   Bernardo de Souza      : ESD, SOC TD-DFT
   Georgi Stoychev        : AutoAux, RI-MP2 NMR
   Willem Van den Heuvel  : Paramagnetic NMR
   Boris Wezisla          : Elementary symmetry handling
   Frank Wennmohs         : Technical directorship


 We gratefully acknowledge several colleagues who have allowed us to
 interface, adapt or use parts of their codes:
   Stefan Grimme, W. Hujo, H. Kruse, P. Pracht,  : VdW corrections, initial TS optimization,
                  C. Bannwarth, S. Ehlert          DFT functionals, gCP, sTDA/sTD-DF
   Ed Valeev, F. Pavosevic, A. Kumar             : LibInt (2-el integral package), F12 methods
   Garnet Chan, S. Sharma, J. Yang, R. Olivares  : DMRG
   Ulf Ekstrom                                   : XCFun DFT Library
   Mihaly Kallay                                 : mrcc  (arbitrary order and MRCC methods)
   Jiri Pittner, Ondrej Demel                    : Mk-CCSD
   Frank Weinhold                                : gennbo (NPA and NBO analysis)
   Christopher J. Cramer and Donald G. Truhlar   : smd solvation model
   Lars Goerigk                                  : TD-DFT with DH, B97 family of functionals
   V. Asgeirsson, H. Jonsson                     : NEB implementation
   FAccTs GmbH                                   : IRC, NEB, NEB-TS, DLPNO-Multilevel, CI-OPT
                                                   MM, QMMM, 2- and 3-layer-ONIOM, Crystal-QMMM,
                                                   LR-CPCM, SF, NACMEs, symmetry and pop. for TD-DFT,
                                                   nearIR, NL-DFT gradient (VV10), updates on ESD,
                                                   ML-optimized integration grids
   S Lehtola, MJT Oliveira, MAL Marques          : LibXC Library
   Liviu Ungur et al                             : ANISO software


 Your calculation uses the libint2 library for the computation of 2-el integrals
 For citations please refer to: http://libint.valeyev.net

 Your ORCA version has been built with support for libXC version: 5.1.0
 For citations please refer to: https://tddft.org/programs/libxc/

 This ORCA versions uses:
   CBLAS   interface :  Fast vector & matrix operations
   LAPACKE interface :  Fast linear algebra routines
   SCALAPACK package :  Parallel linear algebra routines
   Shared memory     :  Shared parallel matrices
   BLAS/LAPACK       :  OpenBLAS 0.3.15  USE64BITINT DYNAMIC_ARCH NO_AFFINITY SkylakeX SINGLE_THREADED
        Core in use  :  SkylakeX
   Copyright (c) 2011-2014, The OpenBLAS Project


================================================================================

----- Orbital basis set information -----
Your calculation utilizes the basis: cc-pVTZ 
       H, B-Ne : Obtained from the ccRepo (grant-hill.group.shef.ac.uk/ccrepo) Feb. 2017
                 T. H. Dunning, Jr., J. Chem. Phys. 90, 1007 (1989)
            He : Obtained from the ccRepo (grant-hill.group.shef.ac.uk/ccrepo) Feb. 2017
                 D. E. Woon, T. H. Dunning, Jr., J. Chem. Phys. 100, 2975 (1994)
  Li-Be, Na-Mg : Obtained from the ccRepo (grant-hill.group.shef.ac.uk/ccrepo) Feb. 2017
                 B. P. Prascher, D. E. Woon, K. A. Peterson, T. H. Dunning, Jr., A. K. Wilson, Theor. Chem. Acc. 128, 69 (2011)
         Al-Ar : Obtained from the ccRepo (grant-hill.group.shef.ac.uk/ccrepo) Feb. 2017
                 D. E. Woon, T. H. Dunning, Jr., J. Chem. Phys. 98, 1358 (1993)
            Ca : Obtained from the Peterson Research Group Website (tyr0.chem.wsu.edu/~kipeters) Feb. 2017
                 J. Koput, K. A. Peterson, J. Phys. Chem. 106, 9595 (2002)
         Sc-Zn : Obtained from the ccRepo (grant-hill.group.shef.ac.uk/ccrepo) Feb. 2017
                 N. B. Balabanov, K. A. Peterson, J. Chem. Phys. 123, 064107 (2005)
                 N. B. Balabanov, K. A. Peterson, J. Chem. Phys. 125, 074110 (2006)
         Ga-Kr : Obtained from the ccRepo (grant-hill.group.shef.ac.uk/ccrepo) Feb. 2017
                 A. K. Wilson, D. E. Woon, K. A. Peterson, T. H. Dunning, Jr., J. Chem. Phys. 110, 7667 (1999)
             Y : Obtained from the ccRepo (grant-hill.group.shef.ac.uk/ccrepo) Feb. 2017
                 K. A. Peterson, D. Figgen, M. Dolg, H. Stoll, J. Chem. Phys. 126, 124101 (2007)
        Ag, Au : Obtained from the Peterson Research Group Website (tyr0.chem.wsu.edu/~kipeters) Feb. 2017
                 K. A. Peterson, C. Puzzarini, Theor. Chem. Acc. 114, 283 (2005)

----- AuxC basis set information -----
Your calculation utilizes the auxiliary basis: cc-pVTZ/C 
  Obtained from the EMSL Basis Set Exchange (bse.pnl.gov) Feb. 2017
  H-He, B-F, Al-Ar, Ga-Kr : F. Weigend, A. Kohn, C. Hattig, J. Chem. Phys. 116, 3175 (2002)
             Li-Be, Na-Mg : C. Haettig, Phys. Chem. Chem. Phys. 7, 59 (2005)
                       Ne : C. Haettig, Phys. Chem. Chem. Phys. 7, 59 (2005)
                            F. Weigend, A. Kohn, C. Hattig, J. Chem. Phys. 116, 3175 (2002)
                    Sc-Zn : J. G. Hill, J. A. Platts, J. Chem. Phys. 128, 044104 (2008)

================================================================================
                                        WARNINGS
                       Please study these warnings very carefully!
================================================================================


WARNING: No MP2 level density has been requested!
         To caclulate MP2 level properties use
         %mp2 Density relaxed end
         or
         %mp2 Density unrelaxed end

WARNING: Post HF methods need fully converged wavefunctions
  ===> : Setting SCFConvForced true
         You can overwrite this default with %scf ConvForced false 


INFO   : the flag for use of the SHARK integral package has been found!

================================================================================
                                       INPUT FILE
================================================================================
NAME = CONFS/Conf303.orca
|  1> ! ri-mp2 cc-pvtz cc-pvtz/c TightSCF NoKeepInts
|  2> 
|  3> %scf
|  4>   MaxCore 4096
|  5> end
|  6> *xyz  0  1
|  7>     C       15.2898132   14.6211392   17.2751185
|  8>     C       16.3669738   14.1311624   16.2874782
|  9>     O       17.6062040   14.8604440   16.4326692
| 10>     C       17.6320200   16.1796215   16.0803781
| 11>     O       17.1455355   16.5305883   15.0194880
| 12>     C       17.7657512   17.0969620   17.2659691
| 13>     C       17.3546799   18.3913064   17.2429257
| 14>     C       16.5917103   19.0979251   16.1429366
| 15>     N       17.6909430   19.2476516   18.2966040
| 16>     C       18.6238495   18.9601884   19.2583745
| 17>     S       19.1333199   20.0911246   20.3523142
| 18>     N       19.1207627   17.6808623   19.2595262
| 19>     C       18.5517737   16.5670080   18.4776752
| 20>     C       17.7303770   15.6758987   19.4042731
| 21>     C       18.0986137   14.3319920   19.6061220
| 22>     C       17.3715595   13.5151918   20.4886501
| 23>     C       16.2699075   14.0469722   21.1805138
| 24>     C       15.9034084   15.3859844   20.9872950
| 25>     O       14.8390372   15.9018271   21.6517326
| 26>     C       16.6275078   16.1959497   20.1068601
| 27>     H       15.5442432   14.3345873   18.2994494
| 28>     H       14.3242867   14.1592459   17.0366546
| 29>     H       15.1600869   15.7090782   17.2300236
| 30>     H       16.5513097   13.0637585   16.4638480
| 31>     H       15.9946894   14.2358734   15.2590827
| 32>     H       17.2084894   19.1808290   15.2388541
| 33>     H       16.2730688   20.1084936   16.4239276
| 34>     H       15.6904459   18.5329730   15.8732410
| 35>     H       17.3457603   20.1942408   18.2977413
| 36>     H       19.7869605   17.4875301   19.9962647
| 37>     H       19.3920488   15.9728912   18.0916821
| 38>     H       18.9507860   13.9176327   19.0738218
| 39>     H       17.6641551   12.4769539   20.6359374
| 40>     H       15.7062707   13.4204601   21.8640479
| 41>     H       14.5080362   15.2157780   22.2507047
| 42>     H       16.3326145   17.2318744   19.9818145
| 43> *
| 44> 
| 45>                          ****END OF INPUT****
================================================================================

                       ****************************
                       * Single Point Calculation *
                       ****************************

---------------------------------
CARTESIAN COORDINATES (ANGSTROEM)
---------------------------------
  C     15.289813   14.621139   17.275118
  C     16.366974   14.131162   16.287478
  O     17.606204   14.860444   16.432669
  C     17.632020   16.179621   16.080378
  O     17.145536   16.530588   15.019488
  C     17.765751   17.096962   17.265969
  C     17.354680   18.391306   17.242926
  C     16.591710   19.097925   16.142937
  N     17.690943   19.247652   18.296604
  C     18.623849   18.960188   19.258374
  S     19.133320   20.091125   20.352314
  N     19.120763   17.680862   19.259526
  C     18.551774   16.567008   18.477675
  C     17.730377   15.675899   19.404273
  C     18.098614   14.331992   19.606122
  C     17.371560   13.515192   20.488650
  C     16.269907   14.046972   21.180514
  C     15.903408   15.385984   20.987295
  O     14.839037   15.901827   21.651733
  C     16.627508   16.195950   20.106860
  H     15.544243   14.334587   18.299449
  H     14.324287   14.159246   17.036655
  H     15.160087   15.709078   17.230024
  H     16.551310   13.063759   16.463848
  H     15.994689   14.235873   15.259083
  H     17.208489   19.180829   15.238854
  H     16.273069   20.108494   16.423928
  H     15.690446   18.532973   15.873241
  H     17.345760   20.194241   18.297741
  H     19.786960   17.487530   19.996265
  H     19.392049   15.972891   18.091682
  H     18.950786   13.917633   19.073822
  H     17.664155   12.476954   20.635937
  H     15.706271   13.420460   21.864048
  H     14.508036   15.215778   22.250705
  H     16.332614   17.231874   19.981814

----------------------------
CARTESIAN COORDINATES (A.U.)
----------------------------
  NO LB      ZA    FRAG     MASS         X           Y           Z
   0 C     6.0000    0    12.011   28.893560   27.629949   32.645243
   1 C     6.0000    0    12.011   30.929098   26.704027   30.778873
   2 O     8.0000    0    15.999   33.270904   28.082169   31.053244
   3 C     6.0000    0    12.011   33.319689   30.575054   30.387511
   4 O     8.0000    0    15.999   32.400367   31.238285   28.382719
   5 C     6.0000    0    12.011   33.572404   32.308576   32.627953
   6 C     6.0000    0    12.011   32.795592   34.754532   32.584407
   7 C     6.0000    0    12.011   31.353789   36.089848   30.505729
   8 N     7.0000    0    14.007   33.431037   36.372790   34.575571
   9 C     6.0000    0    12.011   35.193975   35.829564   36.393054
  10 S    16.0000    0    32.060   36.156735   37.966723   38.460300
  11 N     7.0000    0    14.007   36.133005   33.411988   36.395230
  12 C     6.0000    0    12.011   35.057772   31.307108   34.917746
  13 C     6.0000    0    12.011   33.505557   29.623155   36.668762
  14 C     6.0000    0    12.011   34.201423   27.083540   37.050201
  15 C     6.0000    0    12.011   32.827490   25.540011   38.717938
  16 C     6.0000    0    12.011   30.745669   26.544930   40.025370
  17 C     6.0000    0    12.011   30.053086   29.075297   39.660240
  18 O     8.0000    0    15.999   28.041716   30.050098   40.915845
  19 C     6.0000    0    12.011   31.421436   30.605909   37.996459
  20 H     1.0000    0     1.008   29.374363   27.088444   34.580948
  21 H     1.0000    0     1.008   27.068979   26.757097   32.194611
  22 H     1.0000    0     1.008   28.648412   29.685856   32.560026
  23 H     1.0000    0     1.008   31.277442   24.686926   31.112164
  24 H     1.0000    0     1.008   30.225583   26.901902   28.835487
  25 H     1.0000    0     1.008   32.519332   36.246514   28.797261
  26 H     1.0000    0     1.008   30.751643   37.999546   31.036725
  27 H     1.0000    0     1.008   29.650646   35.022243   29.996078
  28 H     1.0000    0     1.008   32.778737   38.161585   34.577720
  29 H     1.0000    0     1.008   37.391936   33.046643   37.787464
  30 H     1.0000    0     1.008   36.645661   30.184390   34.188324
  31 H     1.0000    0     1.008   35.811796   26.300514   36.044300
  32 H     1.0000    0     1.008   33.380416   23.578026   38.996270
  33 H     1.0000    0     1.008   29.680550   25.360994   41.317063
  34 H     1.0000    0     1.008   27.416215   28.753653   42.047738
  35 H     1.0000    0     1.008   30.864168   32.563523   37.760157

--------------------------------
INTERNAL COORDINATES (ANGSTROEM)
--------------------------------
 C      0   0   0     0.000000000000     0.00000000     0.00000000
 C      1   0   0     1.541358357072     0.00000000     0.00000000
 O      2   1   0     1.445207101827   111.99044289     0.00000000
 C      3   2   1     1.365651771683   118.53799971   292.17501566
 O      4   3   2     1.218742248271   119.68178316   313.04706126
 C      4   3   2     1.504999550191   112.78341006   110.06706843
 C      6   4   3     1.358248150295   122.72405946   203.77238657
 C      7   6   4     1.513739943925   127.56873284     6.66694997
 N      7   6   4     1.398798746738   119.85869639   189.88424005
 C      9   7   6     1.370383932979   124.32579488    12.74165135
 S     10   9   7     1.653868448270   122.03808117   171.18333732
 N     10   9   7     1.372442831191   116.27022921   351.58622179
 C     12  10   9     1.475029108171   124.31870895   348.50092447
 C     13  12  10     1.525566121675   109.07700620   257.73752337
 C     14  13  12     1.407986670378   120.25115236   242.31987234
 C     15  14  13     1.405213942340   120.63239302   178.08225537
 C     16  15  14     1.405383542776   119.65751629   359.72438446
 C     17  16  15     1.401645021652   119.90631934     0.00000000
 O     18  17  16     1.356634463231   120.05808465   179.88062399
 C     18  17  16     1.398402424706   120.31293015     0.11537380
 H      1   2   3     1.093663754994   110.74878175   289.82087379
 H      1   2   3     1.096563666364   110.00403785   171.31679399
 H      1   2   3     1.096573632110   111.82090943    51.63636662
 H      2   1   3     1.097468503473   108.87982369   120.99384623
 H      2   1   3     1.098707136786   109.43061520   238.17943398
 H      8   7   6     1.097567620531   110.52330371   293.65825739
 H      8   7   6     1.096237675322   112.98975194   172.83352832
 H      8   7   6     1.097353229667   110.62384548    52.39891650
 H      9   7   6     1.007563151067   119.58047818   183.00972081
 H     12  10   9     1.011919199177   114.64967733   181.72751359
 H     13  12  10     1.099103129360   107.42347126   140.90248840
 H     15  14  13     1.086846245475   119.91722549   357.88687849
 H     16  15  14     1.088688968841   120.01577681   179.90110055
 H     17  16  15     1.085091111208   119.92161798   180.08275278
 H     19  18  17     0.969016308526   107.54963507     3.95148919
 H     20  18  17     1.084314734998   119.02180400   180.69078097

---------------------------
INTERNAL COORDINATES (A.U.)
---------------------------
 C      0   0   0     0.000000000000     0.00000000     0.00000000
 C      1   0   0     2.912745169096     0.00000000     0.00000000
 O      2   1   0     2.731045629251   111.99044289     0.00000000
 C      3   2   1     2.580707842786   118.53799971   292.17501566
 O      4   3   2     2.303089077072   119.68178316   313.04706126
 C      4   3   2     2.844036981535   112.78341006   110.06706843
 C      6   4   3     2.566717025962   122.72405946   203.77238657
 C      7   6   4     2.860553931995   127.56873284     6.66694997
 N      7   6   4     2.643346547807   119.85869639   189.88424005
 C      9   7   6     2.589650331656   124.32579488    12.74165135
 S     10   9   7     3.125358428763   122.03808117   171.18333732
 N     10   9   7     2.593541085415   116.27022921   351.58622179
 C     12  10   9     2.787401054004   124.31870895   348.50092447
 C     13  12  10     2.882902169154   109.07700620   257.73752337
 C     14  13  12     2.660709207227   120.25115236   242.31987234
 C     15  14  13     2.655469510591   120.63239302   178.08225537
 C     16  15  14     2.655790008967   119.65751629   359.72438446
 C     17  16  15     2.648725227897   119.90631934     0.00000000
 O     18  17  16     2.563667599346   120.05808465   179.88062399
 C     18  17  16     2.642597607705   120.31293015     0.11537380
 H      1   2   3     2.066724979535   110.74878175   289.82087379
 H      1   2   3     2.072205017837   110.00403785   171.31679399
 H      1   2   3     2.072223850367   111.82090943    51.63636662
 H      2   1   3     2.073914912169   108.87982369   120.99384623
 H      2   1   3     2.076255589910   109.43061520   238.17943398
 H      8   7   6     2.074102216263   110.52330371   293.65825739
 H      8   7   6     2.071588984045   112.98975194   172.83352832
 H      8   7   6     2.073697076245   110.62384548    52.39891650
 H      9   7   6     1.904018418147   119.58047818   183.00972081
 H     12  10   9     1.912250156102   114.64967733   181.72751359
 H     13  12  10     2.077003907427   107.42347126   140.90248840
 H     15  14  13     2.053841753629   119.91722549   357.88687849
 H     16  15  14     2.057323996131   120.01577681   179.90110055
 H     17  16  15     2.050525030536   119.92161798   180.08275278
 H     19  18  17     1.831175442418   107.54963507     3.95148919
 H     20  18  17     2.049057892122   119.02180400   180.69078097

---------------------
BASIS SET INFORMATION
---------------------
There are 5 groups of distinct atoms

 Group   1 Type C   : 18s5p2d1f contracted to 4s3p2d1f pattern {8811/311/11/1}
 Group   2 Type O   : 18s5p2d1f contracted to 4s3p2d1f pattern {8811/311/11/1}
 Group   3 Type N   : 18s5p2d1f contracted to 4s3p2d1f pattern {8811/311/11/1}
 Group   4 Type S   : 41s16p2d1f contracted to 5s4p2d1f pattern {13131311/7711/11/1}
 Group   5 Type H   : 5s2p1d contracted to 3s2p1d pattern {311/11/1}

Atom   0C    basis set group =>   1
Atom   1C    basis set group =>   1
Atom   2O    basis set group =>   2
Atom   3C    basis set group =>   1
Atom   4O    basis set group =>   2
Atom   5C    basis set group =>   1
Atom   6C    basis set group =>   1
Atom   7C    basis set group =>   1
Atom   8N    basis set group =>   3
Atom   9C    basis set group =>   1
Atom  10S    basis set group =>   4
Atom  11N    basis set group =>   3
Atom  12C    basis set group =>   1
Atom  13C    basis set group =>   1
Atom  14C    basis set group =>   1
Atom  15C    basis set group =>   1
Atom  16C    basis set group =>   1
Atom  17C    basis set group =>   1
Atom  18O    basis set group =>   2
Atom  19C    basis set group =>   1
Atom  20H    basis set group =>   5
Atom  21H    basis set group =>   5
Atom  22H    basis set group =>   5
Atom  23H    basis set group =>   5
Atom  24H    basis set group =>   5
Atom  25H    basis set group =>   5
Atom  26H    basis set group =>   5
Atom  27H    basis set group =>   5
Atom  28H    basis set group =>   5
Atom  29H    basis set group =>   5
Atom  30H    basis set group =>   5
Atom  31H    basis set group =>   5
Atom  32H    basis set group =>   5
Atom  33H    basis set group =>   5
Atom  34H    basis set group =>   5
Atom  35H    basis set group =>   5
---------------------------------
AUXILIARY/C BASIS SET INFORMATION
---------------------------------
There are 5 groups of distinct atoms

 Group   1 Type C   : 8s6p5d3f1g contracted to 8s6p5d3f1g pattern {11111111/111111/11111/111/1}
 Group   2 Type O   : 8s6p5d3f1g contracted to 8s6p5d3f1g pattern {11111111/111111/11111/111/1}
 Group   3 Type N   : 8s6p5d3f1g contracted to 8s6p5d3f1g pattern {11111111/111111/11111/111/1}
 Group   4 Type S   : 10s8p7d5f2g contracted to 10s8p7d5f2g pattern {1111111111/11111111/1111111/11111/11}
 Group   5 Type H   : 4s3p2d1f contracted to 4s3p2d1f pattern {1111/111/11/1}

Atom   0C    basis set group =>   1
Atom   1C    basis set group =>   1
Atom   2O    basis set group =>   2
Atom   3C    basis set group =>   1
Atom   4O    basis set group =>   2
Atom   5C    basis set group =>   1
Atom   6C    basis set group =>   1
Atom   7C    basis set group =>   1
Atom   8N    basis set group =>   3
Atom   9C    basis set group =>   1
Atom  10S    basis set group =>   4
Atom  11N    basis set group =>   3
Atom  12C    basis set group =>   1
Atom  13C    basis set group =>   1
Atom  14C    basis set group =>   1
Atom  15C    basis set group =>   1
Atom  16C    basis set group =>   1
Atom  17C    basis set group =>   1
Atom  18O    basis set group =>   2
Atom  19C    basis set group =>   1
Atom  20H    basis set group =>   5
Atom  21H    basis set group =>   5
Atom  22H    basis set group =>   5
Atom  23H    basis set group =>   5
Atom  24H    basis set group =>   5
Atom  25H    basis set group =>   5
Atom  26H    basis set group =>   5
Atom  27H    basis set group =>   5
Atom  28H    basis set group =>   5
Atom  29H    basis set group =>   5
Atom  30H    basis set group =>   5
Atom  31H    basis set group =>   5
Atom  32H    basis set group =>   5
Atom  33H    basis set group =>   5
Atom  34H    basis set group =>   5
Atom  35H    basis set group =>   5
------------------------------------------------------------------------------
                           ORCA GTO INTEGRAL CALCULATION
------------------------------------------------------------------------------
------------------------------------------------------------------------------
                   ___                                                        
                  /   \      - P O W E R E D   B Y -                         
                 /     \                                                     
                 |  |  |   _    _      __       _____    __    __             
                 |  |  |  | |  | |    /  \     |  _  \  |  |  /  |          
                  \  \/   | |  | |   /    \    | | | |  |  | /  /          
                 / \  \   | |__| |  /  /\  \   | |_| |  |  |/  /          
                |  |  |   |  __  | /  /__\  \  |    /   |      \           
                |  |  |   | |  | | |   __   |  |    \   |  |\   \          
                \     /   | |  | | |  |  |  |  | |\  \  |  | \   \       
                 \___/    |_|  |_| |__|  |__|  |_| \__\ |__|  \__/        
                                                                              
                      - O R C A' S   B I G   F R I E N D -                    
                                      &                                       
                       - I N T E G R A L  F E E D E R -                       
                                                                              
 v1 FN, 2020, v2 2021                                                         
------------------------------------------------------------------------------


Reading SHARK input file CONFS/Conf303.orca.SHARKINP.tmp ... ok
----------------------
SHARK INTEGRAL PACKAGE
----------------------

Number of atoms                             ...     36
Number of basis functions                   ...    828
Number of shells                            ...    298
Maximum angular momentum                    ...      3
Integral batch strategy                     ... SHARK/LIBINT Hybrid
RI-J (if used) integral strategy            ... SPLIT-RIJ (Revised 2003 algorithm where possible)
Printlevel                                  ...      1
Contraction scheme used                     ... SEGMENTED contraction
Coulomb Range Separation                    ... NOT USED
Exchange Range Separation                   ... NOT USED
Finite Nucleus Model                        ... NOT USED
Auxiliary Coulomb fitting basis             ... NOT available
Auxiliary J/K fitting basis                 ... NOT available
Auxiliary Correlation fitting basis         ... AVAILABLE
   # of basis functions in Aux-C            ...   2141
   # of shells in Aux-C                     ...    629
   Maximum angular momentum in Aux-C        ...      4
Auxiliary 'external' fitting basis          ... NOT available
Integral threshold                          ...     2.500000e-11
Primitive cut-off                           ...     2.500000e-12
Primitive pair pre-selection threshold      ...     2.500000e-12

Calculating pre-screening integrals         ... done (  0.6 sec) Dimension = 298
Organizing shell pair data                  ... done (  1.4 sec)
Shell pair information
Total number of shell pairs                 ...     44551
Shell pairs after pre-screening             ...     34625
Total number of primitive shell pairs       ...    234348
Primitive shell pairs kept                  ...     99146
          la=0 lb=0:   6868 shell pairs
          la=1 lb=0:   9581 shell pairs
          la=1 lb=1:   3397 shell pairs
          la=2 lb=0:   5553 shell pairs
          la=2 lb=1:   3821 shell pairs
          la=2 lb=2:   1091 shell pairs
          la=3 lb=0:   2001 shell pairs
          la=3 lb=1:   1375 shell pairs
          la=3 lb=2:    785 shell pairs
          la=3 lb=3:    153 shell pairs

Calculating one electron integrals          ... done (  0.4 sec)
Calculating RI/C V-Matrix + Cholesky decomp.... done (  1.3 sec)
Calculating Nuclear repulsion               ... done (  0.0 sec) ENN=   1735.294798818577 Eh

SHARK setup successfully completed in   4.2 seconds

Maximum memory used throughout the entire GTOINT-calculation: 516.4 MB
-------------------------------------------------------------------------------
                                 ORCA SCF
-------------------------------------------------------------------------------

------------
SCF SETTINGS
------------
Hamiltonian:
 Ab initio Hamiltonian  Method          .... Hartree-Fock(GTOs)


General Settings:
 Integral files         IntName         .... CONFS/Conf303.orca
 Hartree-Fock type      HFTyp           .... RHF
 Total Charge           Charge          ....    0
 Multiplicity           Mult            ....    1
 Number of Electrons    NEL             ....  154
 Basis Dimension        Dim             ....  828
 Nuclear Repulsion      ENuc            ....   1735.2947988186 Eh

Convergence Acceleration:
 DIIS                   CNVDIIS         .... on
   Start iteration      DIISMaxIt       ....    12
   Startup error        DIISStart       ....  0.200000
   # of expansion vecs  DIISMaxEq       ....     5
   Bias factor          DIISBfac        ....   1.050
   Max. coefficient     DIISMaxC        ....  10.000
 Trust-Rad. Augm. Hess. CNVTRAH         .... auto
   Auto Start mean grad. ratio tolernc. ....  1.125000
   Auto Start start iteration           ....    20
   Auto Start num. interpolation iter.  ....    10
   Max. Number of Micro iterations      ....    16
   Max. Number of Macro iterations      .... Maxiter - #DIIS iter
   Number of Davidson start vectors     ....     2
   Converg. threshold I  (grad. norm)   ....   1.000e-05
   Converg. threshold II (energy diff.) ....   1.000e-08
   Grad. Scal. Fac. for Micro threshold ....   0.100
   Minimum threshold for Micro iter.    ....   0.010
   NR start threshold (gradient norm)   ....   0.001
   Initial trust radius                 ....   0.400
   Minimum AH scaling param. (alpha)    ....   1.000
   Maximum AH scaling param. (alpha)    .... 1000.000
   Orbital update algorithm             .... Taylor
   White noise on init. David. guess    .... on
   Maximum white noise                  ....   0.010
   Quad. conv. algorithm                .... NR
 SOSCF                  CNVSOSCF        .... on
   Start iteration      SOSCFMaxIt      ....   150
   Startup grad/error   SOSCFStart      ....  0.003300
 Level Shifting         CNVShift        .... on
   Level shift para.    LevelShift      ....    0.2500
   Turn off err/grad.   ShiftErr        ....    0.0010
 Zerner damping         CNVZerner       .... off
 Static damping         CNVDamp         .... on
   Fraction old density DampFac         ....    0.7000
   Max. Damping (<1)    DampMax         ....    0.9800
   Min. Damping (>=0)   DampMin         ....    0.0000
   Turn off err/grad.   DampErr         ....    0.1000
 Fernandez-Rico         CNVRico         .... off

SCF Procedure:
 Maximum # iterations   MaxIter         ....   125
 SCF integral mode      SCFMode         .... Direct
   Integral package                     .... SHARK and LIBINT hybrid scheme
 Reset frequency        DirectResetFreq ....    20
 Integral Threshold     Thresh          ....  2.500e-11 Eh
 Primitive CutOff       TCut            ....  2.500e-12 Eh

Convergence Tolerance:
 Convergence Check Mode ConvCheckMode   .... Total+1el-Energy
 Convergence forced     ConvForced      .... 1
 Energy Change          TolE            ....  1.000e-08 Eh
 1-El. energy change                    ....  1.000e-05 Eh
 Orbital Gradient       TolG            ....  1.000e-05
 Orbital Rotation angle TolX            ....  1.000e-05
 DIIS Error             TolErr          ....  5.000e-07


Diagonalization of the overlap matrix:
Smallest eigenvalue                        ... 3.276e-05
Time for diagonalization                   ...    0.159 sec
Threshold for overlap eigenvalues          ... 1.000e-08
Number of eigenvalues below threshold      ... 0
Time for construction of square roots      ...    0.100 sec
Total time needed                          ...    0.261 sec

Time for model grid setup =    1.572 sec

------------------------------
INITIAL GUESS: MODEL POTENTIAL
------------------------------
Loading Hartree-Fock densities                     ... done
Calculating cut-offs                               ... done
Initializing the effective Hamiltonian             ... done
Setting up the integral package (SHARK)            ... done
Starting the Coulomb interaction                   ... done (   4.7 sec)
Reading the grid                                   ... done
Mapping shells                                     ... done
Starting the XC term evaluation                    ... done (   1.6 sec)
Transforming the Hamiltonian                       ... done (   0.1 sec)
Diagonalizing the Hamiltonian                      ... done (   0.1 sec)
Back transforming the eigenvectors                 ... done (   0.0 sec)
Now organizing SCF variables                       ... done
                      ------------------
                      INITIAL GUESS DONE (   8.1 sec)
                      ------------------
--------------
SCF ITERATIONS
--------------
ITER       Energy         Delta-E        Max-DP      RMS-DP      [F,P]     Damp
               ***  Starting incremental Fock matrix formation  ***
  0  -1269.9936624219   0.000000000000 0.04935148  0.00043543  0.3246670 0.7000
  1  -1270.2616827749  -0.268020352946 0.03609570  0.00035046  0.1947312 0.7000
                               ***Turning on DIIS***
  2  -1270.4283683831  -0.166685608205 0.02584103  0.00023473  0.1096568 0.7000
  3  -1272.5719252561  -2.143556873060 0.06311095  0.00050814  0.0828705 0.0000
  4  -1270.7385348943   1.833390361797 0.00721077  0.00009830  0.0069194 0.0000
  5  -1270.7958668521  -0.057331957759 0.00370495  0.00005190  0.0053505 0.0000
  6  -1270.7758281428   0.020038709321 0.00187468  0.00002722  0.0035674 0.0000
                      *** Initiating the SOSCF procedure ***
                           *** Shutting down DIIS ***
                      *** Re-Reading the Fockian *** 
                      *** Removing any level shift *** 
ITER      Energy       Delta-E        Grad      Rot      Max-DP    RMS-DP
  7  -1270.79062586  -0.0147977148  0.001288  0.001288  0.001074  0.000015
               *** Restarting incremental Fock matrix formation ***
  8  -1270.79061542   0.0000104372  0.000698  0.001814  0.000765  0.000009
  9  -1270.79063230  -0.0000168834  0.000327  0.002165  0.000988  0.000011
 10  -1270.79063941  -0.0000071032  0.000084  0.000141  0.000205  0.000002
 11  -1270.79064014  -0.0000007342  0.000040  0.000080  0.000069  0.000001
 12  -1270.79064028  -0.0000001391  0.000012  0.000053  0.000028  0.000000
 13  -1270.79064030  -0.0000000169  0.000009  0.000042  0.000020  0.000000
                  ***Gradient check signals convergence***
              ***Rediagonalizing the Fockian in SOSCF/NRSCF***

               *****************************************************
               *                     SUCCESS                       *
               *           SCF CONVERGED AFTER  14 CYCLES          *
               *****************************************************


----------------
TOTAL SCF ENERGY
----------------

Total Energy       :        -1270.79064031 Eh          -34579.97133 eV

Components:
Nuclear Repulsion  :         1735.29479882 Eh           47219.77208 eV
Electronic Energy  :        -3006.08543913 Eh          -81799.74342 eV
One Electron Energy:        -5191.70958204 Eh         -141273.59994 eV
Two Electron Energy:         2185.62414291 Eh           59473.85652 eV

Virial components:
Potential Energy   :        -2539.77885968 Eh          -69110.89630 eV
Kinetic Energy     :         1268.98821937 Eh           34530.92497 eV
Virial Ratio       :            2.00142036


---------------
SCF CONVERGENCE
---------------

  Last Energy change         ...   -1.0979e-08  Tolerance :   1.0000e-08
  Last MAX-Density change    ...    3.2244e-06  Tolerance :   1.0000e-07
  Last RMS-Density change    ...    4.8914e-08  Tolerance :   5.0000e-09
  Last Orbital Gradient      ...    1.8520e-06  Tolerance :   1.0000e-05
  Last Orbital Rotation      ...    6.5609e-06  Tolerance :   1.0000e-05

             **** THE GBW FILE WAS UPDATED (CONFS/Conf303.orca.gbw) ****
             **** DENSITY CONFS/Conf303.orca.scfp WAS UPDATED ****
             **** ENERGY FILE WAS UPDATED (CONFS/Conf303.orca.en.tmp) ****
             **** THE GBW FILE WAS UPDATED (CONFS/Conf303.orca.gbw) ****
             **** DENSITY CONFS/Conf303.orca.scfp WAS UPDATED ****
----------------
ORBITAL ENERGIES
----------------

  NO   OCC          E(Eh)            E(eV) 
   0   2.0000     -91.890695     -2500.4729 
   1   2.0000     -20.598419      -560.5115 
   2   2.0000     -20.585079      -560.1485 
   3   2.0000     -20.549322      -559.1755 
   4   2.0000     -15.630843      -425.3369 
   5   2.0000     -15.609050      -424.7438 
   6   2.0000     -11.394482      -310.0596 
   7   2.0000     -11.385085      -309.8039 
   8   2.0000     -11.336890      -308.4925 
   9   2.0000     -11.315719      -307.9164 
  10   2.0000     -11.311548      -307.8029 
  11   2.0000     -11.297025      -307.4077 
  12   2.0000     -11.261140      -306.4312 
  13   2.0000     -11.260640      -306.4176 
  14   2.0000     -11.257374      -306.3287 
  15   2.0000     -11.253766      -306.2305 
  16   2.0000     -11.245514      -306.0060 
  17   2.0000     -11.239805      -305.8506 
  18   2.0000     -11.239742      -305.8489 
  19   2.0000     -11.221959      -305.3650 
  20   2.0000      -8.895706      -242.0645 
  21   2.0000      -6.577269      -178.9766 
  22   2.0000      -6.575278      -178.9224 
  23   2.0000      -6.574680      -178.9061 
  24   2.0000      -1.449183       -39.4343 
  25   2.0000      -1.418157       -38.5900 
  26   2.0000      -1.351683       -36.7812 
  27   2.0000      -1.341874       -36.5142 
  28   2.0000      -1.239904       -33.7395 
  29   2.0000      -1.158919       -31.5358 
  30   2.0000      -1.120874       -30.5005 
  31   2.0000      -1.043935       -28.4069 
  32   2.0000      -1.031711       -28.0743 
  33   2.0000      -1.017057       -27.6755 
  34   2.0000      -0.998531       -27.1714 
  35   2.0000      -0.985985       -26.8300 
  36   2.0000      -0.924320       -25.1520 
  37   2.0000      -0.893359       -24.3095 
  38   2.0000      -0.847927       -23.0733 
  39   2.0000      -0.841124       -22.8881 
  40   2.0000      -0.835843       -22.7444 
  41   2.0000      -0.815926       -22.2025 
  42   2.0000      -0.752378       -20.4733 
  43   2.0000      -0.733808       -19.9679 
  44   2.0000      -0.723000       -19.6738 
  45   2.0000      -0.697926       -18.9915 
  46   2.0000      -0.690778       -18.7970 
  47   2.0000      -0.677438       -18.4340 
  48   2.0000      -0.668021       -18.1778 
  49   2.0000      -0.667268       -18.1573 
  50   2.0000      -0.649562       -17.6755 
  51   2.0000      -0.645205       -17.5569 
  52   2.0000      -0.637299       -17.3418 
  53   2.0000      -0.609560       -16.5870 
  54   2.0000      -0.608409       -16.5557 
  55   2.0000      -0.600186       -16.3319 
  56   2.0000      -0.600063       -16.3286 
  57   2.0000      -0.579363       -15.7653 
  58   2.0000      -0.572029       -15.5657 
  59   2.0000      -0.564830       -15.3698 
  60   2.0000      -0.554930       -15.1004 
  61   2.0000      -0.546169       -14.8620 
  62   2.0000      -0.540088       -14.6965 
  63   2.0000      -0.526939       -14.3387 
  64   2.0000      -0.525262       -14.2931 
  65   2.0000      -0.515239       -14.0204 
  66   2.0000      -0.503431       -13.6990 
  67   2.0000      -0.501965       -13.6592 
  68   2.0000      -0.474709       -12.9175 
  69   2.0000      -0.464876       -12.6499 
  70   2.0000      -0.452237       -12.3060 
  71   2.0000      -0.444754       -12.1024 
  72   2.0000      -0.357542        -9.7292 
  73   2.0000      -0.350518        -9.5381 
  74   2.0000      -0.329820        -8.9749 
  75   2.0000      -0.324343        -8.8258 
  76   2.0000      -0.317352        -8.6356 
  77   0.0000       0.067620         1.8400 
  78   0.0000       0.105506         2.8710 
  79   0.0000       0.120649         3.2830 
  80   0.0000       0.130080         3.5397 
  81   0.0000       0.133883         3.6431 
  82   0.0000       0.141339         3.8460 
  83   0.0000       0.148062         4.0290 
  84   0.0000       0.149760         4.0752 
  85   0.0000       0.161257         4.3880 
  86   0.0000       0.172015         4.6808 
  87   0.0000       0.179259         4.8779 
  88   0.0000       0.186970         5.0877 
  89   0.0000       0.193931         5.2771 
  90   0.0000       0.204330         5.5601 
  91   0.0000       0.207714         5.6522 
  92   0.0000       0.214509         5.8371 
  93   0.0000       0.223250         6.0749 
  94   0.0000       0.231173         6.2905 
  95   0.0000       0.236770         6.4429 
  96   0.0000       0.244899         6.6640 
  97   0.0000       0.253292         6.8924 
  98   0.0000       0.273923         7.4538 
  99   0.0000       0.292336         7.9549 
 100   0.0000       0.304256         8.2792 
 101   0.0000       0.308873         8.4049 
 102   0.0000       0.313615         8.5339 
 103   0.0000       0.317557         8.6412 
 104   0.0000       0.322947         8.7878 
 105   0.0000       0.331879         9.0309 
 106   0.0000       0.339785         9.2460 
 107   0.0000       0.346700         9.4342 
 108   0.0000       0.369420        10.0524 
 109   0.0000       0.372842        10.1455 
 110   0.0000       0.373626        10.1669 
 111   0.0000       0.377312        10.2672 
 112   0.0000       0.383138        10.4257 
 113   0.0000       0.385526        10.4907 
 114   0.0000       0.391652        10.6574 
 115   0.0000       0.409175        11.1342 
 116   0.0000       0.417096        11.3498 
 117   0.0000       0.421267        11.4633 
 118   0.0000       0.430247        11.7076 
 119   0.0000       0.434757        11.8303 
 120   0.0000       0.443574        12.0703 
 121   0.0000       0.448254        12.1976 
 122   0.0000       0.451934        12.2977 
 123   0.0000       0.460341        12.5265 
 124   0.0000       0.464530        12.6405 
 125   0.0000       0.468152        12.7391 
 126   0.0000       0.477729        12.9997 
 127   0.0000       0.484030        13.1711 
 128   0.0000       0.492999        13.4152 
 129   0.0000       0.501889        13.6571 
 130   0.0000       0.508890        13.8476 
 131   0.0000       0.513248        13.9662 
 132   0.0000       0.515403        14.0248 
 133   0.0000       0.520241        14.1565 
 134   0.0000       0.527903        14.3650 
 135   0.0000       0.535757        14.5787 
 136   0.0000       0.541045        14.7226 
 137   0.0000       0.542456        14.7610 
 138   0.0000       0.543388        14.7863 
 139   0.0000       0.549687        14.9577 
 140   0.0000       0.556536        15.1441 
 141   0.0000       0.561578        15.2813 
 142   0.0000       0.566620        15.4185 
 143   0.0000       0.570915        15.5354 
 144   0.0000       0.573426        15.6037 
 145   0.0000       0.580228        15.7888 
 146   0.0000       0.592520        16.1233 
 147   0.0000       0.597671        16.2635 
 148   0.0000       0.601213        16.3598 
 149   0.0000       0.603486        16.4217 
 150   0.0000       0.607632        16.5345 
 151   0.0000       0.610318        16.6076 
 152   0.0000       0.611784        16.6475 
 153   0.0000       0.618480        16.8297 
 154   0.0000       0.624102        16.9827 
 155   0.0000       0.625307        17.0155 
 156   0.0000       0.633587        17.2408 
 157   0.0000       0.636258        17.3135 
 158   0.0000       0.641161        17.4469 
 159   0.0000       0.643385        17.5074 
 160   0.0000       0.648652        17.6507 
 161   0.0000       0.658464        17.9177 
 162   0.0000       0.665613        18.1123 
 163   0.0000       0.669256        18.2114 
 164   0.0000       0.672999        18.3132 
 165   0.0000       0.677907        18.4468 
 166   0.0000       0.687315        18.7028 
 167   0.0000       0.687990        18.7212 
 168   0.0000       0.691655        18.8209 
 169   0.0000       0.697560        18.9816 
 170   0.0000       0.708874        19.2894 
 171   0.0000       0.714035        19.4299 
 172   0.0000       0.714407        19.4400 
 173   0.0000       0.729427        19.8487 
 174   0.0000       0.732750        19.9391 
 175   0.0000       0.743476        20.2310 
 176   0.0000       0.745226        20.2786 
 177   0.0000       0.748473        20.3670 
 178   0.0000       0.756959        20.5979 
 179   0.0000       0.770110        20.9558 
 180   0.0000       0.775680        21.1073 
 181   0.0000       0.785683        21.3795 
 182   0.0000       0.796218        21.6662 
 183   0.0000       0.802613        21.8402 
 184   0.0000       0.807022        21.9602 
 185   0.0000       0.810192        22.0464 
 186   0.0000       0.820415        22.3246 
 187   0.0000       0.834420        22.7057 
 188   0.0000       0.839002        22.8304 
 189   0.0000       0.843753        22.9597 
 190   0.0000       0.854015        23.2389 
 191   0.0000       0.858038        23.3484 
 192   0.0000       0.863586        23.4994 
 193   0.0000       0.867905        23.6169 
 194   0.0000       0.872335        23.7374 
 195   0.0000       0.884129        24.0584 
 196   0.0000       0.890698        24.2371 
 197   0.0000       0.895390        24.3648 
 198   0.0000       0.898369        24.4459 
 199   0.0000       0.902207        24.5503 
 200   0.0000       0.919110        25.0102 
 201   0.0000       0.924342        25.1526 
 202   0.0000       0.934533        25.4299 
 203   0.0000       0.939492        25.5649 
 204   0.0000       0.941191        25.6111 
 205   0.0000       0.947012        25.7695 
 206   0.0000       0.961475        26.1631 
 207   0.0000       0.969138        26.3716 
 208   0.0000       0.980527        26.6815 
 209   0.0000       0.989012        26.9124 
 210   0.0000       0.992480        27.0067 
 211   0.0000       1.001937        27.2641 
 212   0.0000       1.007054        27.4033 
 213   0.0000       1.014055        27.5938 
 214   0.0000       1.017768        27.6949 
 215   0.0000       1.025997        27.9188 
 216   0.0000       1.030202        28.0332 
 217   0.0000       1.035667        28.1819 
 218   0.0000       1.037759        28.2388 
 219   0.0000       1.051221        28.6052 
 220   0.0000       1.059814        28.8390 
 221   0.0000       1.065422        28.9916 
 222   0.0000       1.071993        29.1704 
 223   0.0000       1.076105        29.2823 
 224   0.0000       1.090658        29.6783 
 225   0.0000       1.100452        29.9448 
 226   0.0000       1.117304        30.4034 
 227   0.0000       1.121934        30.5294 
 228   0.0000       1.128822        30.7168 
 229   0.0000       1.133196        30.8358 
 230   0.0000       1.142955        31.1014 
 231   0.0000       1.145167        31.1616 
 232   0.0000       1.153482        31.3878 
 233   0.0000       1.155599        31.4454 
 234   0.0000       1.162390        31.6302 
 235   0.0000       1.170801        31.8591 
 236   0.0000       1.174383        31.9566 
 237   0.0000       1.184643        32.2358 
 238   0.0000       1.184815        32.2404 
 239   0.0000       1.189037        32.3554 
 240   0.0000       1.191630        32.4259 
 241   0.0000       1.206809        32.8389 
 242   0.0000       1.213409        33.0185 
 243   0.0000       1.217777        33.1374 
 244   0.0000       1.224713        33.3261 
 245   0.0000       1.227000        33.3884 
 246   0.0000       1.230644        33.4875 
 247   0.0000       1.249163        33.9915 
 248   0.0000       1.256571        34.1930 
 249   0.0000       1.260263        34.2935 
 250   0.0000       1.269549        34.5462 
 251   0.0000       1.278072        34.7781 
 252   0.0000       1.283730        34.9321 
 253   0.0000       1.289538        35.0901 
 254   0.0000       1.306090        35.5405 
 255   0.0000       1.313302        35.7368 
 256   0.0000       1.319750        35.9122 
 257   0.0000       1.333512        36.2867 
 258   0.0000       1.337929        36.4069 
 259   0.0000       1.345453        36.6116 
 260   0.0000       1.349518        36.7223 
 261   0.0000       1.360051        37.0089 
 262   0.0000       1.364873        37.1401 
 263   0.0000       1.375748        37.4360 
 264   0.0000       1.384922        37.6856 
 265   0.0000       1.391903        37.8756 
 266   0.0000       1.405752        38.2525 
 267   0.0000       1.409804        38.3627 
 268   0.0000       1.418157        38.5900 
 269   0.0000       1.420798        38.6619 
 270   0.0000       1.426539        38.8181 
 271   0.0000       1.437548        39.1177 
 272   0.0000       1.447516        39.3889 
 273   0.0000       1.453857        39.5615 
 274   0.0000       1.461718        39.7754 
 275   0.0000       1.476331        40.1730 
 276   0.0000       1.477649        40.2089 
 277   0.0000       1.481793        40.3216 
 278   0.0000       1.489266        40.5250 
 279   0.0000       1.496970        40.7346 
 280   0.0000       1.500785        40.8384 
 281   0.0000       1.503863        40.9222 
 282   0.0000       1.510409        41.1003 
 283   0.0000       1.518147        41.3109 
 284   0.0000       1.522180        41.4206 
 285   0.0000       1.529859        41.6296 
 286   0.0000       1.534808        41.7643 
 287   0.0000       1.538847        41.8741 
 288   0.0000       1.544401        42.0253 
 289   0.0000       1.547408        42.1071 
 290   0.0000       1.571804        42.7710 
 291   0.0000       1.572850        42.7994 
 292   0.0000       1.579245        42.9734 
 293   0.0000       1.590231        43.2724 
 294   0.0000       1.596152        43.4335 
 295   0.0000       1.608309        43.7643 
 296   0.0000       1.611152        43.8417 
 297   0.0000       1.615083        43.9486 
 298   0.0000       1.631049        44.3831 
 299   0.0000       1.635117        44.4938 
 300   0.0000       1.639216        44.6053 
 301   0.0000       1.651073        44.9280 
 302   0.0000       1.662672        45.2436 
 303   0.0000       1.677094        45.6361 
 304   0.0000       1.678862        45.6842 
 305   0.0000       1.694147        46.1001 
 306   0.0000       1.696171        46.1551 
 307   0.0000       1.714229        46.6465 
 308   0.0000       1.717921        46.7470 
 309   0.0000       1.722059        46.8596 
 310   0.0000       1.733576        47.1730 
 311   0.0000       1.739174        47.3253 
 312   0.0000       1.749267        47.6000 
 313   0.0000       1.757878        47.8343 
 314   0.0000       1.781785        48.4848 
 315   0.0000       1.784692        48.5639 
 316   0.0000       1.790105        48.7112 
 317   0.0000       1.794266        48.8245 
 318   0.0000       1.800545        48.9953 
 319   0.0000       1.806634        49.1610 
 320   0.0000       1.830203        49.8023 
 321   0.0000       1.840113        50.0720 
 322   0.0000       1.846519        50.2463 
 323   0.0000       1.854592        50.4660 
 324   0.0000       1.875193        51.0266 
 325   0.0000       1.881623        51.2016 
 326   0.0000       1.885912        51.3183 
 327   0.0000       1.900132        51.7052 
 328   0.0000       1.911720        52.0205 
 329   0.0000       1.919114        52.2217 
 330   0.0000       1.935074        52.6560 
 331   0.0000       1.941900        52.8418 
 332   0.0000       1.949059        53.0366 
 333   0.0000       1.952568        53.1321 
 334   0.0000       1.956581        53.2413 
 335   0.0000       1.980304        53.8868 
 336   0.0000       1.991044        54.1791 
 337   0.0000       2.006778        54.6072 
 338   0.0000       2.014390        54.8143 
 339   0.0000       2.027512        55.1714 
 340   0.0000       2.036428        55.4140 
 341   0.0000       2.044471        55.6329 
 342   0.0000       2.050222        55.7894 
 343   0.0000       2.067682        56.2645 
 344   0.0000       2.098901        57.1140 
 345   0.0000       2.116619        57.5961 
 346   0.0000       2.125322        57.8330 
 347   0.0000       2.130659        57.9782 
 348   0.0000       2.150859        58.5278 
 349   0.0000       2.161891        58.8280 
 350   0.0000       2.182187        59.3803 
 351   0.0000       2.196546        59.7711 
 352   0.0000       2.218875        60.3787 
 353   0.0000       2.224340        60.5274 
 354   0.0000       2.238237        60.9055 
 355   0.0000       2.256088        61.3913 
 356   0.0000       2.265886        61.6579 
 357   0.0000       2.289327        62.2958 
 358   0.0000       2.293124        62.3991 
 359   0.0000       2.313184        62.9449 
 360   0.0000       2.315917        63.0193 
 361   0.0000       2.320607        63.1469 
 362   0.0000       2.339040        63.6485 
 363   0.0000       2.349716        63.9390 
 364   0.0000       2.371760        64.5389 
 365   0.0000       2.382732        64.8374 
 366   0.0000       2.388925        65.0059 
 367   0.0000       2.411910        65.6314 
 368   0.0000       2.420128        65.8550 
 369   0.0000       2.425955        66.0136 
 370   0.0000       2.451463        66.7077 
 371   0.0000       2.468696        67.1766 
 372   0.0000       2.472129        67.2701 
 373   0.0000       2.486512        67.6614 
 374   0.0000       2.498012        67.9744 
 375   0.0000       2.507001        68.2190 
 376   0.0000       2.515841        68.4595 
 377   0.0000       2.532952        68.9251 
 378   0.0000       2.549050        69.3632 
 379   0.0000       2.558221        69.6127 
 380   0.0000       2.573515        70.0289 
 381   0.0000       2.585518        70.3555 
 382   0.0000       2.598377        70.7054 
 383   0.0000       2.617867        71.2358 
 384   0.0000       2.621369        71.3311 
 385   0.0000       2.635675        71.7204 
 386   0.0000       2.644242        71.9535 
 387   0.0000       2.659611        72.3717 
 388   0.0000       2.663342        72.4732 
 389   0.0000       2.673542        72.7508 
 390   0.0000       2.694418        73.3188 
 391   0.0000       2.714209        73.8574 
 392   0.0000       2.718566        73.9759 
 393   0.0000       2.728538        74.2473 
 394   0.0000       2.735623        74.4401 
 395   0.0000       2.748602        74.7933 
 396   0.0000       2.755879        74.9913 
 397   0.0000       2.767371        75.3040 
 398   0.0000       2.779486        75.6336 
 399   0.0000       2.781080        75.6770 
 400   0.0000       2.795169        76.0604 
 401   0.0000       2.802271        76.2537 
 402   0.0000       2.816244        76.6339 
 403   0.0000       2.828744        76.9740 
 404   0.0000       2.834082        77.1193 
 405   0.0000       2.846543        77.4584 
 406   0.0000       2.849005        77.5254 
 407   0.0000       2.863537        77.9208 
 408   0.0000       2.868709        78.0615 
 409   0.0000       2.877437        78.2990 
 410   0.0000       2.881957        78.4220 
 411   0.0000       2.895521        78.7911 
 412   0.0000       2.903557        79.0098 
 413   0.0000       2.913035        79.2677 
 414   0.0000       2.924228        79.5723 
 415   0.0000       2.929736        79.7222 
 416   0.0000       2.932807        79.8057 
 417   0.0000       2.951356        80.3105 
 418   0.0000       2.954747        80.4028 
 419   0.0000       2.963487        80.6406 
 420   0.0000       2.970745        80.8381 
 421   0.0000       2.975049        80.9552 
 422   0.0000       2.984240        81.2053 
 423   0.0000       2.999865        81.6305 
 424   0.0000       3.006798        81.8191 
 425   0.0000       3.018187        82.1290 
 426   0.0000       3.027700        82.3879 
 427   0.0000       3.028932        82.4214 
 428   0.0000       3.035697        82.6055 
 429   0.0000       3.048215        82.9461 
 430   0.0000       3.056059        83.1596 
 431   0.0000       3.060138        83.2706 
 432   0.0000       3.068184        83.4895 
 433   0.0000       3.070448        83.5511 
 434   0.0000       3.079468        83.7966 
 435   0.0000       3.091948        84.1362 
 436   0.0000       3.096023        84.2471 
 437   0.0000       3.100371        84.3654 
 438   0.0000       3.110735        84.6474 
 439   0.0000       3.112678        84.7003 
 440   0.0000       3.120481        84.9126 
 441   0.0000       3.126638        85.0801 
 442   0.0000       3.139394        85.4273 
 443   0.0000       3.141771        85.4919 
 444   0.0000       3.150444        85.7279 
 445   0.0000       3.161195        86.0205 
 446   0.0000       3.163253        86.0765 
 447   0.0000       3.169064        86.2346 
 448   0.0000       3.179750        86.5254 
 449   0.0000       3.185727        86.6880 
 450   0.0000       3.195305        86.9487 
 451   0.0000       3.202881        87.1548 
 452   0.0000       3.210484        87.3617 
 453   0.0000       3.219735        87.6134 
 454   0.0000       3.225438        87.7686 
 455   0.0000       3.238542        88.1252 
 456   0.0000       3.245302        88.3092 
 457   0.0000       3.252759        88.5121 
 458   0.0000       3.262098        88.7662 
 459   0.0000       3.264391        88.8286 
 460   0.0000       3.270030        88.9820 
 461   0.0000       3.286846        89.4396 
 462   0.0000       3.288941        89.4966 
 463   0.0000       3.295855        89.6848 
 464   0.0000       3.303392        89.8899 
 465   0.0000       3.317032        90.2610 
 466   0.0000       3.327415        90.5436 
 467   0.0000       3.329960        90.6128 
 468   0.0000       3.335883        90.7740 
 469   0.0000       3.339002        90.8589 
 470   0.0000       3.340442        90.8981 
 471   0.0000       3.354033        91.2679 
 472   0.0000       3.356322        91.3302 
 473   0.0000       3.360096        91.4329 
 474   0.0000       3.364808        91.5611 
 475   0.0000       3.377756        91.9134 
 476   0.0000       3.378067        91.9219 
 477   0.0000       3.384853        92.1065 
 478   0.0000       3.391312        92.2823 
 479   0.0000       3.397471        92.4499 
 480   0.0000       3.409894        92.7879 
 481   0.0000       3.411659        92.8360 
 482   0.0000       3.418330        93.0175 
 483   0.0000       3.420487        93.0762 
 484   0.0000       3.426803        93.2480 
 485   0.0000       3.432177        93.3943 
 486   0.0000       3.435437        93.4830 
 487   0.0000       3.439184        93.5850 
 488   0.0000       3.443454        93.7011 
 489   0.0000       3.446963        93.7966 
 490   0.0000       3.452801        93.9555 
 491   0.0000       3.455714        94.0348 
 492   0.0000       3.465823        94.3098 
 493   0.0000       3.474226        94.5385 
 494   0.0000       3.485137        94.8354 
 495   0.0000       3.485887        94.8558 
 496   0.0000       3.495611        95.1204 
 497   0.0000       3.503585        95.3374 
 498   0.0000       3.514178        95.6256 
 499   0.0000       3.522270        95.8458 
 500   0.0000       3.533255        96.1448 
 501   0.0000       3.538911        96.2987 
 502   0.0000       3.546514        96.5056 
 503   0.0000       3.550121        96.6037 
 504   0.0000       3.555416        96.7478 
 505   0.0000       3.560231        96.8788 
 506   0.0000       3.566688        97.0545 
 507   0.0000       3.579964        97.4158 
 508   0.0000       3.585002        97.5529 
 509   0.0000       3.590987        97.7157 
 510   0.0000       3.602748        98.0358 
 511   0.0000       3.608547        98.1935 
 512   0.0000       3.611216        98.2662 
 513   0.0000       3.617807        98.4455 
 514   0.0000       3.623298        98.5950 
 515   0.0000       3.629766        98.7710 
 516   0.0000       3.635349        98.9229 
 517   0.0000       3.640922        99.0745 
 518   0.0000       3.642606        99.1203 
 519   0.0000       3.652351        99.3855 
 520   0.0000       3.657706        99.5312 
 521   0.0000       3.659978        99.5931 
 522   0.0000       3.662978        99.6747 
 523   0.0000       3.677462       100.0688 
 524   0.0000       3.683828       100.2420 
 525   0.0000       3.688462       100.3682 
 526   0.0000       3.694945       100.5446 
 527   0.0000       3.703824       100.7862 
 528   0.0000       3.711113       100.9845 
 529   0.0000       3.717034       101.1456 
 530   0.0000       3.721661       101.2716 
 531   0.0000       3.732340       101.5621 
 532   0.0000       3.741298       101.8059 
 533   0.0000       3.750601       102.0590 
 534   0.0000       3.753901       102.1489 
 535   0.0000       3.759072       102.2895 
 536   0.0000       3.764564       102.4390 
 537   0.0000       3.767437       102.5172 
 538   0.0000       3.775778       102.7441 
 539   0.0000       3.781649       102.9039 
 540   0.0000       3.791870       103.1820 
 541   0.0000       3.796284       103.3021 
 542   0.0000       3.804728       103.5319 
 543   0.0000       3.815092       103.8139 
 544   0.0000       3.821706       103.9939 
 545   0.0000       3.832003       104.2741 
 546   0.0000       3.837244       104.4167 
 547   0.0000       3.839372       104.4746 
 548   0.0000       3.847313       104.6907 
 549   0.0000       3.853864       104.8690 
 550   0.0000       3.859306       105.0171 
 551   0.0000       3.866332       105.2082 
 552   0.0000       3.873033       105.3906 
 553   0.0000       3.882262       105.6417 
 554   0.0000       3.892437       105.9186 
 555   0.0000       3.898838       106.0928 
 556   0.0000       3.910748       106.4169 
 557   0.0000       3.923975       106.7768 
 558   0.0000       3.933356       107.0321 
 559   0.0000       3.937971       107.1576 
 560   0.0000       3.948903       107.4551 
 561   0.0000       3.959182       107.7348 
 562   0.0000       3.961832       107.8069 
 563   0.0000       3.977845       108.2427 
 564   0.0000       3.992864       108.6514 
 565   0.0000       3.995364       108.7194 
 566   0.0000       4.001537       108.8874 
 567   0.0000       4.009177       109.0953 
 568   0.0000       4.016226       109.2871 
 569   0.0000       4.026544       109.5678 
 570   0.0000       4.031647       109.7067 
 571   0.0000       4.037796       109.8740 
 572   0.0000       4.050348       110.2156 
 573   0.0000       4.057024       110.3972 
 574   0.0000       4.066730       110.6613 
 575   0.0000       4.074927       110.8844 
 576   0.0000       4.081317       111.0583 
 577   0.0000       4.092064       111.3507 
 578   0.0000       4.100795       111.5883 
 579   0.0000       4.104496       111.6890 
 580   0.0000       4.109947       111.8373 
 581   0.0000       4.124766       112.2406 
 582   0.0000       4.130021       112.3836 
 583   0.0000       4.137154       112.5777 
 584   0.0000       4.152983       113.0084 
 585   0.0000       4.162375       113.2640 
 586   0.0000       4.165072       113.3374 
 587   0.0000       4.170245       113.4781 
 588   0.0000       4.174957       113.6064 
 589   0.0000       4.185888       113.9038 
 590   0.0000       4.187135       113.9377 
 591   0.0000       4.198379       114.2437 
 592   0.0000       4.202646       114.3598 
 593   0.0000       4.210558       114.5751 
 594   0.0000       4.221149       114.8633 
 595   0.0000       4.226363       115.0052 
 596   0.0000       4.231541       115.1461 
 597   0.0000       4.234282       115.2207 
 598   0.0000       4.241573       115.4191 
 599   0.0000       4.244039       115.4862 
 600   0.0000       4.253831       115.7526 
 601   0.0000       4.260665       115.9386 
 602   0.0000       4.267765       116.1318 
 603   0.0000       4.274735       116.3214 
 604   0.0000       4.295534       116.8874 
 605   0.0000       4.300408       117.0200 
 606   0.0000       4.305881       117.1690 
 607   0.0000       4.319381       117.5363 
 608   0.0000       4.324744       117.6823 
 609   0.0000       4.331700       117.8715 
 610   0.0000       4.339289       118.0781 
 611   0.0000       4.350867       118.3931 
 612   0.0000       4.357468       118.5727 
 613   0.0000       4.361919       118.6939 
 614   0.0000       4.367779       118.8533 
 615   0.0000       4.378319       119.1401 
 616   0.0000       4.382863       119.2638 
 617   0.0000       4.393605       119.5561 
 618   0.0000       4.397529       119.6629 
 619   0.0000       4.403701       119.8308 
 620   0.0000       4.415939       120.1638 
 621   0.0000       4.424678       120.4016 
 622   0.0000       4.434993       120.6823 
 623   0.0000       4.443506       120.9139 
 624   0.0000       4.452813       121.1672 
 625   0.0000       4.469021       121.6083 
 626   0.0000       4.475030       121.7718 
 627   0.0000       4.479691       121.8986 
 628   0.0000       4.491632       122.2235 
 629   0.0000       4.504303       122.5683 
 630   0.0000       4.510034       122.7243 
 631   0.0000       4.514218       122.8381 
 632   0.0000       4.529619       123.2572 
 633   0.0000       4.534954       123.4024 
 634   0.0000       4.543217       123.6272 
 635   0.0000       4.552555       123.8813 
 636   0.0000       4.559969       124.0831 
 637   0.0000       4.568050       124.3030 
 638   0.0000       4.572376       124.4207 
 639   0.0000       4.578258       124.5807 
 640   0.0000       4.597242       125.0973 
 641   0.0000       4.601966       125.2258 
 642   0.0000       4.605604       125.3249 
 643   0.0000       4.615937       125.6060 
 644   0.0000       4.622693       125.7899 
 645   0.0000       4.630133       125.9923 
 646   0.0000       4.634498       126.1111 
 647   0.0000       4.646603       126.4405 
 648   0.0000       4.649485       126.5189 
 649   0.0000       4.656583       126.7121 
 650   0.0000       4.657386       126.7339 
 651   0.0000       4.668885       127.0468 
 652   0.0000       4.674391       127.1966 
 653   0.0000       4.684431       127.4698 
 654   0.0000       4.692991       127.7028 
 655   0.0000       4.699018       127.8668 
 656   0.0000       4.706320       128.0655 
 657   0.0000       4.718875       128.4071 
 658   0.0000       4.736741       128.8933 
 659   0.0000       4.747062       129.1741 
 660   0.0000       4.753204       129.3413 
 661   0.0000       4.771421       129.8370 
 662   0.0000       4.784913       130.2041 
 663   0.0000       4.788781       130.3093 
 664   0.0000       4.811656       130.9318 
 665   0.0000       4.821452       131.1984 
 666   0.0000       4.843698       131.8037 
 667   0.0000       4.861106       132.2774 
 668   0.0000       4.867986       132.4646 
 669   0.0000       4.878860       132.7605 
 670   0.0000       4.919388       133.8633 
 671   0.0000       4.936204       134.3209 
 672   0.0000       4.946170       134.5921 
 673   0.0000       4.959746       134.9616 
 674   0.0000       4.987154       135.7074 
 675   0.0000       4.987870       135.7269 
 676   0.0000       5.017455       136.5319 
 677   0.0000       5.019397       136.5847 
 678   0.0000       5.036549       137.0515 
 679   0.0000       5.053927       137.5243 
 680   0.0000       5.061866       137.7404 
 681   0.0000       5.078196       138.1848 
 682   0.0000       5.081137       138.2648 
 683   0.0000       5.093791       138.6091 
 684   0.0000       5.111245       139.0840 
 685   0.0000       5.120405       139.3333 
 686   0.0000       5.123199       139.4093 
 687   0.0000       5.144845       139.9984 
 688   0.0000       5.148406       140.0952 
 689   0.0000       5.154024       140.2481 
 690   0.0000       5.171967       140.7364 
 691   0.0000       5.182146       141.0133 
 692   0.0000       5.198852       141.4680 
 693   0.0000       5.205179       141.6401 
 694   0.0000       5.212594       141.8419 
 695   0.0000       5.222812       142.1199 
 696   0.0000       5.224546       142.1671 
 697   0.0000       5.236616       142.4956 
 698   0.0000       5.246353       142.7605 
 699   0.0000       5.261556       143.1742 
 700   0.0000       5.271598       143.4475 
 701   0.0000       5.282772       143.7515 
 702   0.0000       5.294325       144.0659 
 703   0.0000       5.304791       144.3507 
 704   0.0000       5.328173       144.9870 
 705   0.0000       5.330410       145.0478 
 706   0.0000       5.347933       145.5246 
 707   0.0000       5.367759       146.0641 
 708   0.0000       5.373230       146.2130 
 709   0.0000       5.383153       146.4830 
 710   0.0000       5.389384       146.6526 
 711   0.0000       5.399711       146.9336 
 712   0.0000       5.430460       147.7703 
 713   0.0000       5.450541       148.3167 
 714   0.0000       5.465826       148.7327 
 715   0.0000       5.483486       149.2132 
 716   0.0000       5.502076       149.7191 
 717   0.0000       5.515044       150.0720 
 718   0.0000       5.520452       150.2191 
 719   0.0000       5.535205       150.6206 
 720   0.0000       5.547296       150.9496 
 721   0.0000       5.554211       151.1378 
 722   0.0000       5.569012       151.5405 
 723   0.0000       5.576664       151.7487 
 724   0.0000       5.586615       152.0195 
 725   0.0000       5.600498       152.3973 
 726   0.0000       5.613333       152.7466 
 727   0.0000       5.621487       152.9684 
 728   0.0000       5.627183       153.1234 
 729   0.0000       5.633700       153.3008 
 730   0.0000       5.657076       153.9369 
 731   0.0000       5.666152       154.1838 
 732   0.0000       5.690884       154.8568 
 733   0.0000       5.702588       155.1753 
 734   0.0000       5.710357       155.3867 
 735   0.0000       5.724822       155.7803 
 736   0.0000       5.734563       156.0454 
 737   0.0000       5.741036       156.2215 
 738   0.0000       5.751793       156.5142 
 739   0.0000       5.758244       156.6898 
 740   0.0000       5.764827       156.8689 
 741   0.0000       5.776248       157.1797 
 742   0.0000       5.783482       157.3765 
 743   0.0000       5.824799       158.5008 
 744   0.0000       5.831904       158.6942 
 745   0.0000       5.848099       159.1349 
 746   0.0000       5.868614       159.6931 
 747   0.0000       5.884933       160.1372 
 748   0.0000       5.892014       160.3298 
 749   0.0000       5.945694       161.7906 
 750   0.0000       5.960594       162.1960 
 751   0.0000       5.976206       162.6208 
 752   0.0000       5.988783       162.9631 
 753   0.0000       6.010663       163.5585 
 754   0.0000       6.024597       163.9376 
 755   0.0000       6.033299       164.1744 
 756   0.0000       6.045236       164.4992 
 757   0.0000       6.059786       164.8952 
 758   0.0000       6.064102       165.0126 
 759   0.0000       6.103119       166.0743 
 760   0.0000       6.127062       166.7258 
 761   0.0000       6.172212       167.9544 
 762   0.0000       6.224634       169.3809 
 763   0.0000       6.229876       169.5235 
 764   0.0000       6.289857       171.1557 
 765   0.0000       6.296063       171.3246 
 766   0.0000       6.318648       171.9391 
 767   0.0000       6.342746       172.5949 
 768   0.0000       6.346323       172.6922 
 769   0.0000       6.358655       173.0278 
 770   0.0000       6.376966       173.5261 
 771   0.0000       6.383518       173.7043 
 772   0.0000       6.404762       174.2824 
 773   0.0000       6.451676       175.5590 
 774   0.0000       6.459805       175.7802 
 775   0.0000       6.474943       176.1922 
 776   0.0000       6.495776       176.7591 
 777   0.0000       6.553379       178.3265 
 778   0.0000       6.566366       178.6799 
 779   0.0000       6.595386       179.4696 
 780   0.0000       6.668143       181.4494 
 781   0.0000       6.703499       182.4115 
 782   0.0000       6.717797       182.8006 
 783   0.0000       6.784682       184.6206 
 784   0.0000       6.789146       184.7420 
 785   0.0000       6.865659       186.8241 
 786   0.0000       6.908552       187.9913 
 787   0.0000       6.922478       188.3702 
 788   0.0000       6.962655       189.4635 
 789   0.0000       7.019849       191.0198 
 790   0.0000       7.052549       191.9096 
 791   0.0000       7.062275       192.1743 
 792   0.0000       7.082087       192.7134 
 793   0.0000       7.133254       194.1057 
 794   0.0000       7.257392       197.4837 
 795   0.0000       7.262309       197.6175 
 796   0.0000       7.269986       197.8264 
 797   0.0000       7.284399       198.2186 
 798   0.0000       7.349498       199.9900 
 799   0.0000       7.358668       200.2395 
 800   0.0000       7.394029       201.2017 
 801   0.0000       7.568013       205.9361 
 802   0.0000       7.589257       206.5142 
 803   0.0000       7.594119       206.6465 
 804   0.0000       7.633892       207.7288 
 805   0.0000       7.820804       212.8149 
 806   0.0000       7.828883       213.0347 
 807   0.0000       7.888834       214.6661 
 808   0.0000       7.935913       215.9472 
 809   0.0000       9.440318       256.8841 
 810   0.0000       9.628034       261.9921 
 811   0.0000      10.752804       292.5987 
 812   0.0000      11.343755       308.6793 
 813   0.0000      11.804194       321.2084 
 814   0.0000      12.679840       345.0360 
 815   0.0000      12.901065       351.0558 
 816   0.0000      12.959070       352.6342 
 817   0.0000      13.115454       356.8897 
 818   0.0000      13.202362       359.2545 
 819   0.0000      13.399423       364.6168 
 820   0.0000      13.473337       366.6281 
 821   0.0000      13.753896       374.2625 
 822   0.0000      13.976393       380.3170 
 823   0.0000      13.984664       380.5421 
 824   0.0000      14.173033       385.6678 
 825   0.0000      14.523558       395.2061 
 826   0.0000      14.722136       400.6097 
 827   0.0000      15.988488       435.0689 

                    ********************************
                    * MULLIKEN POPULATION ANALYSIS *
                    ********************************

-----------------------
MULLIKEN ATOMIC CHARGES
-----------------------
   0 C :   -0.321083
   1 C :    0.037355
   2 O :   -0.385448
   3 C :    0.473829
   4 O :   -0.410680
   5 C :   -0.228090
   6 C :    0.157945
   7 C :   -0.271924
   8 N :   -0.123965
   9 C :    0.199576
  10 S :   -0.433528
  11 N :   -0.191670
  12 C :    0.026598
  13 C :    0.060037
  14 C :   -0.185452
  15 C :   -0.131041
  16 C :   -0.276814
  17 C :    0.301374
  18 O :   -0.358554
  19 C :   -0.247534
  20 H :    0.111504
  21 H :    0.117004
  22 H :    0.100350
  23 H :    0.111629
  24 H :    0.117955
  25 H :    0.136536
  26 H :    0.094442
  27 H :    0.126434
  28 H :    0.198330
  29 H :    0.190620
  30 H :    0.149481
  31 H :    0.154165
  32 H :    0.161389
  33 H :    0.131811
  34 H :    0.241010
  35 H :    0.166411
Sum of atomic charges:    0.0000000

--------------------------------
MULLIKEN REDUCED ORBITAL CHARGES
--------------------------------
  0 C s       :     3.265197  s :     3.265197
      pz      :     0.981225  p :     2.976743
      px      :     0.986852
      py      :     1.008666
      dz2     :     0.024066  d :     0.074654
      dxz     :     0.014524
      dyz     :     0.006908
      dx2y2   :     0.015687
      dxy     :     0.013471
      f0      :     0.000753  f :     0.004489
      f+1     :     0.000946
      f-1     :     0.000482
      f+2     :     0.000493
      f-2     :     0.000538
      f+3     :     0.000208
      f-3     :     0.001069
  1 C s       :     3.159112  s :     3.159112
      pz      :     1.006842  p :     2.637351
      px      :     0.699517
      py      :     0.930991
      dz2     :     0.034814  d :     0.154618
      dxz     :     0.033991
      dyz     :     0.012629
      dx2y2   :     0.040571
      dxy     :     0.032613
      f0      :     0.001715  f :     0.011564
      f+1     :     0.001833
      f-1     :     0.000780
      f+2     :     0.000881
      f-2     :     0.001885
      f+3     :     0.002270
      f-3     :     0.002200
  2 O s       :     3.721330  s :     3.721330
      pz      :     1.820542  p :     4.629598
      px      :     1.513514
      py      :     1.295543
      dz2     :     0.004054  d :     0.032230
      dxz     :     0.003274
      dyz     :     0.005912
      dx2y2   :     0.013371
      dxy     :     0.005618
      f0      :     0.000299  f :     0.002290
      f+1     :     0.000232
      f-1     :     0.000411
      f+2     :     0.000328
[...]
 15 C s       :     2.705343  s :     2.705343
      pz      :     0.898854  p :     2.797255
      px      :     0.934789
      py      :     0.963613
      dz2     :     0.091593  d :     0.417495
      dxz     :     0.072082
      dyz     :     0.058284
      dx2y2   :     0.111179
      dxy     :     0.084356
      f0      :     0.003363  f :     0.041106
      f+1     :     0.005309
      f-1     :     0.005825
      f+2     :     0.007388
      f-2     :     0.006007
      f+3     :     0.007201
      f-3     :     0.006013
 16 C s       :     2.701373  s :     2.701373
      pz      :     0.936399  p :     2.870223
      px      :     0.960309
      py      :     0.973515
      dz2     :     0.042823  d :     0.390869
      dxz     :     0.058996
      dyz     :     0.086007
      dx2y2   :     0.096206
      dxy     :     0.106837
      f0      :     0.003912  f :     0.040346
      f+1     :     0.004559
      f-1     :     0.004372
      f+2     :     0.006242
      f-2     :     0.004881
      f+3     :     0.009253
      f-3     :     0.007127
 17 C s       :     2.700980  s :     2.700980
      pz      :     0.854957  p :     2.681946
      px      :     0.821690
      py      :     1.005298
      dz2     :     0.124638  d :     0.709447
      dxz     :     0.107647
      dyz     :     0.138888
      dx2y2   :     0.166621
      dxy     :     0.171652
      f0      :     0.008903  f :     0.099339
      f+1     :     0.015494
      f-1     :     0.009799
      f+2     :     0.016469
      f-2     :     0.013675
      f+3     :     0.018610
      f-3     :     0.016389
 18 O s       :     3.176988  s :     3.176988
      pz      :     1.429423  p :     4.345922
      px      :     1.405832
      py      :     1.510667
      dz2     :     0.008017  d :     0.075515
      dxz     :     0.017023
      dyz     :     0.018223
      dx2y2   :     0.014767
      dxy     :     0.017484
      f0      :     0.000580  f :     0.005062
      f+1     :     0.000701
      f-1     :     0.000441
      f+2     :     0.000640
      f-2     :     0.001016
      f+3     :     0.000776
      f-3     :     0.000907
 19 C s       :     2.694433  s :     2.694433
      pz      :     0.930075  p :     2.843298
      px      :     0.949940
      py      :     0.963283
      dz2     :     0.073734  d :     0.387475
      dxz     :     0.070560
      dyz     :     0.059464
      dx2y2   :     0.097313
      dxy     :     0.086404
      f0      :     0.003356  f :     0.040830
      f+1     :     0.005510
      f-1     :     0.005391
      f+2     :     0.007356
      f-2     :     0.006590
      f+3     :     0.006962
      f-3     :     0.005665
 20 H s       :     0.840482  s :     0.840482
      pz      :     0.073691  p :     0.158614
      px      :     0.042282
      py      :     0.042641
      dz2     :     0.009491  d :     0.028216
      dxz     :     0.008232
      dyz     :     0.008091
      dx2y2   :     0.001511
      dxy     :     0.000891
 21 H s       :     0.845353  s :     0.845353
      pz      :     0.041517  p :     0.151980
      px      :     0.065047
      py      :     0.045417
      dz2     :     0.003254  d :     0.027549
      dxz     :     0.007425
      dyz     :     0.001463
      dx2y2   :     0.008361
      dxy     :     0.007045
 22 H s       :     0.848986  s :     0.848986
      pz      :     0.039857  p :     0.153296
      px      :     0.039656
      py      :     0.073783
      dz2     :     0.002456  d :     0.027703
      dxz     :     0.000261
      dyz     :     0.008938
      dx2y2   :     0.006755
      dxy     :     0.009294
 23 H s       :     0.852743  s :     0.852743
      pz      :     0.041724  p :     0.143387
      px      :     0.026755
      py      :     0.074908
      dz2     :     0.003290  d :     0.026859
      dxz     :     0.000619
      dyz     :     0.008883
      dx2y2   :     0.007451
      dxy     :     0.006616
 24 H s       :     0.853888  s :     0.853888
      pz      :     0.077751  p :     0.147853
      px      :     0.034299
      py      :     0.035802
      dz2     :     0.009838  d :     0.027161
      dxz     :     0.007896
      dyz     :     0.007220
      dx2y2   :     0.000974
      dxy     :     0.001233
 25 H s       :     0.823921  s :     0.823921
      pz      :     0.064081  p :     0.151597
      px      :     0.049300
      py      :     0.038217
      dz2     :     0.008570  d :     0.027740
      dxz     :     0.007180
      dyz     :     0.006316
      dx2y2   :     0.002523
      dxy     :     0.003151
 26 H s       :     0.845088  s :     0.845088
      pz      :     0.038927  p :     0.150303
      px      :     0.043224
      py      :     0.068152
      dz2     :     0.003121  d :     0.027697
      dxz     :     0.001756
      dyz     :     0.007304
      dx2y2   :     0.007066
      dxy     :     0.008450
 27 H s       :     0.829102  s :     0.829102
      pz      :     0.041227  p :     0.150351
      px      :     0.061384
      py      :     0.047740
      dz2     :     0.002859  d :     0.027759
      dxz     :     0.006867
      dyz     :     0.002973
      dx2y2   :     0.008364
      dxy     :     0.006696
 28 H s       :     0.742485  s :     0.742485
      pz      :     0.057317  p :     0.253569
      px      :     0.078361
      py      :     0.117891
      dz2     :     0.005593  d :     0.061797
      dxz     :     0.002495
      dyz     :     0.016519
      dx2y2   :     0.018121
      dxy     :     0.019069
 29 H s       :     0.749596  s :     0.749596
      pz      :     0.109190  p :     0.254216
      px      :     0.099548
      py      :     0.045478
      dz2     :     0.019340  d :     0.061355
      dxz     :     0.014863
      dyz     :     0.009608
      dx2y2   :     0.010249
      dxy     :     0.007295
 30 H s       :     0.831665  s :     0.831665
      pz      :     0.040623  p :     0.146298
      px      :     0.059808
      py      :     0.045868
      dz2     :     0.003452  d :     0.028414
      dxz     :     0.006655
      dyz     :     0.004033
      dx2y2   :     0.006819
      dxy     :     0.007455
 31 H s       :     0.844283  s :     0.844283
      pz      :     0.052066  p :     0.156996
      px      :     0.065732
      py      :     0.039198
      dz2     :     0.004865  d :     0.027530
      dxz     :     0.006629
      dyz     :     0.003354
      dx2y2   :     0.006310
      dxy     :     0.006371
 32 H s       :     0.842967  s :     0.842967
      pz      :     0.037683  p :     0.151252
      px      :     0.038583
      py      :     0.074987
      dz2     :     0.002741  d :     0.026445
      dxz     :     0.000743
      dyz     :     0.007351
      dx2y2   :     0.007675
      dxy     :     0.007933
 33 H s       :     0.848340  s :     0.848340
      pz      :     0.059359  p :     0.159051
      px      :     0.050264
      py      :     0.049427
      dz2     :     0.006360  d :     0.027747
      dxz     :     0.005226
      dyz     :     0.005813
      dx2y2   :     0.005397
      dxy     :     0.004952
 34 H s       :     0.706274  s :     0.706274
      pz      :     0.118731  p :     0.347674
      px      :     0.087176
      py      :     0.141767
      dz2     :     0.025106  d :     0.099535
      dxz     :     0.013272
      dyz     :     0.023677
      dx2y2   :     0.018972
      dxy     :     0.018509
 35 H s       :     0.839192  s :     0.839192
      pz      :     0.040583  p :     0.157627
      px      :     0.040443
      py      :     0.076601
      dz2     :     0.002757  d :     0.028080
      dxz     :     0.000814
      dyz     :     0.008110
      dx2y2   :     0.007981
      dxy     :     0.008418


                      *****************************
                      * MAYER POPULATION ANALYSIS *
                      *****************************

  NA   - Mulliken gross atomic population
  ZA   - Total nuclear charge
  QA   - Mulliken gross atomic charge
  VA   - Mayer's total valence
  BVA  - Mayer's bonded valence
  FA   - Mayer's free valence

  ATOM       NA         ZA         QA         VA         BVA        FA
  0 C      6.3211     6.0000    -0.3211     3.8706     3.8706     0.0000
  1 C      5.9626     6.0000     0.0374     3.8442     3.8442    -0.0000
  2 O      8.3854     8.0000    -0.3854     1.9980     1.9980     0.0000
  3 C      5.5262     6.0000     0.4738     4.2280     4.2280     0.0000
  4 O      8.4107     8.0000    -0.4107     2.0936     2.0936     0.0000
  5 C      6.2281     6.0000    -0.2281     3.6619     3.6619    -0.0000
  6 C      5.8421     6.0000     0.1579     3.8691     3.8691     0.0000
  7 C      6.2719     6.0000    -0.2719     3.9105     3.9105     0.0000
  8 N      7.1240     7.0000    -0.1240     3.2899     3.2899    -0.0000
  9 C      5.8004     6.0000     0.1996     4.1554     4.1554    -0.0000
 10 S     16.4335    16.0000    -0.4335     1.7658     1.7658     0.0000
 11 N      7.1917     7.0000    -0.1917     3.2520     3.2520     0.0000
 12 C      5.9734     6.0000     0.0266     3.9622     3.9622     0.0000
 13 C      5.9400     6.0000     0.0600     3.7123     3.7123     0.0000
 14 C      6.1855     6.0000    -0.1855     3.8420     3.8420    -0.0000
 15 C      6.1310     6.0000    -0.1310     3.7946     3.7946     0.0000
 16 C      6.2768     6.0000    -0.2768     3.7868     3.7868    -0.0000
 17 C      5.6986     6.0000     0.3014     3.8902     3.8902    -0.0000
 18 O      8.3586     8.0000    -0.3586     2.1185     2.1185     0.0000
 19 C      6.2475     6.0000    -0.2475     3.8347     3.8347    -0.0000
 20 H      0.8885     1.0000     0.1115     0.9730     0.9730    -0.0000
 21 H      0.8830     1.0000     0.1170     0.9834     0.9834     0.0000
 22 H      0.8996     1.0000     0.1004     0.9811     0.9811     0.0000
 23 H      0.8884     1.0000     0.1116     0.9783     0.9783     0.0000
 24 H      0.8820     1.0000     0.1180     0.9864     0.9864    -0.0000
 25 H      0.8635     1.0000     0.1365     0.9794     0.9794     0.0000
 26 H      0.9056     1.0000     0.0944     0.9856     0.9856     0.0000
 27 H      0.8736     1.0000     0.1264     0.9786     0.9786     0.0000
 28 H      0.8017     1.0000     0.1983     1.0222     1.0222    -0.0000
 29 H      0.8094     1.0000     0.1906     1.0210     1.0210    -0.0000
 30 H      0.8505     1.0000     0.1495     0.9933     0.9933     0.0000
 31 H      0.8458     1.0000     0.1542     0.9853     0.9853    -0.0000
 32 H      0.8386     1.0000     0.1614     0.9772     0.9772    -0.0000
 33 H      0.8682     1.0000     0.1318     0.9912     0.9912     0.0000
 34 H      0.7590     1.0000     0.2410     1.0107     1.0107     0.0000
 35 H      0.8336     1.0000     0.1664     0.9900     0.9900    -0.0000

  Mayer bond orders larger than 0.100000
B(  0-C ,  1-C ) :   0.9569 B(  0-C , 20-H ) :   0.9728 B(  0-C , 21-H ) :   0.9782 
B(  0-C , 22-H ) :   0.9723 B(  1-C ,  2-O ) :   0.8830 B(  1-C , 23-H ) :   0.9840 
B(  1-C , 24-H ) :   0.9832 B(  2-O ,  3-C ) :   1.1046 B(  3-C ,  4-O ) :   2.0030 
B(  3-C ,  5-C ) :   1.0620 B(  5-C ,  6-C ) :   1.6551 B(  5-C , 12-C ) :   0.9706 
B(  6-C ,  7-C ) :   0.9711 B(  6-C ,  8-N ) :   1.1431 B(  7-C , 25-H ) :   0.9571 
B(  7-C , 26-H ) :   0.9883 B(  7-C , 27-H ) :   0.9652 B(  8-N ,  9-C ) :   1.1778 
B(  8-N , 28-H ) :   0.9486 B(  9-C , 10-S ) :   1.6196 B(  9-C , 11-N ) :   1.2985 
B( 11-N , 12-C ) :   0.9867 B( 11-N , 29-H ) :   0.9542 B( 12-C , 13-C ) :   0.9395 
B( 12-C , 30-H ) :   1.0055 B( 13-C , 14-C ) :   1.3627 B( 13-C , 19-C ) :   1.3695 
B( 14-C , 15-C ) :   1.3867 B( 14-C , 31-H ) :   0.9690 B( 15-C , 16-C ) :   1.3614 
B( 15-C , 32-H ) :   0.9715 B( 16-C , 17-C ) :   1.3306 B( 16-C , 33-H ) :   0.9849 
B( 17-C , 18-O ) :   1.1136 B( 17-C , 19-C ) :   1.3793 B( 18-O , 34-H ) :   0.9796 
B( 19-C , 35-H ) :   0.9571 

-------
TIMINGS
-------

Total SCF time: 0 days 2 hours 8 min 10 sec 

Total time                  ....    7690.785 sec
Sum of individual times     ....    7683.542 sec  ( 99.9%)

Fock matrix formation       ....    7663.412 sec  ( 99.6%)
Diagonalization             ....       1.982 sec  (  0.0%)
Density matrix formation    ....       0.209 sec  (  0.0%)
Population analysis         ....       0.369 sec  (  0.0%)
Initial guess               ....       6.568 sec  (  0.1%)
Orbital Transformation      ....       0.000 sec  (  0.0%)
Orbital Orthonormalization  ....       0.000 sec  (  0.0%)
DIIS solution               ....       7.378 sec  (  0.1%)
SOSCF solution              ....       2.052 sec  (  0.0%)

Maximum memory used throughout the entire SCF-calculation: 758.8 MB

------------------------------------------------------------------------------
                                ORCA  MP2 
------------------------------------------------------------------------------

Freezing NCore=48 chemical core electrons

-------------
RI-MP2 ENERGY
-------------
Dimension of the basis                    ...  828
Memory devoted to MP2                     ...  256 MB   
Data format for buffers                   ... DOUBLE
Compression type for matrix containers    ... UNCOMPRESSED
Overall scaling of the MP2 energy         ...   1.000e+00
Calculating two index integrals           ... done (    0.040 sec)
Cholesky decomposition of V**-1           ... done (    0.547 sec)

-----------------
RI-TRANSFORMATION (AUX index driven)
-----------------

Dimension of the orbital-basis         ... 828
Dimension of the aux-basis             ... 2141
Transformation of internal/external MOs...   24-  76 to   77- 827
Number Format for Storage              ... Double (8 Byte)
Integral mode                          ... Direct

First Phase: integral generation and transformation of MO indices
  Aux angular momentum 0               ... done (    4.663 sec)
  Aux angular momentum 1               ... done (    8.044 sec)
  Aux angular momentum 2               ... done (   10.579 sec)
  Aux angular momentum 3               ... done (    8.765 sec)
  Aux angular momentum 4               ... done (    3.065 sec)
Closing buffer VIA ( 0.63 GB; CompressionRatio= 1.00)
  Phase 1 completed in    35.547 sec
Second Phase: sorting and transformation of aux index

IA-Transformation
Memory available                       ... 156 MB 
Max. # MO pairs treated in a batch     ... 11    
# of internal orbitals                 ... 53
# batches for internal orbitals        ... 5
Closing buffer IAV ( 0.63 GB; CompressionRatio= 1.00)
(ia|v) transformation done in    27.014 sec

  Phase 2 completed in    27.022 sec
RI-Integral transformation completed in    62.655 sec
Opening buffers                              ... done

Starting loop over batches of integrals:

Operator 0  - window                       ... ( 24- 76)x( 77-827)
Operator 0  - Memory available             ...   256 MB
Operator 0  - Memory needed per MO         ...  12.3 MB
Operator 0  - Number of orbitals per batch ... 13
Operator 0  - Number of batches            ... 5

OPERATOR  0   PASS   0:  MOs    24 ...   36
  Reading integrals       ... ok
  Internal MO  26
  Internal MO  29
  Internal MO  32
  Internal MO  35
OPERATOR  0   PASS   1:  MOs    37 ...   49
  Reading integrals       ... ok
  Internal MO  38
  Internal MO  41
  Internal MO  44
  Internal MO  47
OPERATOR  0   PASS   2:  MOs    50 ...   62
  Reading integrals       ... ok
  Internal MO  50
  Internal MO  53
  Internal MO  56
  Internal MO  59
  Internal MO  62
OPERATOR  0   PASS   3:  MOs    63 ...   75
  Reading integrals       ... ok
  Internal MO  65
  Internal MO  68
  Internal MO  71
  Internal MO  74
OPERATOR  0   PASS   4:  MOs    76 ...   76
  Reading integrals       ... ok
Time spent in pair loops =    96.974 sec
Deleting buffer (Ka|jb)[aa] ...done

-----------------------------------------------
 RI-MP2 CORRELATION ENERGY:     -3.538920273 Eh
-----------------------------------------------


-------
TIMINGS
-------

Total time                :  160.323 sec
Integral trafo            :   62.677 sec ( 39.1%)
I/O of integrals          :    3.258 sec (  2.0%)
K(i,j) Operators          :   57.465 sec ( 35.8%)
T(i,j) pair energies      :    8.058 sec (  5.0%)
V-calculation             :    0.040 sec (  0.0%)
V**(-1/2)                 :    0.547 sec (  0.3%)
Gamma(ia|P)               :    0.000 sec (  0.0%)
Gamma-Trafo               :    0.000 sec (  0.0%)
D(virtual)                :    0.000 sec (  0.0%)
D(internal)               :    0.000 sec (  0.0%)
W(virtual)                :    0.000 sec (  0.0%)
W(internal)               :    0.000 sec (  0.0%)
L(virtual)                :    0.000 sec (  0.0%)
L(internal)               :    0.000 sec (  0.0%)
G(D)                      :    0.000 sec (  0.0%)
G(Z)                      :    0.000 sec (  0.0%)
Z-Vector Solution         :    0.000 sec (  0.0%)
3-Index Derivative        :    0.000 sec (  0.0%)
2-Index Derivative        :    0.000 sec (  0.0%)
Separable Gradient        :    0.000 sec (  0.0%)


---------------------------------------
MP2 TOTAL ENERGY:    -1274.329560582 Eh
---------------------------------------

Maximum memory used throughout the entire MP2-calculation: 305.8 MB

-------------------------   --------------------
FINAL SINGLE POINT ENERGY     -1274.329560581608
-------------------------   --------------------


                            ***************************************
                            *     ORCA property calculations      *
                            ***************************************


  WARNING: The energy has been calculated at the MP2 level but the densities
           used in the property calculations are still SCF densities
           MP2 response densities have not been calculated 
           use %mp2 Density relaxed end
           or  %mp2 Density unrelaxed end

                                    ---------------------
                                    Active property flags
                                    ---------------------
   (+) Dipole Moment


------------------------------------------------------------------------------
                       ORCA ELECTRIC PROPERTIES CALCULATION
------------------------------------------------------------------------------

Dipole Moment Calculation                       ... on
Quadrupole Moment Calculation                   ... off
Polarizability Calculation                      ... off
GBWName                                         ... CONFS/Conf303.orca.gbw
Electron density file                           ... CONFS/Conf303.orca.scfp
The origin for moment calculation is the CENTER OF MASS  = (32.809088, 31.466901 35.182862)

-------------
DIPOLE MOMENT
-------------
                                X             Y             Z
Electronic contribution:      9.69227       8.95879       5.54747
Nuclear contribution   :    -10.73051     -10.61048      -5.59659
                        -----------------------------------------
Total Dipole Moment    :     -1.03825      -1.65169      -0.04912
                        -----------------------------------------
Magnitude (a.u.)       :      1.95152
Magnitude (Debye)      :      4.96038



--------------------
Rotational spectrum 
--------------------
 
Rotational constants in cm-1:     0.011805     0.009818     0.006597 
Rotational constants in MHz :   353.910778   294.342915   197.771146 

 Dipole components along the rotational axes: 
x,y,z [a.u.] :    -1.923115    -0.080152     0.321947 
x,y,z [Debye]:    -4.888170    -0.203731     0.818324 

 

Timings for individual modules:

Sum of individual times         ...     7856.238 sec (= 130.937 min)
GTO integral calculation        ...        4.235 sec (=   0.071 min)   0.1 %
SCF iterations                  ...     7690.863 sec (= 128.181 min)  97.9 %
MP2 module                      ...      161.140 sec (=   2.686 min)   2.1 %
                             ****ORCA TERMINATED NORMALLY****
TOTAL RUN TIME: 0 days 2 hours 10 minutes 57 seconds 844 msec
