
                                        *****************
                                        * O   R   C   A *
                                        *****************

                                            #,                                       
                                            ###                                      
                                            ####                                     
                                            #####                                    
                                            ######                                   
                                           ########,                                 
                                     ,,################,,,,,                         
                               ,,#################################,,                 
                          ,,##########################################,,             
                       ,#########################################, ''#####,          
                    ,#############################################,,   '####,        
                  ,##################################################,,,,####,       
                ,###########''''           ''''###############################       
              ,#####''   ,,,,##########,,,,          '''####'''          '####       
            ,##' ,,,,###########################,,,                        '##       
           ' ,,###''''                  '''############,,,                           
         ,,##''                                '''############,,,,        ,,,,,,###''
      ,#''                                            '''#######################'''  
     '                                                          ''''####''''         
             ,#######,   #######,   ,#######,      ##                                
            ,#'     '#,  ##    ##  ,#'     '#,    #''#        ######   ,####,        
            ##       ##  ##   ,#'  ##            #'  '#       #        #'  '#        
            ##       ##  #######   ##           ,######,      #####,   #    #        
            '#,     ,#'  ##    ##  '#,     ,#' ,#      #,         ##   #,  ,#        
             '#######'   ##     ##  '#######'  #'      '#     #####' # '####'        



                  #######################################################
                  #                        -***-                        #
                  #          Department of theory and spectroscopy      #
                  #    Directorship and core code : Frank Neese         #
                  #        Max Planck Institute fuer Kohlenforschung    #
                  #                Kaiser Wilhelm Platz 1               #
                  #                 D-45470 Muelheim/Ruhr               #
                  #                      Germany                        #
                  #                                                     #
                  #                  All rights reserved                #
                  #                        -***-                        #
                  #######################################################


                         Program Version 5.0.0 -  RELEASE  -
                                (SVN: $Rev: 19529$)
                ($Date: 2021-06-28 11:36:33 +0200 (Mo, 28 Jun 2021) $)


 With contributions from (in alphabetic order):
   Daniel Aravena         : Magnetic Suceptibility
   Michael Atanasov       : Ab Initio Ligand Field Theory (pilot matlab implementation)
   Alexander A. Auer      : GIAO ZORA, VPT2 properties, NMR spectrum
   Ute Becker             : Parallelization
   Giovanni Bistoni       : ED, misc. LED, open-shell LED, HFLD
   Martin Brehm           : Molecular dynamics
   Dmytro Bykov           : SCF Hessian
   Vijay G. Chilkuri      : MRCI spin determinant printing, contributions to CSF-ICE
   Dipayan Datta          : RHF DLPNO-CCSD density
   Achintya Kumar Dutta   : EOM-CC, STEOM-CC
   Dmitry Ganyushin       : Spin-Orbit,Spin-Spin,Magnetic field MRCI
   Miquel Garcia          : C-PCM Hessian, Gaussian charge scheme
   Yang Guo               : DLPNO-NEVPT2, F12-NEVPT2, CIM, IAO-localization
   Andreas Hansen         : Spin unrestricted coupled pair/coupled cluster methods
   Benjamin Helmich-Paris : MC-RPA, TRAH-SCF, COSX integrals
   Lee Huntington         : MR-EOM, pCC
   Robert Izsak           : Overlap fitted RIJCOSX, COSX-SCS-MP3, EOM
   Marcus Kettner         : VPT2
   Christian Kollmar      : KDIIS, OOCD, Brueckner-CCSD(T), CCSD density, CASPT2, CASPT2-K
   Simone Kossmann        : Meta GGA functionals, TD-DFT gradient, OOMP2, MP2 Hessian
   Martin Krupicka        : Initial AUTO-CI
   Lucas Lang             : DCDCAS
   Marvin Lechner         : AUTO-CI (C++ implementation), FIC-MRCC
   Dagmar Lenk            : GEPOL surface, SMD
   Dimitrios Liakos       : Extrapolation schemes; Compound Job, initial MDCI parallelization
   Dimitrios Manganas     : Further ROCIS development; embedding schemes
   Dimitrios Pantazis     : SARC Basis sets
   Anastasios Papadopoulos: AUTO-CI, single reference methods and gradients
   Taras Petrenko         : DFT Hessian,TD-DFT gradient, ASA, ECA, R-Raman, ABS, FL, XAS/XES, NRVS
   Peter Pinski           : DLPNO-MP2, DLPNO-MP2 Gradient
   Christoph Reimann      : Effective Core Potentials
   Marius Retegan         : Local ZFS, SOC
   Christoph Riplinger    : Optimizer, TS searches, QM/MM, DLPNO-CCSD(T), (RO)-DLPNO pert. Triples
   Tobias Risthaus        : Range-separated hybrids, TD-DFT gradient, RPA, STAB
   Michael Roemelt        : Original ROCIS implementation
   Masaaki Saitow         : Open-shell DLPNO-CCSD energy and density
   Barbara Sandhoefer     : DKH picture change effects
   Avijit Sen             : IP-ROCIS
   Kantharuban Sivalingam : CASSCF convergence, NEVPT2, FIC-MRCI
   Bernardo de Souza      : ESD, SOC TD-DFT
   Georgi Stoychev        : AutoAux, RI-MP2 NMR
   Willem Van den Heuvel  : Paramagnetic NMR
   Boris Wezisla          : Elementary symmetry handling
   Frank Wennmohs         : Technical directorship


 We gratefully acknowledge several colleagues who have allowed us to
 interface, adapt or use parts of their codes:
   Stefan Grimme, W. Hujo, H. Kruse, P. Pracht,  : VdW corrections, initial TS optimization,
                  C. Bannwarth, S. Ehlert          DFT functionals, gCP, sTDA/sTD-DF
   Ed Valeev, F. Pavosevic, A. Kumar             : LibInt (2-el integral package), F12 methods
   Garnet Chan, S. Sharma, J. Yang, R. Olivares  : DMRG
   Ulf Ekstrom                                   : XCFun DFT Library
   Mihaly Kallay                                 : mrcc  (arbitrary order and MRCC methods)
   Jiri Pittner, Ondrej Demel                    : Mk-CCSD
   Frank Weinhold                                : gennbo (NPA and NBO analysis)
   Christopher J. Cramer and Donald G. Truhlar   : smd solvation model
   Lars Goerigk                                  : TD-DFT with DH, B97 family of functionals
   V. Asgeirsson, H. Jonsson                     : NEB implementation
   FAccTs GmbH                                   : IRC, NEB, NEB-TS, DLPNO-Multilevel, CI-OPT
                                                   MM, QMMM, 2- and 3-layer-ONIOM, Crystal-QMMM,
                                                   LR-CPCM, SF, NACMEs, symmetry and pop. for TD-DFT,
                                                   nearIR, NL-DFT gradient (VV10), updates on ESD,
                                                   ML-optimized integration grids
   S Lehtola, MJT Oliveira, MAL Marques          : LibXC Library
   Liviu Ungur et al                             : ANISO software


 Your calculation uses the libint2 library for the computation of 2-el integrals
 For citations please refer to: http://libint.valeyev.net

 Your ORCA version has been built with support for libXC version: 5.1.0
 For citations please refer to: https://tddft.org/programs/libxc/

 This ORCA versions uses:
   CBLAS   interface :  Fast vector & matrix operations
   LAPACKE interface :  Fast linear algebra routines
   SCALAPACK package :  Parallel linear algebra routines
   Shared memory     :  Shared parallel matrices
   BLAS/LAPACK       :  OpenBLAS 0.3.15  USE64BITINT DYNAMIC_ARCH NO_AFFINITY SkylakeX SINGLE_THREADED
        Core in use  :  SkylakeX
   Copyright (c) 2011-2014, The OpenBLAS Project


================================================================================

----- Orbital basis set information -----
Your calculation utilizes the basis: cc-pVTZ 
       H, B-Ne : Obtained from the ccRepo (grant-hill.group.shef.ac.uk/ccrepo) Feb. 2017
                 T. H. Dunning, Jr., J. Chem. Phys. 90, 1007 (1989)
            He : Obtained from the ccRepo (grant-hill.group.shef.ac.uk/ccrepo) Feb. 2017
                 D. E. Woon, T. H. Dunning, Jr., J. Chem. Phys. 100, 2975 (1994)
  Li-Be, Na-Mg : Obtained from the ccRepo (grant-hill.group.shef.ac.uk/ccrepo) Feb. 2017
                 B. P. Prascher, D. E. Woon, K. A. Peterson, T. H. Dunning, Jr., A. K. Wilson, Theor. Chem. Acc. 128, 69 (2011)
         Al-Ar : Obtained from the ccRepo (grant-hill.group.shef.ac.uk/ccrepo) Feb. 2017
                 D. E. Woon, T. H. Dunning, Jr., J. Chem. Phys. 98, 1358 (1993)
            Ca : Obtained from the Peterson Research Group Website (tyr0.chem.wsu.edu/~kipeters) Feb. 2017
                 J. Koput, K. A. Peterson, J. Phys. Chem. 106, 9595 (2002)
         Sc-Zn : Obtained from the ccRepo (grant-hill.group.shef.ac.uk/ccrepo) Feb. 2017
                 N. B. Balabanov, K. A. Peterson, J. Chem. Phys. 123, 064107 (2005)
                 N. B. Balabanov, K. A. Peterson, J. Chem. Phys. 125, 074110 (2006)
         Ga-Kr : Obtained from the ccRepo (grant-hill.group.shef.ac.uk/ccrepo) Feb. 2017
                 A. K. Wilson, D. E. Woon, K. A. Peterson, T. H. Dunning, Jr., J. Chem. Phys. 110, 7667 (1999)
             Y : Obtained from the ccRepo (grant-hill.group.shef.ac.uk/ccrepo) Feb. 2017
                 K. A. Peterson, D. Figgen, M. Dolg, H. Stoll, J. Chem. Phys. 126, 124101 (2007)
        Ag, Au : Obtained from the Peterson Research Group Website (tyr0.chem.wsu.edu/~kipeters) Feb. 2017
                 K. A. Peterson, C. Puzzarini, Theor. Chem. Acc. 114, 283 (2005)

----- AuxC basis set information -----
Your calculation utilizes the auxiliary basis: cc-pVTZ/C 
  Obtained from the EMSL Basis Set Exchange (bse.pnl.gov) Feb. 2017
  H-He, B-F, Al-Ar, Ga-Kr : F. Weigend, A. Kohn, C. Hattig, J. Chem. Phys. 116, 3175 (2002)
             Li-Be, Na-Mg : C. Haettig, Phys. Chem. Chem. Phys. 7, 59 (2005)
                       Ne : C. Haettig, Phys. Chem. Chem. Phys. 7, 59 (2005)
                            F. Weigend, A. Kohn, C. Hattig, J. Chem. Phys. 116, 3175 (2002)
                    Sc-Zn : J. G. Hill, J. A. Platts, J. Chem. Phys. 128, 044104 (2008)

================================================================================
                                        WARNINGS
                       Please study these warnings very carefully!
================================================================================


WARNING: No MP2 level density has been requested!
         To caclulate MP2 level properties use
         %mp2 Density relaxed end
         or
         %mp2 Density unrelaxed end

WARNING: Post HF methods need fully converged wavefunctions
  ===> : Setting SCFConvForced true
         You can overwrite this default with %scf ConvForced false 


INFO   : the flag for use of the SHARK integral package has been found!

================================================================================
                                       INPUT FILE
================================================================================
NAME = CONFS/Conf934.orca
|  1> ! ri-mp2 cc-pvtz cc-pvtz/c TightSCF NoKeepInts
|  2> 
|  3> %scf
|  4>   MaxCore 4096
|  5> end
|  6> *xyz  0  1
|  7>     C       14.2129199   14.9639072   15.1833358
|  8>     C       15.5616600   14.5878508   15.8192924
|  9>     O       16.2805703   15.8079449   16.0584422
| 10>     C       17.4701196   15.7399371   16.7220537
| 11>     O       18.0989487   14.6976081   16.8091458
| 12>     C       17.7557510   16.9254673   17.5988979
| 13>     C       17.1949385   18.1546908   17.4522076
| 14>     C       16.2016078   18.6082330   16.4018221
| 15>     N       17.5854176   19.2006198   18.2951119
| 16>     C       18.6218317   19.1417739   19.1890055
| 17>     S       19.1033829   20.4666221   20.0541626
| 18>     N       19.2401135   17.9252366   19.3280381
| 19>     C       18.7702807   16.6669202   18.7186991
| 20>     C       18.1867808   15.7433526   19.7850526
| 21>     C       18.6756666   14.4326554   19.9373731
| 22>     C       18.1404550   13.5771292   20.9149041
| 23>     C       17.1063790   14.0350526   21.7489253
| 24>     C       16.6138453   15.3384231   21.5982596
| 25>     O       15.6110728   15.7815615   22.3979200
| 26>     C       17.1482287   16.1874307   20.6240499
| 27>     H       13.6347156   15.6097202   15.8557397
| 28>     H       13.6207651   14.0636831   14.9784371
| 29>     H       14.3669821   15.4965395   14.2366598
| 30>     H       15.3921442   14.0532844   16.7640457
| 31>     H       16.1301939   13.9338826   15.1440888
| 32>     H       16.5338211   18.3150581   15.3980958
| 33>     H       16.0656406   19.6964171   16.3892830
| 34>     H       15.2183961   18.1541546   16.5777465
| 35>     H       17.1438940   20.1019542   18.2078196
| 36>     H       19.9807027   17.9000265   20.0171123
| 37>     H       19.6426789   16.1684539   18.2718682
| 38>     H       19.4635573   14.0702588   19.2815271
| 39>     H       18.5237008   12.5635734   21.0180584
| 40>     H       16.6889707   13.3770902   22.5037512
| 41>     H       15.4062073   15.0721347   23.0252180
| 42>     H       16.7546590   17.1933517   20.5278495
| 43> *
| 44> 
| 45>                          ****END OF INPUT****
================================================================================

                       ****************************
                       * Single Point Calculation *
                       ****************************

---------------------------------
CARTESIAN COORDINATES (ANGSTROEM)
---------------------------------
  C     14.212920   14.963907   15.183336
  C     15.561660   14.587851   15.819292
  O     16.280570   15.807945   16.058442
  C     17.470120   15.739937   16.722054
  O     18.098949   14.697608   16.809146
  C     17.755751   16.925467   17.598898
  C     17.194938   18.154691   17.452208
  C     16.201608   18.608233   16.401822
  N     17.585418   19.200620   18.295112
  C     18.621832   19.141774   19.189006
  S     19.103383   20.466622   20.054163
  N     19.240113   17.925237   19.328038
  C     18.770281   16.666920   18.718699
  C     18.186781   15.743353   19.785053
  C     18.675667   14.432655   19.937373
  C     18.140455   13.577129   20.914904
  C     17.106379   14.035053   21.748925
  C     16.613845   15.338423   21.598260
  O     15.611073   15.781562   22.397920
  C     17.148229   16.187431   20.624050
  H     13.634716   15.609720   15.855740
  H     13.620765   14.063683   14.978437
  H     14.366982   15.496539   14.236660
  H     15.392144   14.053284   16.764046
  H     16.130194   13.933883   15.144089
  H     16.533821   18.315058   15.398096
  H     16.065641   19.696417   16.389283
  H     15.218396   18.154155   16.577746
  H     17.143894   20.101954   18.207820
  H     19.980703   17.900026   20.017112
  H     19.642679   16.168454   18.271868
  H     19.463557   14.070259   19.281527
  H     18.523701   12.563573   21.018058
  H     16.688971   13.377090   22.503751
  H     15.406207   15.072135   23.025218
  H     16.754659   17.193352   20.527849

----------------------------
CARTESIAN COORDINATES (A.U.)
----------------------------
  NO LB      ZA    FRAG     MASS         X           Y           Z
   0 C     6.0000    0    12.011   26.858526   28.277687   28.692346
   1 C     6.0000    0    12.011   29.407276   27.567043   29.894130
   2 O     8.0000    0    15.999   30.765819   29.872687   30.346058
   3 C     6.0000    0    12.011   33.013742   29.744170   31.600102
   4 O     8.0000    0    15.999   34.202056   27.774454   31.764682
   5 C     6.0000    0    12.011   33.553507   31.984498   33.257097
   6 C     6.0000    0    12.011   32.493725   34.307394   32.979893
   7 C     6.0000    0    12.011   30.616602   35.164464   30.994952
   8 N     7.0000    0    14.007   33.231623   36.283913   34.572751
   9 C     6.0000    0    12.011   35.190162   36.172710   36.261965
  10 S    16.0000    0    32.060   36.100162   38.676311   37.896875
  11 N     7.0000    0    14.007   36.358545   33.873788   36.524699
  12 C     6.0000    0    12.011   35.470690   31.495915   35.373215
  13 C     6.0000    0    12.011   34.368035   29.750625   37.388331
  14 C     6.0000    0    12.011   35.291895   27.273766   37.676175
  15 C     6.0000    0    12.011   34.280492   25.657056   39.523441
  16 C     6.0000    0    12.011   32.326371   26.522406   41.099513
  17 C     6.0000    0    12.011   31.395618   28.985419   40.814796
  18 O     8.0000    0    15.999   29.500652   29.822829   42.325935
  19 C     6.0000    0    12.011   32.405456   30.589811   38.973806
  20 H     1.0000    0     1.008   25.765878   29.498096   29.963006
  21 H     1.0000    0     1.008   25.739516   26.576509   28.305144
  22 H     1.0000    0     1.008   27.149662   29.284216   26.903388
  23 H     1.0000    0     1.008   29.086937   26.556859   31.679455
  24 H     1.0000    0     1.008   30.481649   26.331222   28.618180
  25 H     1.0000    0     1.008   31.244394   34.610444   29.098184
  26 H     1.0000    0     1.008   30.359661   37.220834   30.971256
  27 H     1.0000    0     1.008   28.758601   34.306380   31.327401
  28 H     1.0000    0     1.008   32.397265   37.987188   34.407793
  29 H     1.0000    0     1.008   37.758056   33.826148   37.826860
  30 H     1.0000    0     1.008   37.119284   30.553950   34.528827
  31 H     1.0000    0     1.008   36.780793   26.588936   36.436806
  32 H     1.0000    0     1.008   35.004721   23.741713   39.718374
  33 H     1.0000    0     1.008   31.537584   25.279037   42.525927
  34 H     1.0000    0     1.008   29.113513   28.482207   43.511356
  35 H     1.0000    0     1.008   31.661717   32.490726   38.792014

--------------------------------
INTERNAL COORDINATES (ANGSTROEM)
--------------------------------
 C      0   0   0     0.000000000000     0.00000000     0.00000000
 C      1   0   0     1.537842342509     0.00000000     0.00000000
 O      2   1   0     1.436194366770   107.46564453     0.00000000
 C      3   2   1     1.363830202380   118.37635050   174.72781377
 O      4   3   2     1.220434682861   121.78401094    19.25063632
 C      4   3   2     1.501973003370   114.24079352   213.65169534
 C      6   4   3     1.359050814805   124.91965553   337.86649547
 C      7   6   4     1.515162072306   128.03175700   359.20303521
 N      7   6   4     1.398902805607   119.73792683   182.90190117
 C      9   7   6     1.369913426004   124.90618659     7.90384624
 S     10   9   7     1.653968294420   121.81517597   174.50959331
 N     10   9   7     1.371701662303   116.43898433   354.55057183
 C     12  10   9     1.474922723191   124.83243819   352.23853535
 C     13  12  10     1.526616858296   110.44500459   252.16657436
 C     14  13  12     1.407173766899   120.41888728   235.09236305
 C     15  14  13     1.404970957572   120.67349748   180.14893136
 C     16  15  14     1.405204033617   119.65978112     0.00000000
 C     17  16  15     1.401450769404   119.86036316     0.17648761
 O     18  17  16     1.356974975318   120.00433349   179.69309739
 C     18  17  16     1.398379084021   120.34731088   359.84711941
 H      1   2   3     1.097051342574   110.65444976   299.84547756
 H      1   2   3     1.096829163838   110.48992434   179.97192433
 H      1   2   3     1.097099711716   110.63408348    60.11386144
 H      2   1   3     1.098660839531   109.83229682   120.04128015
 H      2   1   3     1.098546814439   110.19961196   239.62710316
 H      8   7   6     1.097170763372   110.83716413   311.42238681
 H      8   7   6     1.096717349182   112.71894588   191.53356645
 H      8   7   6     1.097197263430   110.63717391    71.08196729
 H      9   7   6     1.007455575010   119.62893256   182.28614822
 H     12  10   9     1.011894839103   114.89819835   182.03134447
 H     13  12  10     1.099638633731   107.57073261   134.24606172
 H     15  14  13     1.087307236504   119.79554725   359.06645779
 H     16  15  14     1.088491392956   119.92186071   179.62817525
 H     17  16  15     1.084853145837   119.89833822   179.88287662
 H     19  18  17     0.968895783071   107.37787671     2.60291122
 H     20  18  17     1.084448562155   119.09670154   180.25160180

---------------------------
INTERNAL COORDINATES (A.U.)
---------------------------
 C      0   0   0     0.000000000000     0.00000000     0.00000000
 C      1   0   0     2.906100864489     0.00000000     0.00000000
 O      2   1   0     2.714014028275   107.46564453     0.00000000
 C      3   2   1     2.577265575668   118.37635050   174.72781377
 O      4   3   2     2.306287314946   121.78401094    19.25063632
 C      4   3   2     2.838317636912   114.24079352   213.65169534
 C      6   4   3     2.568233842064   124.91965553   337.86649547
 C      7   6   4     2.863241365162   128.03175700   359.20303521
 N      7   6   4     2.643543190572   119.73792683   182.90190117
 C      9   7   6     2.588761202330   124.90618659     7.90384624
 S     10   9   7     3.125547110642   121.81517597   174.50959331
 N     10   9   7     2.592140479198   116.43898433   354.55057183
 C     12  10   9     2.787200015529   124.83243819   352.23853535
 C     13  12  10     2.884887773606   110.44500459   252.16657436
 C     14  13  12     2.659173042278   120.41888728   235.09236305
 C     15  14  13     2.655010335925   120.67349748   180.14893136
 C     16  15  14     2.655450785817   119.65978112     0.00000000
 C     17  16  15     2.648358144346   119.86036316     0.17648761
 O     18  17  16     2.564311073935   120.00433349   179.69309739
 C     18  17  16     2.642553500203   120.34731088   359.84711941
 H      1   2   3     2.073126592315   110.65444976   299.84547756
 H      1   2   3     2.072706735352   110.48992434   179.97192433
 H      1   2   3     2.073217996748   110.63408348    60.11386144
 H      2   1   3     2.076168100778   109.83229682   120.04128015
 H      2   1   3     2.075952624581   110.19961196   239.62710316
 H      8   7   6     2.073352264919   110.83716413   311.42238681
 H      8   7   6     2.072495436275   112.71894588   191.53356645
 H      8   7   6     2.073402342771   110.63717391    71.08196729
 H      9   7   6     1.903815128862   119.62893256   182.28614822
 H     12  10   9     1.912204122234   114.89819835   182.03134447
 H     13  12  10     2.078015864031   107.57073261   134.24606172
 H     15  14  13     2.054712900423   119.79554725   359.06645779
 H     16  15  14     2.056950631818   119.92186071   179.62817525
 H     17  16  15     2.050075341156   119.89833822   179.88287662
 H     19  18  17     1.830947682315   107.37787671     2.60291122
 H     20  18  17     2.049310788797   119.09670154   180.25160180

---------------------
BASIS SET INFORMATION
---------------------
There are 5 groups of distinct atoms

 Group   1 Type C   : 18s5p2d1f contracted to 4s3p2d1f pattern {8811/311/11/1}
 Group   2 Type O   : 18s5p2d1f contracted to 4s3p2d1f pattern {8811/311/11/1}
 Group   3 Type N   : 18s5p2d1f contracted to 4s3p2d1f pattern {8811/311/11/1}
 Group   4 Type S   : 41s16p2d1f contracted to 5s4p2d1f pattern {13131311/7711/11/1}
 Group   5 Type H   : 5s2p1d contracted to 3s2p1d pattern {311/11/1}

Atom   0C    basis set group =>   1
Atom   1C    basis set group =>   1
Atom   2O    basis set group =>   2
Atom   3C    basis set group =>   1
Atom   4O    basis set group =>   2
Atom   5C    basis set group =>   1
Atom   6C    basis set group =>   1
Atom   7C    basis set group =>   1
Atom   8N    basis set group =>   3
Atom   9C    basis set group =>   1
Atom  10S    basis set group =>   4
Atom  11N    basis set group =>   3
Atom  12C    basis set group =>   1
Atom  13C    basis set group =>   1
Atom  14C    basis set group =>   1
Atom  15C    basis set group =>   1
Atom  16C    basis set group =>   1
Atom  17C    basis set group =>   1
Atom  18O    basis set group =>   2
Atom  19C    basis set group =>   1
Atom  20H    basis set group =>   5
Atom  21H    basis set group =>   5
Atom  22H    basis set group =>   5
Atom  23H    basis set group =>   5
Atom  24H    basis set group =>   5
Atom  25H    basis set group =>   5
Atom  26H    basis set group =>   5
Atom  27H    basis set group =>   5
Atom  28H    basis set group =>   5
Atom  29H    basis set group =>   5
Atom  30H    basis set group =>   5
Atom  31H    basis set group =>   5
Atom  32H    basis set group =>   5
Atom  33H    basis set group =>   5
Atom  34H    basis set group =>   5
Atom  35H    basis set group =>   5
---------------------------------
AUXILIARY/C BASIS SET INFORMATION
---------------------------------
There are 5 groups of distinct atoms

 Group   1 Type C   : 8s6p5d3f1g contracted to 8s6p5d3f1g pattern {11111111/111111/11111/111/1}
 Group   2 Type O   : 8s6p5d3f1g contracted to 8s6p5d3f1g pattern {11111111/111111/11111/111/1}
 Group   3 Type N   : 8s6p5d3f1g contracted to 8s6p5d3f1g pattern {11111111/111111/11111/111/1}
 Group   4 Type S   : 10s8p7d5f2g contracted to 10s8p7d5f2g pattern {1111111111/11111111/1111111/11111/11}
 Group   5 Type H   : 4s3p2d1f contracted to 4s3p2d1f pattern {1111/111/11/1}

Atom   0C    basis set group =>   1
Atom   1C    basis set group =>   1
Atom   2O    basis set group =>   2
Atom   3C    basis set group =>   1
Atom   4O    basis set group =>   2
Atom   5C    basis set group =>   1
Atom   6C    basis set group =>   1
Atom   7C    basis set group =>   1
Atom   8N    basis set group =>   3
Atom   9C    basis set group =>   1
Atom  10S    basis set group =>   4
Atom  11N    basis set group =>   3
Atom  12C    basis set group =>   1
Atom  13C    basis set group =>   1
Atom  14C    basis set group =>   1
Atom  15C    basis set group =>   1
Atom  16C    basis set group =>   1
Atom  17C    basis set group =>   1
Atom  18O    basis set group =>   2
Atom  19C    basis set group =>   1
Atom  20H    basis set group =>   5
Atom  21H    basis set group =>   5
Atom  22H    basis set group =>   5
Atom  23H    basis set group =>   5
Atom  24H    basis set group =>   5
Atom  25H    basis set group =>   5
Atom  26H    basis set group =>   5
Atom  27H    basis set group =>   5
Atom  28H    basis set group =>   5
Atom  29H    basis set group =>   5
Atom  30H    basis set group =>   5
Atom  31H    basis set group =>   5
Atom  32H    basis set group =>   5
Atom  33H    basis set group =>   5
Atom  34H    basis set group =>   5
Atom  35H    basis set group =>   5
------------------------------------------------------------------------------
                           ORCA GTO INTEGRAL CALCULATION
------------------------------------------------------------------------------
------------------------------------------------------------------------------
                   ___                                                        
                  /   \      - P O W E R E D   B Y -                         
                 /     \                                                     
                 |  |  |   _    _      __       _____    __    __             
                 |  |  |  | |  | |    /  \     |  _  \  |  |  /  |          
                  \  \/   | |  | |   /    \    | | | |  |  | /  /          
                 / \  \   | |__| |  /  /\  \   | |_| |  |  |/  /          
                |  |  |   |  __  | /  /__\  \  |    /   |      \           
                |  |  |   | |  | | |   __   |  |    \   |  |\   \          
                \     /   | |  | | |  |  |  |  | |\  \  |  | \   \       
                 \___/    |_|  |_| |__|  |__|  |_| \__\ |__|  \__/        
                                                                              
                      - O R C A' S   B I G   F R I E N D -                    
                                      &                                       
                       - I N T E G R A L  F E E D E R -                       
                                                                              
 v1 FN, 2020, v2 2021                                                         
------------------------------------------------------------------------------


Reading SHARK input file CONFS/Conf934.orca.SHARKINP.tmp ... ok
----------------------
SHARK INTEGRAL PACKAGE
----------------------

Number of atoms                             ...     36
Number of basis functions                   ...    828
Number of shells                            ...    298
Maximum angular momentum                    ...      3
Integral batch strategy                     ... SHARK/LIBINT Hybrid
RI-J (if used) integral strategy            ... SPLIT-RIJ (Revised 2003 algorithm where possible)
Printlevel                                  ...      1
Contraction scheme used                     ... SEGMENTED contraction
Coulomb Range Separation                    ... NOT USED
Exchange Range Separation                   ... NOT USED
Finite Nucleus Model                        ... NOT USED
Auxiliary Coulomb fitting basis             ... NOT available
Auxiliary J/K fitting basis                 ... NOT available
Auxiliary Correlation fitting basis         ... AVAILABLE
   # of basis functions in Aux-C            ...   2141
   # of shells in Aux-C                     ...    629
   Maximum angular momentum in Aux-C        ...      4
Auxiliary 'external' fitting basis          ... NOT available
Integral threshold                          ...     2.500000e-11
Primitive cut-off                           ...     2.500000e-12
Primitive pair pre-selection threshold      ...     2.500000e-12

Calculating pre-screening integrals         ... done (  0.6 sec) Dimension = 298
Organizing shell pair data                  ... done (  1.3 sec)
Shell pair information
Total number of shell pairs                 ...     44551
Shell pairs after pre-screening             ...     32400
Total number of primitive shell pairs       ...    234348
Primitive shell pairs kept                  ...     93545
          la=0 lb=0:   6493 shell pairs
          la=1 lb=0:   9036 shell pairs
          la=1 lb=1:   3191 shell pairs
          la=2 lb=0:   5171 shell pairs
          la=2 lb=1:   3540 shell pairs
          la=2 lb=2:    993 shell pairs
          la=3 lb=0:   1860 shell pairs
          la=3 lb=1:   1268 shell pairs
          la=3 lb=2:    705 shell pairs
          la=3 lb=3:    143 shell pairs

Calculating one electron integrals          ... done (  0.4 sec)
Calculating RI/C V-Matrix + Cholesky decomp.... done (  1.0 sec)
Calculating Nuclear repulsion               ... done (  0.2 sec) ENN=   1688.560353147667 Eh

SHARK setup successfully completed in   3.7 seconds

Maximum memory used throughout the entire GTOINT-calculation: 479.3 MB
-------------------------------------------------------------------------------
                                 ORCA SCF
-------------------------------------------------------------------------------

------------
SCF SETTINGS
------------
Hamiltonian:
 Ab initio Hamiltonian  Method          .... Hartree-Fock(GTOs)


General Settings:
 Integral files         IntName         .... CONFS/Conf934.orca
 Hartree-Fock type      HFTyp           .... RHF
 Total Charge           Charge          ....    0
 Multiplicity           Mult            ....    1
 Number of Electrons    NEL             ....  154
 Basis Dimension        Dim             ....  828
 Nuclear Repulsion      ENuc            ....   1688.5603531477 Eh

Convergence Acceleration:
 DIIS                   CNVDIIS         .... on
   Start iteration      DIISMaxIt       ....    12
   Startup error        DIISStart       ....  0.200000
   # of expansion vecs  DIISMaxEq       ....     5
   Bias factor          DIISBfac        ....   1.050
   Max. coefficient     DIISMaxC        ....  10.000
 Trust-Rad. Augm. Hess. CNVTRAH         .... auto
   Auto Start mean grad. ratio tolernc. ....  1.125000
   Auto Start start iteration           ....    20
   Auto Start num. interpolation iter.  ....    10
   Max. Number of Micro iterations      ....    16
   Max. Number of Macro iterations      .... Maxiter - #DIIS iter
   Number of Davidson start vectors     ....     2
   Converg. threshold I  (grad. norm)   ....   1.000e-05
   Converg. threshold II (energy diff.) ....   1.000e-08
   Grad. Scal. Fac. for Micro threshold ....   0.100
   Minimum threshold for Micro iter.    ....   0.010
   NR start threshold (gradient norm)   ....   0.001
   Initial trust radius                 ....   0.400
   Minimum AH scaling param. (alpha)    ....   1.000
   Maximum AH scaling param. (alpha)    .... 1000.000
   Orbital update algorithm             .... Taylor
   White noise on init. David. guess    .... on
   Maximum white noise                  ....   0.010
   Quad. conv. algorithm                .... NR
 SOSCF                  CNVSOSCF        .... on
   Start iteration      SOSCFMaxIt      ....   150
   Startup grad/error   SOSCFStart      ....  0.003300
 Level Shifting         CNVShift        .... on
   Level shift para.    LevelShift      ....    0.2500
   Turn off err/grad.   ShiftErr        ....    0.0010
 Zerner damping         CNVZerner       .... off
 Static damping         CNVDamp         .... on
   Fraction old density DampFac         ....    0.7000
   Max. Damping (<1)    DampMax         ....    0.9800
   Min. Damping (>=0)   DampMin         ....    0.0000
   Turn off err/grad.   DampErr         ....    0.1000
 Fernandez-Rico         CNVRico         .... off

SCF Procedure:
 Maximum # iterations   MaxIter         ....   125
 SCF integral mode      SCFMode         .... Direct
   Integral package                     .... SHARK and LIBINT hybrid scheme
 Reset frequency        DirectResetFreq ....    20
 Integral Threshold     Thresh          ....  2.500e-11 Eh
 Primitive CutOff       TCut            ....  2.500e-12 Eh

Convergence Tolerance:
 Convergence Check Mode ConvCheckMode   .... Total+1el-Energy
 Convergence forced     ConvForced      .... 1
 Energy Change          TolE            ....  1.000e-08 Eh
 1-El. energy change                    ....  1.000e-05 Eh
 Orbital Gradient       TolG            ....  1.000e-05
 Orbital Rotation angle TolX            ....  1.000e-05
 DIIS Error             TolErr          ....  5.000e-07


Diagonalization of the overlap matrix:
Smallest eigenvalue                        ... 3.488e-05
Time for diagonalization                   ...    0.143 sec
Threshold for overlap eigenvalues          ... 1.000e-08
Number of eigenvalues below threshold      ... 0
Time for construction of square roots      ...    0.070 sec
Total time needed                          ...    0.215 sec

Time for model grid setup =    1.462 sec

------------------------------
INITIAL GUESS: MODEL POTENTIAL
------------------------------
Loading Hartree-Fock densities                     ... done
Calculating cut-offs                               ... done
Initializing the effective Hamiltonian             ... done
Setting up the integral package (SHARK)            ... done
Starting the Coulomb interaction                   ... done (   4.5 sec)
Reading the grid                                   ... done
Mapping shells                                     ... done
Starting the XC term evaluation                    ... done (   1.3 sec)
Transforming the Hamiltonian                       ... done (   0.1 sec)
Diagonalizing the Hamiltonian                      ... done (   0.1 sec)
Back transforming the eigenvectors                 ... done (   0.0 sec)
Now organizing SCF variables                       ... done
                      ------------------
                      INITIAL GUESS DONE (   7.7 sec)
                      ------------------
--------------
SCF ITERATIONS
--------------
ITER       Energy         Delta-E        Max-DP      RMS-DP      [F,P]     Damp
               ***  Starting incremental Fock matrix formation  ***
  0  -1270.0161469063   0.000000000000 0.04931893  0.00043669  0.3120425 0.7000
  1  -1270.2845561886  -0.268409282276 0.03608342  0.00035217  0.1826821 0.7000
                               ***Turning on DIIS***
  2  -1270.4518175537  -0.167261365121 0.02583975  0.00023548  0.1097637 0.7000
  3  -1272.6000214716  -2.148203917870 0.06314257  0.00050795  0.0829642 0.0000
  4  -1270.7605546912   1.839466780430 0.00990822  0.00009844  0.0068780 0.0000
  5  -1270.8230645553  -0.062509864150 0.00423936  0.00005260  0.0038551 0.0000
                      *** Initiating the SOSCF procedure ***
                           *** Shutting down DIIS ***
                      *** Re-Reading the Fockian *** 
                      *** Removing any level shift *** 
ITER      Energy       Delta-E        Grad      Rot      Max-DP    RMS-DP
  6  -1270.80080906   0.0222554946  0.001615  0.001615  0.002170  0.000026
               *** Restarting incremental Fock matrix formation ***
  7  -1270.81512887  -0.0143198138  0.000828  0.001846  0.001262  0.000016
  8  -1270.81517542  -0.0000465499  0.000425  0.002174  0.001421  0.000017
  9  -1270.81519288  -0.0000174560  0.000163  0.000334  0.000358  0.000004
 10  -1270.81519505  -0.0000021651  0.000045  0.000122  0.000113  0.000001
 11  -1270.81519525  -0.0000002069  0.000021  0.000110  0.000066  0.000001
 12  -1270.81519531  -0.0000000581  0.000007  0.000028  0.000028  0.000000
 13  -1270.81519531  -0.0000000004  0.000003  0.000008  0.000005  0.000000
                  ***Gradient check signals convergence***
              ***Rediagonalizing the Fockian in SOSCF/NRSCF***

               *****************************************************
               *                     SUCCESS                       *
               *           SCF CONVERGED AFTER  14 CYCLES          *
               *****************************************************


----------------
TOTAL SCF ENERGY
----------------

Total Energy       :        -1270.81519530 Eh          -34580.63951 eV

Components:
Nuclear Repulsion  :         1688.56035315 Eh           45948.06316 eV
Electronic Energy  :        -2959.37554845 Eh          -80528.70267 eV
One Electron Energy:        -5098.51374125 Eh         -138737.61218 eV
Two Electron Energy:         2139.13819280 Eh           58208.90951 eV

Virial components:
Potential Energy   :        -2539.77246287 Eh          -69110.72224 eV
Kinetic Energy     :         1268.95726757 Eh           34530.08273 eV
Virial Ratio       :            2.00146414


---------------
SCF CONVERGENCE
---------------

  Last Energy change         ...    9.0567e-09  Tolerance :   1.0000e-08
  Last MAX-Density change    ...    1.9202e-06  Tolerance :   1.0000e-07
  Last RMS-Density change    ...    2.9587e-08  Tolerance :   5.0000e-09
  Last Orbital Gradient      ...    1.2875e-06  Tolerance :   1.0000e-05
  Last Orbital Rotation      ...    3.1676e-06  Tolerance :   1.0000e-05

             **** THE GBW FILE WAS UPDATED (CONFS/Conf934.orca.gbw) ****
             **** DENSITY CONFS/Conf934.orca.scfp WAS UPDATED ****
             **** ENERGY FILE WAS UPDATED (CONFS/Conf934.orca.en.tmp) ****
             **** THE GBW FILE WAS UPDATED (CONFS/Conf934.orca.gbw) ****
             **** DENSITY CONFS/Conf934.orca.scfp WAS UPDATED ****
----------------
ORBITAL ENERGIES
----------------

  NO   OCC          E(Eh)            E(eV) 
   0   2.0000     -91.888085     -2500.4019 
   1   2.0000     -20.601272      -560.5891 
   2   2.0000     -20.591918      -560.3346 
   3   2.0000     -20.547123      -559.1157 
   4   2.0000     -15.628394      -425.2702 
   5   2.0000     -15.606780      -424.6821 
   6   2.0000     -11.394799      -310.0682 
   7   2.0000     -11.383043      -309.7484 
   8   2.0000     -11.335935      -308.4665 
   9   2.0000     -11.307718      -307.6986 
  10   2.0000     -11.305829      -307.6473 
  11   2.0000     -11.299263      -307.4686 
  12   2.0000     -11.260455      -306.4126 
  13   2.0000     -11.259135      -306.3766 
  14   2.0000     -11.253612      -306.2263 
  15   2.0000     -11.247810      -306.0685 
  16   2.0000     -11.237486      -305.7876 
  17   2.0000     -11.235225      -305.7260 
  18   2.0000     -11.233608      -305.6820 
  19   2.0000     -11.230564      -305.5992 
  20   2.0000      -8.893150      -241.9949 
  21   2.0000      -6.574728      -178.9074 
  22   2.0000      -6.572721      -178.8528 
  23   2.0000      -6.572135      -178.8369 
  24   2.0000      -1.455523       -39.6068 
  25   2.0000      -1.411655       -38.4131 
  26   2.0000      -1.357264       -36.9330 
  27   2.0000      -1.339315       -36.4446 
  28   2.0000      -1.236975       -33.6598 
  29   2.0000      -1.152291       -31.3554 
  30   2.0000      -1.119700       -30.4686 
  31   2.0000      -1.044723       -28.4284 
  32   2.0000      -1.037073       -28.2202 
  33   2.0000      -1.009660       -27.4743 
  34   2.0000      -0.997773       -27.1508 
  35   2.0000      -0.983441       -26.7608 
  36   2.0000      -0.921160       -25.0660 
  37   2.0000      -0.887835       -24.1592 
  38   2.0000      -0.846982       -23.0475 
  39   2.0000      -0.835099       -22.7242 
  40   2.0000      -0.828007       -22.5312 
  41   2.0000      -0.818676       -22.2773 
  42   2.0000      -0.761490       -20.7212 
  43   2.0000      -0.735879       -20.0243 
  44   2.0000      -0.725012       -19.7286 
  45   2.0000      -0.690691       -18.7946 
  46   2.0000      -0.683094       -18.5879 
  47   2.0000      -0.682559       -18.5734 
  48   2.0000      -0.676252       -18.4018 
  49   2.0000      -0.658314       -17.9136 
  50   2.0000      -0.650468       -17.7001 
  51   2.0000      -0.643471       -17.5097 
  52   2.0000      -0.634913       -17.2769 
  53   2.0000      -0.601368       -16.3641 
  54   2.0000      -0.600759       -16.3475 
  55   2.0000      -0.599294       -16.3076 
  56   2.0000      -0.595272       -16.1982 
  57   2.0000      -0.578305       -15.7365 
  58   2.0000      -0.573375       -15.6023 
  59   2.0000      -0.564171       -15.3519 
  60   2.0000      -0.561840       -15.2884 
  61   2.0000      -0.552165       -15.0252 
  62   2.0000      -0.541705       -14.7405 
  63   2.0000      -0.519547       -14.1376 
  64   2.0000      -0.516975       -14.0676 
  65   2.0000      -0.510830       -13.9004 
  66   2.0000      -0.506218       -13.7749 
  67   2.0000      -0.495746       -13.4899 
  68   2.0000      -0.481057       -13.0902 
  69   2.0000      -0.462140       -12.5755 
  70   2.0000      -0.461968       -12.5708 
  71   2.0000      -0.454708       -12.3732 
  72   2.0000      -0.354126        -9.6363 
  73   2.0000      -0.344152        -9.3649 
  74   2.0000      -0.327223        -8.9042 
  75   2.0000      -0.315655        -8.5894 
  76   2.0000      -0.313976        -8.5437 
  77   0.0000       0.075456         2.0533 
  78   0.0000       0.112306         3.0560 
  79   0.0000       0.120258         3.2724 
  80   0.0000       0.135637         3.6909 
  81   0.0000       0.138608         3.7717 
  82   0.0000       0.145996         3.9728 
  83   0.0000       0.152818         4.1584 
  84   0.0000       0.162021         4.4088 
  85   0.0000       0.164028         4.4634 
  86   0.0000       0.170365         4.6359 
  87   0.0000       0.179176         4.8756 
  88   0.0000       0.184413         5.0181 
  89   0.0000       0.193570         5.2673 
  90   0.0000       0.198965         5.4141 
  91   0.0000       0.209769         5.7081 
  92   0.0000       0.210718         5.7339 
  93   0.0000       0.216019         5.8782 
  94   0.0000       0.224204         6.1009 
  95   0.0000       0.236697         6.4409 
  96   0.0000       0.241817         6.5802 
  97   0.0000       0.247144         6.7251 
  98   0.0000       0.263885         7.1807 
  99   0.0000       0.277664         7.5556 
 100   0.0000       0.296320         8.0633 
 101   0.0000       0.308926         8.4063 
 102   0.0000       0.314456         8.5568 
 103   0.0000       0.322301         8.7703 
 104   0.0000       0.327499         8.9117 
 105   0.0000       0.331701         9.0260 
 106   0.0000       0.340752         9.2723 
 107   0.0000       0.352597         9.5947 
 108   0.0000       0.356014         9.6876 
 109   0.0000       0.362954         9.8765 
 110   0.0000       0.374946        10.2028 
 111   0.0000       0.377579        10.2745 
 112   0.0000       0.382229        10.4010 
 113   0.0000       0.392325        10.6757 
 114   0.0000       0.398299        10.8383 
 115   0.0000       0.412300        11.2193 
 116   0.0000       0.419382        11.4120 
 117   0.0000       0.430864        11.7244 
 118   0.0000       0.434591        11.8258 
 119   0.0000       0.437596        11.9076 
 120   0.0000       0.440535        11.9876 
 121   0.0000       0.451505        12.2861 
 122   0.0000       0.453129        12.3303 
 123   0.0000       0.457492        12.4490 
 124   0.0000       0.461779        12.5656 
 125   0.0000       0.465846        12.6763 
 126   0.0000       0.475097        12.9280 
 127   0.0000       0.489836        13.3291 
 128   0.0000       0.496163        13.5013 
 129   0.0000       0.497780        13.5453 
 130   0.0000       0.502258        13.6671 
 131   0.0000       0.504770        13.7355 
 132   0.0000       0.513103        13.9622 
 133   0.0000       0.518232        14.1018 
 134   0.0000       0.522434        14.2161 
 135   0.0000       0.528145        14.3716 
 136   0.0000       0.533380        14.5140 
 137   0.0000       0.539383        14.6774 
 138   0.0000       0.543934        14.8012 
 139   0.0000       0.545031        14.8311 
 140   0.0000       0.551813        15.0156 
 141   0.0000       0.557447        15.1689 
 142   0.0000       0.563059        15.3216 
 143   0.0000       0.569275        15.4908 
 144   0.0000       0.572450        15.5772 
 145   0.0000       0.578599        15.7445 
 146   0.0000       0.583459        15.8767 
 147   0.0000       0.588156        16.0046 
 148   0.0000       0.595043        16.1920 
 149   0.0000       0.599806        16.3215 
 150   0.0000       0.603629        16.4256 
 151   0.0000       0.607470        16.5301 
 152   0.0000       0.610913        16.6238 
 153   0.0000       0.613856        16.7039 
 154   0.0000       0.620824        16.8935 
 155   0.0000       0.626795        17.0560 
 156   0.0000       0.629072        17.1179 
 157   0.0000       0.633251        17.2316 
 158   0.0000       0.636031        17.3073 
 159   0.0000       0.641691        17.4613 
 160   0.0000       0.646180        17.5835 
 161   0.0000       0.655356        17.8331 
 162   0.0000       0.655382        17.8338 
 163   0.0000       0.657464        17.8905 
 164   0.0000       0.663706        18.0604 
 165   0.0000       0.665414        18.1068 
 166   0.0000       0.673186        18.3183 
 167   0.0000       0.680836        18.5265 
 168   0.0000       0.684245        18.6192 
 169   0.0000       0.691950        18.8289 
 170   0.0000       0.697600        18.9827 
 171   0.0000       0.700233        19.0543 
 172   0.0000       0.706433        19.2230 
 173   0.0000       0.714388        19.4395 
 174   0.0000       0.722634        19.6639 
 175   0.0000       0.727510        19.7966 
 176   0.0000       0.736082        20.0298 
 177   0.0000       0.740507        20.1502 
 178   0.0000       0.749171        20.3860 
 179   0.0000       0.749682        20.3999 
 180   0.0000       0.755446        20.5567 
 181   0.0000       0.760499        20.6942 
 182   0.0000       0.783023        21.3071 
 183   0.0000       0.786911        21.4129 
 184   0.0000       0.789682        21.4883 
 185   0.0000       0.804136        21.8816 
 186   0.0000       0.813172        22.1275 
 187   0.0000       0.823439        22.4069 
 188   0.0000       0.827110        22.5068 
 189   0.0000       0.830976        22.6120 
 190   0.0000       0.838917        22.8281 
 191   0.0000       0.849744        23.1227 
 192   0.0000       0.853739        23.2314 
 193   0.0000       0.859943        23.4002 
 194   0.0000       0.872883        23.7524 
 195   0.0000       0.878801        23.9134 
 196   0.0000       0.881499        23.9868 
 197   0.0000       0.890038        24.2192 
 198   0.0000       0.896226        24.3876 
 199   0.0000       0.908428        24.7196 
 200   0.0000       0.913414        24.8553 
 201   0.0000       0.919874        25.0310 
 202   0.0000       0.925426        25.1821 
 203   0.0000       0.935269        25.4500 
 204   0.0000       0.939133        25.5551 
 205   0.0000       0.941775        25.6270 
 206   0.0000       0.948008        25.7966 
 207   0.0000       0.961328        26.1591 
 208   0.0000       0.969430        26.3795 
 209   0.0000       0.977432        26.5973 
 210   0.0000       0.981558        26.7095 
 211   0.0000       0.989691        26.9309 
 212   0.0000       0.996906        27.1272 
 213   0.0000       1.003543        27.3078 
 214   0.0000       1.008087        27.4314 
 215   0.0000       1.012967        27.5642 
 216   0.0000       1.020435        27.7674 
 217   0.0000       1.031824        28.0774 
 218   0.0000       1.036042        28.1921 
 219   0.0000       1.045652        28.4536 
 220   0.0000       1.047158        28.4946 
 221   0.0000       1.054791        28.7023 
 222   0.0000       1.060209        28.8497 
 223   0.0000       1.073154        29.2020 
 224   0.0000       1.081521        29.4297 
 225   0.0000       1.086634        29.5688 
 226   0.0000       1.099382        29.9157 
 227   0.0000       1.103096        30.0168 
 228   0.0000       1.115628        30.3578 
 229   0.0000       1.123090        30.5608 
 230   0.0000       1.128937        30.7199 
 231   0.0000       1.136537        30.9267 
 232   0.0000       1.140055        31.0225 
 233   0.0000       1.145207        31.1627 
 234   0.0000       1.152421        31.3590 
 235   0.0000       1.159668        31.5562 
 236   0.0000       1.169323        31.8189 
 237   0.0000       1.177219        32.0337 
 238   0.0000       1.179593        32.0984 
 239   0.0000       1.182553        32.1789 
 240   0.0000       1.193945        32.4889 
 241   0.0000       1.202720        32.7277 
 242   0.0000       1.203701        32.7544 
 243   0.0000       1.213138        33.0112 
 244   0.0000       1.216539        33.1037 
 245   0.0000       1.223610        33.2961 
 246   0.0000       1.228126        33.4190 
 247   0.0000       1.236408        33.6444 
 248   0.0000       1.239976        33.7415 
 249   0.0000       1.247860        33.9560 
 250   0.0000       1.258870        34.2556 
 251   0.0000       1.263379        34.3783 
 252   0.0000       1.269617        34.5480 
 253   0.0000       1.274946        34.6930 
 254   0.0000       1.281263        34.8649 
 255   0.0000       1.288422        35.0598 
 256   0.0000       1.300715        35.3943 
 257   0.0000       1.306359        35.5478 
 258   0.0000       1.318685        35.8833 
 259   0.0000       1.325606        36.0716 
 260   0.0000       1.327606        36.1260 
 261   0.0000       1.335398        36.3380 
 262   0.0000       1.353708        36.8363 
 263   0.0000       1.356777        36.9198 
 264   0.0000       1.368629        37.2423 
 265   0.0000       1.377925        37.4952 
 266   0.0000       1.391776        37.8722 
 267   0.0000       1.397452        38.0266 
 268   0.0000       1.404888        38.2290 
 269   0.0000       1.406559        38.2744 
 270   0.0000       1.410928        38.3933 
 271   0.0000       1.426157        38.8077 
 272   0.0000       1.428415        38.8692 
 273   0.0000       1.434867        39.0447 
 274   0.0000       1.445070        39.3224 
 275   0.0000       1.456169        39.6244 
 276   0.0000       1.467661        39.9371 
 277   0.0000       1.474329        40.1185 
 278   0.0000       1.485554        40.4240 
 279   0.0000       1.486789        40.4576 
 280   0.0000       1.491430        40.5839 
 281   0.0000       1.493922        40.6517 
 282   0.0000       1.504705        40.9451 
 283   0.0000       1.511286        41.1242 
 284   0.0000       1.513644        41.1883 
 285   0.0000       1.528855        41.6023 
 286   0.0000       1.530505        41.6472 
 287   0.0000       1.538164        41.8556 
 288   0.0000       1.541461        41.9453 
 289   0.0000       1.546917        42.0938 
 290   0.0000       1.552698        42.2511 
 291   0.0000       1.563012        42.5317 
 292   0.0000       1.568082        42.6697 
 293   0.0000       1.579649        42.9844 
 294   0.0000       1.581294        43.0292 
 295   0.0000       1.595684        43.4208 
 296   0.0000       1.601830        43.5880 
 297   0.0000       1.608461        43.7684 
 298   0.0000       1.618111        44.0310 
 299   0.0000       1.625689        44.2372 
 300   0.0000       1.630908        44.3793 
 301   0.0000       1.641681        44.6724 
 302   0.0000       1.648471        44.8572 
 303   0.0000       1.649063        44.8733 
 304   0.0000       1.661726        45.2179 
 305   0.0000       1.665275        45.3144 
 306   0.0000       1.674247        45.5586 
 307   0.0000       1.678349        45.6702 
 308   0.0000       1.684292        45.8319 
 309   0.0000       1.701785        46.3079 
 310   0.0000       1.707475        46.4627 
 311   0.0000       1.717413        46.7332 
 312   0.0000       1.724995        46.9395 
 313   0.0000       1.731496        47.1164 
 314   0.0000       1.737159        47.2705 
 315   0.0000       1.753047        47.7028 
 316   0.0000       1.763967        48.0000 
 317   0.0000       1.775087        48.3026 
 318   0.0000       1.779969        48.4354 
 319   0.0000       1.794446        48.8294 
 320   0.0000       1.798806        48.9480 
 321   0.0000       1.817597        49.4593 
 322   0.0000       1.823552        49.6214 
 323   0.0000       1.843394        50.1613 
 324   0.0000       1.856464        50.5170 
 325   0.0000       1.868059        50.8325 
 326   0.0000       1.882263        51.2190 
 327   0.0000       1.899125        51.6778 
 328   0.0000       1.905830        51.8603 
 329   0.0000       1.911231        52.0072 
 330   0.0000       1.926737        52.4292 
 331   0.0000       1.935415        52.6653 
 332   0.0000       1.941220        52.8233 
 333   0.0000       1.962440        53.4007 
 334   0.0000       1.964680        53.4617 
 335   0.0000       1.976531        53.7841 
 336   0.0000       1.994820        54.2818 
 337   0.0000       2.001290        54.4579 
 338   0.0000       2.015827        54.8534 
 339   0.0000       2.027322        55.1662 
 340   0.0000       2.028533        55.1992 
 341   0.0000       2.037171        55.4342 
 342   0.0000       2.049478        55.7691 
 343   0.0000       2.055247        55.9261 
 344   0.0000       2.078832        56.5679 
 345   0.0000       2.102441        57.2103 
 346   0.0000       2.121176        57.7201 
 347   0.0000       2.128899        57.9303 
 348   0.0000       2.156509        58.6816 
 349   0.0000       2.164158        58.8897 
 350   0.0000       2.191685        59.6388 
 351   0.0000       2.206433        60.0401 
 352   0.0000       2.209093        60.1125 
 353   0.0000       2.225129        60.5488 
 354   0.0000       2.234594        60.8064 
 355   0.0000       2.245804        61.1114 
 356   0.0000       2.279816        62.0369 
 357   0.0000       2.288976        62.2862 
 358   0.0000       2.299275        62.5665 
 359   0.0000       2.308242        62.8105 
 360   0.0000       2.315149        62.9984 
 361   0.0000       2.320519        63.1445 
 362   0.0000       2.342336        63.7382 
 363   0.0000       2.356868        64.1336 
 364   0.0000       2.360236        64.2253 
 365   0.0000       2.382876        64.8414 
 366   0.0000       2.389243        65.0146 
 367   0.0000       2.403341        65.3982 
 368   0.0000       2.410542        65.5942 
 369   0.0000       2.419943        65.8500 
 370   0.0000       2.425987        66.0145 
 371   0.0000       2.445183        66.5368 
 372   0.0000       2.464211        67.0546 
 373   0.0000       2.473741        67.3139 
 374   0.0000       2.479058        67.4586 
 375   0.0000       2.500160        68.0328 
 376   0.0000       2.506211        68.1975 
 377   0.0000       2.512744        68.3752 
 378   0.0000       2.519104        68.5483 
 379   0.0000       2.545547        69.2679 
 380   0.0000       2.564427        69.7816 
 381   0.0000       2.576561        70.1118 
 382   0.0000       2.586835        70.3914 
 383   0.0000       2.595428        70.6252 
 384   0.0000       2.608426        70.9789 
 385   0.0000       2.622824        71.3707 
 386   0.0000       2.629019        71.5393 
 387   0.0000       2.641677        71.8837 
 388   0.0000       2.649637        72.1003 
 389   0.0000       2.660878        72.4062 
 390   0.0000       2.671865        72.7051 
 391   0.0000       2.679914        72.9242 
 392   0.0000       2.690709        73.2179 
 393   0.0000       2.705393        73.6175 
 394   0.0000       2.711505        73.7838 
 395   0.0000       2.724094        74.1264 
 396   0.0000       2.730519        74.3012 
 397   0.0000       2.746911        74.7472 
 398   0.0000       2.751877        74.8824 
 399   0.0000       2.764175        75.2170 
 400   0.0000       2.769320        75.3570 
 401   0.0000       2.772293        75.4379 
 402   0.0000       2.793211        76.0071 
 403   0.0000       2.803749        76.2939 
 404   0.0000       2.805577        76.3436 
 405   0.0000       2.827712        76.9459 
 406   0.0000       2.835053        77.1457 
 407   0.0000       2.838076        77.2280 
 408   0.0000       2.844112        77.3922 
 409   0.0000       2.855104        77.6913 
 410   0.0000       2.863800        77.9279 
 411   0.0000       2.873649        78.1960 
 412   0.0000       2.877784        78.3085 
 413   0.0000       2.885461        78.5174 
 414   0.0000       2.911479        79.2254 
 415   0.0000       2.919328        79.4389 
 416   0.0000       2.930415        79.7406 
 417   0.0000       2.938738        79.9671 
 418   0.0000       2.950732        80.2935 
 419   0.0000       2.953578        80.3709 
 420   0.0000       2.964140        80.6583 
 421   0.0000       2.975533        80.9684 
 422   0.0000       2.989530        81.3493 
 423   0.0000       2.995206        81.5037 
 424   0.0000       3.003423        81.7273 
 425   0.0000       3.012055        81.9622 
 426   0.0000       3.024517        82.3013 
 427   0.0000       3.031496        82.4912 
 428   0.0000       3.034449        82.5716 
 429   0.0000       3.036075        82.6158 
 430   0.0000       3.044242        82.8380 
 431   0.0000       3.053370        83.0864 
 432   0.0000       3.067934        83.4827 
 433   0.0000       3.074029        83.6486 
 434   0.0000       3.079397        83.7946 
 435   0.0000       3.083507        83.9065 
 436   0.0000       3.089823        84.0784 
 437   0.0000       3.093946        84.1906 
 438   0.0000       3.095229        84.2255 
 439   0.0000       3.101159        84.3868 
 440   0.0000       3.107384        84.5562 
 441   0.0000       3.115629        84.7806 
 442   0.0000       3.122982        84.9806 
 443   0.0000       3.134088        85.2829 
 444   0.0000       3.148711        85.6808 
 445   0.0000       3.151674        85.7614 
 446   0.0000       3.157956        85.9324 
 447   0.0000       3.168493        86.2191 
 448   0.0000       3.180012        86.5325 
 449   0.0000       3.184126        86.6445 
 450   0.0000       3.191832        86.8542 
 451   0.0000       3.196925        86.9927 
 452   0.0000       3.206076        87.2418 
 453   0.0000       3.211928        87.4010 
 454   0.0000       3.223869        87.7259 
 455   0.0000       3.226950        87.8098 
 456   0.0000       3.234416        88.0129 
 457   0.0000       3.245275        88.3084 
 458   0.0000       3.256031        88.6011 
 459   0.0000       3.258420        88.6661 
 460   0.0000       3.266363        88.8823 
 461   0.0000       3.268106        88.9297 
 462   0.0000       3.275453        89.1296 
 463   0.0000       3.288161        89.4754 
 464   0.0000       3.296700        89.7078 
 465   0.0000       3.308602        90.0316 
 466   0.0000       3.315484        90.2189 
 467   0.0000       3.316717        90.2524 
 468   0.0000       3.324954        90.4766 
 469   0.0000       3.328614        90.5762 
 470   0.0000       3.334061        90.7244 
 471   0.0000       3.339130        90.8623 
 472   0.0000       3.344160        90.9992 
 473   0.0000       3.351451        91.1976 
 474   0.0000       3.355645        91.3117 
 475   0.0000       3.363119        91.5151 
 476   0.0000       3.366472        91.6064 
 477   0.0000       3.375797        91.8601 
 478   0.0000       3.388280        92.1998 
 479   0.0000       3.388845        92.2152 
 480   0.0000       3.395494        92.3961 
 481   0.0000       3.399922        92.5166 
 482   0.0000       3.405424        92.6663 
 483   0.0000       3.408861        92.7598 
 484   0.0000       3.409729        92.7835 
 485   0.0000       3.415698        92.9459 
 486   0.0000       3.420887        93.0871 
 487   0.0000       3.424881        93.1957 
 488   0.0000       3.431024        93.3629 
 489   0.0000       3.433702        93.4358 
 490   0.0000       3.440015        93.6076 
 491   0.0000       3.448457        93.8373 
 492   0.0000       3.455276        94.0229 
 493   0.0000       3.456854        94.0658 
 494   0.0000       3.463286        94.2408 
 495   0.0000       3.469117        94.3995 
 496   0.0000       3.471627        94.4678 
 497   0.0000       3.481810        94.7449 
 498   0.0000       3.491675        95.0133 
 499   0.0000       3.502933        95.3197 
 500   0.0000       3.511011        95.5395 
 501   0.0000       3.519248        95.7636 
 502   0.0000       3.527082        95.9768 
 503   0.0000       3.536432        96.2312 
 504   0.0000       3.540230        96.3345 
 505   0.0000       3.549515        96.5872 
 506   0.0000       3.557568        96.8063 
 507   0.0000       3.566695        97.0547 
 508   0.0000       3.573741        97.2464 
 509   0.0000       3.582536        97.4858 
 510   0.0000       3.590701        97.7080 
 511   0.0000       3.606256        98.1312 
 512   0.0000       3.612767        98.3084 
 513   0.0000       3.615802        98.3910 
 514   0.0000       3.619045        98.4792 
 515   0.0000       3.625684        98.6599 
 516   0.0000       3.627033        98.6966 
 517   0.0000       3.634804        98.9080 
 518   0.0000       3.641665        99.0947 
 519   0.0000       3.644141        99.1621 
 520   0.0000       3.648428        99.2788 
 521   0.0000       3.658141        99.5431 
 522   0.0000       3.664028        99.7033 
 523   0.0000       3.669550        99.8535 
 524   0.0000       3.678438       100.0954 
 525   0.0000       3.681658       100.1830 
 526   0.0000       3.685252       100.2808 
 527   0.0000       3.692985       100.4912 
 528   0.0000       3.697434       100.6123 
 529   0.0000       3.704004       100.7911 
 530   0.0000       3.715741       101.1105 
 531   0.0000       3.721003       101.2536 
 532   0.0000       3.729595       101.4874 
 533   0.0000       3.730446       101.5106 
 534   0.0000       3.739831       101.7660 
 535   0.0000       3.744696       101.8983 
 536   0.0000       3.752360       102.1069 
 537   0.0000       3.764348       102.4331 
 538   0.0000       3.766163       102.4825 
 539   0.0000       3.774651       102.7135 
 540   0.0000       3.778019       102.8051 
 541   0.0000       3.783931       102.9660 
 542   0.0000       3.794609       103.2566 
 543   0.0000       3.795740       103.2873 
 544   0.0000       3.806136       103.5702 
 545   0.0000       3.810091       103.6779 
 546   0.0000       3.818098       103.8957 
 547   0.0000       3.822198       104.0073 
 548   0.0000       3.830273       104.2270 
 549   0.0000       3.837556       104.4252 
 550   0.0000       3.845140       104.6316 
 551   0.0000       3.848509       104.7232 
 552   0.0000       3.866511       105.2131 
 553   0.0000       3.872657       105.3804 
 554   0.0000       3.880621       105.5971 
 555   0.0000       3.893237       105.9404 
 556   0.0000       3.899244       106.1038 
 557   0.0000       3.908404       106.3531 
 558   0.0000       3.916593       106.5759 
 559   0.0000       3.928013       106.8867 
 560   0.0000       3.944991       107.3487 
 561   0.0000       3.946678       107.3946 
 562   0.0000       3.950501       107.4986 
 563   0.0000       3.966288       107.9282 
 564   0.0000       3.977081       108.2219 
 565   0.0000       3.980167       108.3059 
 566   0.0000       3.987056       108.4933 
 567   0.0000       3.993007       108.6552 
 568   0.0000       4.001445       108.8849 
 569   0.0000       4.011701       109.1639 
 570   0.0000       4.025827       109.5483 
 571   0.0000       4.031191       109.6943 
 572   0.0000       4.046797       110.1189 
 573   0.0000       4.048646       110.1693 
 574   0.0000       4.057349       110.4061 
 575   0.0000       4.071003       110.7776 
 576   0.0000       4.076753       110.9341 
 577   0.0000       4.086806       111.2077 
 578   0.0000       4.097710       111.5044 
 579   0.0000       4.107977       111.7837 
 580   0.0000       4.115947       112.0006 
 581   0.0000       4.119416       112.0950 
 582   0.0000       4.125314       112.2555 
 583   0.0000       4.133924       112.4898 
 584   0.0000       4.144244       112.7706 
 585   0.0000       4.145076       112.7933 
 586   0.0000       4.150823       112.9496 
 587   0.0000       4.156157       113.0948 
 588   0.0000       4.161411       113.2378 
 589   0.0000       4.170581       113.4873 
 590   0.0000       4.178395       113.6999 
 591   0.0000       4.184297       113.8605 
 592   0.0000       4.193127       114.1008 
 593   0.0000       4.200721       114.3074 
 594   0.0000       4.206243       114.4577 
 595   0.0000       4.220759       114.8527 
 596   0.0000       4.222287       114.8943 
 597   0.0000       4.229767       115.0978 
 598   0.0000       4.235803       115.2621 
 599   0.0000       4.242369       115.4407 
 600   0.0000       4.246315       115.5481 
 601   0.0000       4.255355       115.7941 
 602   0.0000       4.267265       116.1182 
 603   0.0000       4.271738       116.2399 
 604   0.0000       4.277926       116.4083 
 605   0.0000       4.286339       116.6372 
 606   0.0000       4.302285       117.0711 
 607   0.0000       4.305373       117.1552 
 608   0.0000       4.316913       117.4692 
 609   0.0000       4.322468       117.6203 
 610   0.0000       4.333718       117.9265 
 611   0.0000       4.339267       118.0775 
 612   0.0000       4.343952       118.2049 
 613   0.0000       4.347009       118.2881 
 614   0.0000       4.356087       118.5351 
 615   0.0000       4.367619       118.8490 
 616   0.0000       4.372455       118.9805 
 617   0.0000       4.375108       119.0527 
 618   0.0000       4.383910       119.2923 
 619   0.0000       4.387624       119.3933 
 620   0.0000       4.401612       119.7740 
 621   0.0000       4.412745       120.0769 
 622   0.0000       4.423844       120.3789 
 623   0.0000       4.428220       120.4980 
 624   0.0000       4.439544       120.8061 
 625   0.0000       4.443295       120.9082 
 626   0.0000       4.451337       121.1270 
 627   0.0000       4.461021       121.3906 
 628   0.0000       4.468136       121.5842 
 629   0.0000       4.477178       121.8302 
 630   0.0000       4.500737       122.4713 
 631   0.0000       4.506482       122.6276 
 632   0.0000       4.513637       122.8223 
 633   0.0000       4.526000       123.1587 
 634   0.0000       4.533873       123.3730 
 635   0.0000       4.540375       123.5499 
 636   0.0000       4.546143       123.7069 
 637   0.0000       4.556735       123.9951 
 638   0.0000       4.559060       124.0583 
 639   0.0000       4.563481       124.1786 
 640   0.0000       4.566341       124.2565 
 641   0.0000       4.580013       124.6285 
 642   0.0000       4.593895       125.0062 
 643   0.0000       4.608962       125.4162 
 644   0.0000       4.614545       125.5682 
 645   0.0000       4.625994       125.8797 
 646   0.0000       4.627269       125.9144 
 647   0.0000       4.631092       126.0184 
 648   0.0000       4.639189       126.2387 
 649   0.0000       4.644721       126.3893 
 650   0.0000       4.648662       126.4965 
 651   0.0000       4.658809       126.7727 
 652   0.0000       4.672118       127.1348 
 653   0.0000       4.674050       127.1874 
 654   0.0000       4.688692       127.5858 
 655   0.0000       4.696205       127.7902 
 656   0.0000       4.700187       127.8986 
 657   0.0000       4.722658       128.5100 
 658   0.0000       4.729835       128.7053 
 659   0.0000       4.743959       129.0897 
 660   0.0000       4.750380       129.2644 
 661   0.0000       4.757607       129.4611 
 662   0.0000       4.771184       129.8305 
 663   0.0000       4.780884       130.0945 
 664   0.0000       4.807962       130.8313 
 665   0.0000       4.815734       131.0428 
 666   0.0000       4.827162       131.3538 
 667   0.0000       4.849772       131.9690 
 668   0.0000       4.865055       132.3849 
 669   0.0000       4.877901       132.7344 
 670   0.0000       4.903205       133.4230 
 671   0.0000       4.921350       133.9167 
 672   0.0000       4.929550       134.1399 
 673   0.0000       4.942602       134.4950 
 674   0.0000       4.969487       135.2266 
 675   0.0000       4.991475       135.8249 
 676   0.0000       5.009858       136.3252 
 677   0.0000       5.022069       136.6574 
 678   0.0000       5.030436       136.8851 
 679   0.0000       5.054360       137.5361 
 680   0.0000       5.055192       137.5588 
 681   0.0000       5.058380       137.6455 
 682   0.0000       5.072834       138.0388 
 683   0.0000       5.090385       138.5164 
 684   0.0000       5.107992       138.9955 
 685   0.0000       5.109322       139.0317 
 686   0.0000       5.123242       139.4105 
 687   0.0000       5.138276       139.8196 
 688   0.0000       5.146166       140.0343 
 689   0.0000       5.150143       140.1425 
 690   0.0000       5.161049       140.4393 
 691   0.0000       5.175793       140.8405 
 692   0.0000       5.189853       141.2231 
 693   0.0000       5.192000       141.2815 
 694   0.0000       5.200863       141.5227 
 695   0.0000       5.215387       141.9179 
 696   0.0000       5.216531       141.9490 
 697   0.0000       5.226665       142.2248 
 698   0.0000       5.232839       142.3928 
 699   0.0000       5.249690       142.8513 
 700   0.0000       5.258831       143.1001 
 701   0.0000       5.271990       143.4581 
 702   0.0000       5.288745       143.9141 
 703   0.0000       5.314164       144.6058 
 704   0.0000       5.321839       144.8146 
 705   0.0000       5.339417       145.2929 
 706   0.0000       5.342578       145.3789 
 707   0.0000       5.350619       145.5977 
 708   0.0000       5.368658       146.0886 
 709   0.0000       5.385759       146.5539 
 710   0.0000       5.406741       147.1249 
 711   0.0000       5.425678       147.6402 
 712   0.0000       5.431438       147.7970 
 713   0.0000       5.453642       148.4011 
 714   0.0000       5.466813       148.7595 
 715   0.0000       5.488939       149.3616 
 716   0.0000       5.506039       149.8269 
 717   0.0000       5.511887       149.9861 
 718   0.0000       5.515869       150.0944 
 719   0.0000       5.525945       150.3686 
 720   0.0000       5.533345       150.5700 
 721   0.0000       5.546183       150.9193 
 722   0.0000       5.552687       151.0963 
 723   0.0000       5.573319       151.6577 
 724   0.0000       5.586807       152.0248 
 725   0.0000       5.606647       152.5646 
 726   0.0000       5.608774       152.6225 
 727   0.0000       5.627633       153.1357 
 728   0.0000       5.631836       153.2501 
 729   0.0000       5.646376       153.6457 
 730   0.0000       5.653737       153.8460 
 731   0.0000       5.659372       153.9993 
 732   0.0000       5.668790       154.2556 
 733   0.0000       5.675561       154.4399 
 734   0.0000       5.695467       154.9815 
 735   0.0000       5.715098       155.5157 
 736   0.0000       5.724637       155.7753 
 737   0.0000       5.731720       155.9680 
 738   0.0000       5.750374       156.4756 
 739   0.0000       5.764156       156.8507 
 740   0.0000       5.768156       156.9595 
 741   0.0000       5.782365       157.3461 
 742   0.0000       5.795457       157.7024 
 743   0.0000       5.800201       157.8315 
 744   0.0000       5.823955       158.4779 
 745   0.0000       5.838000       158.8601 
 746   0.0000       5.854077       159.2975 
 747   0.0000       5.873473       159.8253 
 748   0.0000       5.886925       160.1914 
 749   0.0000       5.932571       161.4335 
 750   0.0000       5.943489       161.7306 
 751   0.0000       5.977501       162.6561 
 752   0.0000       5.979819       162.7192 
 753   0.0000       5.994774       163.1261 
 754   0.0000       6.012642       163.6123 
 755   0.0000       6.019713       163.8047 
 756   0.0000       6.059155       164.8780 
 757   0.0000       6.065320       165.0457 
 758   0.0000       6.081514       165.4864 
 759   0.0000       6.093112       165.8020 
 760   0.0000       6.102805       166.0658 
 761   0.0000       6.180219       168.1723 
 762   0.0000       6.208091       168.9308 
 763   0.0000       6.220981       169.2815 
 764   0.0000       6.228768       169.4934 
 765   0.0000       6.256593       170.2506 
 766   0.0000       6.268561       170.5762 
 767   0.0000       6.332516       172.3165 
 768   0.0000       6.352890       172.8709 
 769   0.0000       6.353851       172.8971 
 770   0.0000       6.367976       173.2814 
 771   0.0000       6.384202       173.7230 
 772   0.0000       6.406976       174.3427 
 773   0.0000       6.441850       175.2916 
 774   0.0000       6.459469       175.7711 
 775   0.0000       6.463907       175.8919 
 776   0.0000       6.506497       177.0508 
 777   0.0000       6.559637       178.4968 
 778   0.0000       6.563076       178.5904 
 779   0.0000       6.595456       179.4715 
 780   0.0000       6.642213       180.7438 
 781   0.0000       6.675675       181.6544 
 782   0.0000       6.715448       182.7366 
 783   0.0000       6.745904       183.5654 
 784   0.0000       6.779343       184.4753 
 785   0.0000       6.893921       187.5931 
 786   0.0000       6.916923       188.2190 
 787   0.0000       6.926504       188.4797 
 788   0.0000       6.969218       189.6421 
 789   0.0000       7.012596       190.8224 
 790   0.0000       7.056977       192.0301 
 791   0.0000       7.064916       192.2461 
 792   0.0000       7.086494       192.8333 
 793   0.0000       7.137620       194.2245 
 794   0.0000       7.250330       197.2915 
 795   0.0000       7.263190       197.6415 
 796   0.0000       7.266037       197.7189 
 797   0.0000       7.286189       198.2673 
 798   0.0000       7.345095       199.8702 
 799   0.0000       7.369539       200.5354 
 800   0.0000       7.417556       201.8420 
 801   0.0000       7.504331       204.2032 
 802   0.0000       7.584654       206.3889 
 803   0.0000       7.591737       206.5817 
 804   0.0000       7.675337       208.8565 
 805   0.0000       7.821399       212.8311 
 806   0.0000       7.861782       213.9300 
 807   0.0000       7.931095       215.8161 
 808   0.0000       7.939307       216.0395 
 809   0.0000       9.350331       254.4355 
 810   0.0000       9.600987       261.2561 
 811   0.0000      10.846928       295.1599 
 812   0.0000      11.276212       306.8413 
 813   0.0000      11.866781       322.9115 
 814   0.0000      12.585228       342.4615 
 815   0.0000      12.920070       351.5730 
 816   0.0000      13.069372       355.6357 
 817   0.0000      13.135990       357.4485 
 818   0.0000      13.227402       359.9359 
 819   0.0000      13.403434       364.7260 
 820   0.0000      13.477764       366.7486 
 821   0.0000      13.819744       376.0543 
 822   0.0000      13.901853       378.2886 
 823   0.0000      13.953069       379.6823 
 824   0.0000      14.006805       381.1445 
 825   0.0000      14.548003       395.8713 
 826   0.0000      14.731697       400.8699 
 827   0.0000      15.949679       434.0128 

                    ********************************
                    * MULLIKEN POPULATION ANALYSIS *
                    ********************************

-----------------------
MULLIKEN ATOMIC CHARGES
-----------------------
   0 C :   -0.276265
   1 C :    0.050886
   2 O :   -0.340373
   3 C :    0.430498
   4 O :   -0.420459
   5 C :   -0.170593
   6 C :    0.143501
   7 C :   -0.288102
   8 N :   -0.123154
   9 C :    0.201770
  10 S :   -0.439367
  11 N :   -0.197573
  12 C :    0.038245
  13 C :    0.055912
  14 C :   -0.160264
  15 C :   -0.134029
  16 C :   -0.279441
  17 C :    0.311183
  18 O :   -0.359155
  19 C :   -0.273078
  20 H :    0.093492
  21 H :    0.101000
  22 H :    0.096839
  23 H :    0.090259
  24 H :    0.100302
  25 H :    0.126741
  26 H :    0.104270
  27 H :    0.127024
  28 H :    0.196867
  29 H :    0.193681
  30 H :    0.153674
  31 H :    0.153427
  32 H :    0.159234
  33 H :    0.128185
  34 H :    0.240097
  35 H :    0.164764
Sum of atomic charges:   -0.0000000

--------------------------------
MULLIKEN REDUCED ORBITAL CHARGES
--------------------------------
  0 C s       :     3.258583  s :     3.258583
      pz      :     0.996054  p :     2.939712
      px      :     0.930838
      py      :     1.012820
      dz2     :     0.014854  d :     0.073504
      dxz     :     0.015845
      dyz     :     0.016672
      dx2y2   :     0.010271
      dxy     :     0.015862
      f0      :     0.000390  f :     0.004466
      f+1     :     0.000489
      f-1     :     0.000852
      f+2     :     0.000655
      f-2     :     0.000889
      f+3     :     0.000771
      f-3     :     0.000420
  1 C s       :     3.171671  s :     3.171671
      pz      :     0.988525  p :     2.616572
      px      :     0.872990
      py      :     0.755056
      dz2     :     0.022352  d :     0.149160
      dxz     :     0.024368
      dyz     :     0.033734
      dx2y2   :     0.028789
      dxy     :     0.039916
      f0      :     0.001334  f :     0.011712
      f+1     :     0.000891
      f-1     :     0.001561
      f+2     :     0.001163
      f-2     :     0.002116
      f+3     :     0.002119
      f-3     :     0.002528
  2 O s       :     3.710059  s :     3.710059
      pz      :     1.697411  p :     4.593806
      px      :     1.364967
      py      :     1.531427
      dz2     :     0.004125  d :     0.034236
      dxz     :     0.007414
      dyz     :     0.003967
      dx2y2   :     0.012355
      dxy     :     0.006374
      f0      :     0.000311  f :     0.002272
      f+1     :     0.000356
      f-1     :     0.000159
      f+2     :     0.000441
      f-2     :     0.000269
[...]
 15 C s       :     2.705739  s :     2.705739
      pz      :     0.923671  p :     2.796672
      px      :     0.914546
      py      :     0.958455
      dz2     :     0.105892  d :     0.415686
      dxz     :     0.071997
      dyz     :     0.068981
      dx2y2   :     0.089728
      dxy     :     0.079088
      f0      :     0.004110  f :     0.041001
      f+1     :     0.006053
      f-1     :     0.006472
      f+2     :     0.007536
      f-2     :     0.006248
      f+3     :     0.005823
      f-3     :     0.004757
 16 C s       :     2.701844  s :     2.701844
      pz      :     0.945129  p :     2.869225
      px      :     0.955319
      py      :     0.968778
      dz2     :     0.054605  d :     0.391072
      dxz     :     0.057124
      dyz     :     0.095572
      dx2y2   :     0.088551
      dxy     :     0.095219
      f0      :     0.004551  f :     0.040333
      f+1     :     0.005411
      f-1     :     0.004496
      f+2     :     0.005871
      f-2     :     0.005554
      f+3     :     0.007534
      f-3     :     0.006916
 17 C s       :     2.701516  s :     2.701516
      pz      :     0.862357  p :     2.684237
      px      :     0.817506
      py      :     1.004374
      dz2     :     0.140442  d :     0.707877
      dxz     :     0.113483
      dyz     :     0.149519
      dx2y2   :     0.153323
      dxy     :     0.151110
      f0      :     0.011753  f :     0.099220
      f+1     :     0.016098
      f-1     :     0.010436
      f+2     :     0.016671
      f-2     :     0.015484
      f+3     :     0.013914
      f-3     :     0.014862
 18 O s       :     3.177275  s :     3.177275
      pz      :     1.380711  p :     4.349147
      px      :     1.461021
      py      :     1.507414
      dz2     :     0.009896  d :     0.075572
      dxz     :     0.017239
      dyz     :     0.021469
      dx2y2   :     0.014353
      dxy     :     0.012616
      f0      :     0.000651  f :     0.005077
      f+1     :     0.000706
      f-1     :     0.000520
      f+2     :     0.000837
      f-2     :     0.001054
      f+3     :     0.000558
      f-3     :     0.000751
 19 C s       :     2.695314  s :     2.695314
      pz      :     0.945318  p :     2.847278
      px      :     0.942462
      py      :     0.959498
      dz2     :     0.088348  d :     0.388385
      dxz     :     0.069747
      dyz     :     0.070908
      dx2y2   :     0.078807
      dxy     :     0.080575
      f0      :     0.003998  f :     0.040811
      f+1     :     0.006382
      f-1     :     0.006226
      f+2     :     0.007469
      f-2     :     0.006654
      f+3     :     0.005724
      f-3     :     0.004358
 20 H s       :     0.850460  s :     0.850460
      pz      :     0.051036  p :     0.150835
      px      :     0.048396
      py      :     0.051403
      dz2     :     0.006401  d :     0.027495
      dxz     :     0.005022
      dyz     :     0.005309
      dx2y2   :     0.005668
      dxy     :     0.005095
 21 H s       :     0.844934  s :     0.844934
      pz      :     0.040837  p :     0.150483
      px      :     0.048666
      py      :     0.060979
      dz2     :     0.002430  d :     0.027370
      dxz     :     0.002936
      dyz     :     0.006843
      dx2y2   :     0.008049
      dxy     :     0.007112
 22 H s       :     0.848811  s :     0.848811
      pz      :     0.064818  p :     0.150796
      px      :     0.038412
      py      :     0.047565
      dz2     :     0.008699  d :     0.027476
      dxz     :     0.006731
      dyz     :     0.007457
      dx2y2   :     0.002088
      dxy     :     0.002501
 23 H s       :     0.856062  s :     0.856062
      pz      :     0.068338  p :     0.144480
      px      :     0.036041
      py      :     0.040101
      dz2     :     0.007350  d :     0.026939
      dxz     :     0.007143
      dyz     :     0.007988
      dx2y2   :     0.002081
      dxy     :     0.002377
 24 H s       :     0.855808  s :     0.855808
      pz      :     0.053725  p :     0.145415
      px      :     0.046158
      py      :     0.045532
      dz2     :     0.006897  d :     0.026924
      dxz     :     0.004670
      dyz     :     0.005703
      dx2y2   :     0.004144
      dxy     :     0.005511
 25 H s       :     0.829839  s :     0.829839
      pz      :     0.067871  p :     0.150886
      px      :     0.040935
      py      :     0.042081
      dz2     :     0.009255  d :     0.027744
      dxz     :     0.007899
      dyz     :     0.007445
      dx2y2   :     0.002008
      dxy     :     0.001136
 26 H s       :     0.842968  s :     0.842968
      pz      :     0.037971  p :     0.150064
      px      :     0.039252
      py      :     0.072841
      dz2     :     0.002304  d :     0.027710
      dxz     :     0.000310
      dyz     :     0.008980
      dx2y2   :     0.006792
      dxy     :     0.009324
 27 H s       :     0.830751  s :     0.830751
      pz      :     0.039149  p :     0.151826
      px      :     0.066639
      py      :     0.046039
      dz2     :     0.002793  d :     0.027757
      dxz     :     0.007702
      dyz     :     0.001262
      dx2y2   :     0.008667
      dxy     :     0.007333
 28 H s       :     0.742974  s :     0.742974
      pz      :     0.066031  p :     0.254240
      px      :     0.077512
      py      :     0.110696
      dz2     :     0.005566  d :     0.061897
      dxz     :     0.003921
      dyz     :     0.016582
      dx2y2   :     0.017986
      dxy     :     0.017842
 29 H s       :     0.748500  s :     0.748500
      pz      :     0.107734  p :     0.253907
      px      :     0.102858
      py      :     0.043316
      dz2     :     0.019060  d :     0.061324
      dxz     :     0.015296
      dyz     :     0.007470
      dx2y2   :     0.011107
      dxy     :     0.008391
 30 H s       :     0.828120  s :     0.828120
      pz      :     0.044154  p :     0.148347
      px      :     0.062292
      py      :     0.041901
      dz2     :     0.003947  d :     0.028379
      dxz     :     0.007436
      dyz     :     0.003444
      dx2y2   :     0.006698
      dxy     :     0.006854
 31 H s       :     0.841845  s :     0.841845
      pz      :     0.055663  p :     0.155911
      px      :     0.062487
      py      :     0.037761
      dz2     :     0.005890  d :     0.027472
      dxz     :     0.006862
      dyz     :     0.004156
      dx2y2   :     0.005207
      dxy     :     0.005357
 32 H s       :     0.843352  s :     0.843352
      pz      :     0.036312  p :     0.151334
      px      :     0.041754
      py      :     0.073268
      dz2     :     0.002726  d :     0.026479
      dxz     :     0.001101
      dyz     :     0.007121
      dx2y2   :     0.007721
      dxy     :     0.007810
 33 H s       :     0.849393  s :     0.849393
      pz      :     0.061295  p :     0.159230
      px      :     0.046342
      py      :     0.051594
      dz2     :     0.007068  d :     0.027777
      dxz     :     0.005137
      dyz     :     0.006661
      dx2y2   :     0.004579
      dxy     :     0.004332
 34 H s       :     0.707080  s :     0.707080
      pz      :     0.116470  p :     0.348172
      px      :     0.086502
      py      :     0.145200
      dz2     :     0.025440  d :     0.099642
      dxz     :     0.013870
      dyz     :     0.024506
      dx2y2   :     0.017575
      dxy     :     0.018251
 35 H s       :     0.839964  s :     0.839964
      pz      :     0.038540  p :     0.157092
      px      :     0.044144
      py      :     0.074407
      dz2     :     0.002723  d :     0.028036
      dxz     :     0.001284
      dyz     :     0.007631
      dx2y2   :     0.008137
      dxy     :     0.008260


                      *****************************
                      * MAYER POPULATION ANALYSIS *
                      *****************************

  NA   - Mulliken gross atomic population
  ZA   - Total nuclear charge
  QA   - Mulliken gross atomic charge
  VA   - Mayer's total valence
  BVA  - Mayer's bonded valence
  FA   - Mayer's free valence

  ATOM       NA         ZA         QA         VA         BVA        FA
  0 C      6.2763     6.0000    -0.2763     3.8921     3.8921    -0.0000
  1 C      5.9491     6.0000     0.0509     3.8696     3.8696    -0.0000
  2 O      8.3404     8.0000    -0.3404     2.0628     2.0628     0.0000
  3 C      5.5695     6.0000     0.4305     4.2298     4.2298    -0.0000
  4 O      8.4205     8.0000    -0.4205     2.0936     2.0936    -0.0000
  5 C      6.1706     6.0000    -0.1706     3.6192     3.6192    -0.0000
  6 C      5.8565     6.0000     0.1435     3.8348     3.8348    -0.0000
  7 C      6.2881     6.0000    -0.2881     3.8915     3.8915    -0.0000
  8 N      7.1232     7.0000    -0.1232     3.2902     3.2902    -0.0000
  9 C      5.7982     6.0000     0.2018     4.1546     4.1546    -0.0000
 10 S     16.4394    16.0000    -0.4394     1.7564     1.7564    -0.0000
 11 N      7.1976     7.0000    -0.1976     3.2603     3.2603    -0.0000
 12 C      5.9618     6.0000     0.0382     3.9691     3.9691     0.0000
 13 C      5.9441     6.0000     0.0559     3.7386     3.7386    -0.0000
 14 C      6.1603     6.0000    -0.1603     3.8651     3.8651     0.0000
 15 C      6.1340     6.0000    -0.1340     3.8080     3.8080     0.0000
 16 C      6.2794     6.0000    -0.2794     3.7931     3.7931     0.0000
 17 C      5.6888     6.0000     0.3112     3.8759     3.8759    -0.0000
 18 O      8.3592     8.0000    -0.3592     2.1153     2.1153    -0.0000
 19 C      6.2731     6.0000    -0.2731     3.8520     3.8520     0.0000
 20 H      0.9065     1.0000     0.0935     0.9821     0.9821    -0.0000
 21 H      0.8990     1.0000     0.1010     0.9834     0.9834    -0.0000
 22 H      0.9032     1.0000     0.0968     0.9830     0.9830    -0.0000
 23 H      0.9097     1.0000     0.0903     0.9799     0.9799     0.0000
 24 H      0.8997     1.0000     0.1003     0.9794     0.9794     0.0000
 25 H      0.8733     1.0000     0.1267     0.9832     0.9832     0.0000
 26 H      0.8957     1.0000     0.1043     0.9865     0.9865     0.0000
 27 H      0.8730     1.0000     0.1270     0.9779     0.9779    -0.0000
 28 H      0.8031     1.0000     0.1969     1.0234     1.0234     0.0000
 29 H      0.8063     1.0000     0.1937     1.0185     1.0185     0.0000
 30 H      0.8463     1.0000     0.1537     0.9965     0.9965     0.0000
 31 H      0.8466     1.0000     0.1534     0.9898     0.9898     0.0000
 32 H      0.8408     1.0000     0.1592     0.9776     0.9776     0.0000
 33 H      0.8718     1.0000     0.1282     0.9921     0.9921    -0.0000
 34 H      0.7599     1.0000     0.2401     1.0111     1.0111    -0.0000
 35 H      0.8352     1.0000     0.1648     0.9886     0.9886    -0.0000

  Mayer bond orders larger than 0.100000
B(  0-C ,  1-C ) :   0.9700 B(  0-C , 20-H ) :   0.9781 B(  0-C , 21-H ) :   0.9786 
B(  0-C , 22-H ) :   0.9771 B(  1-C ,  2-O ) :   0.9063 B(  1-C , 23-H ) :   0.9740 
B(  1-C , 24-H ) :   0.9796 B(  2-O ,  3-C ) :   1.1517 B(  3-C ,  4-O ) :   1.9967 
B(  3-C ,  5-C ) :   1.0460 B(  5-C ,  6-C ) :   1.6505 B(  5-C , 12-C ) :   0.9666 
B(  6-C ,  7-C ) :   0.9537 B(  6-C ,  8-N ) :   1.1431 B(  7-C , 25-H ) :   0.9666 
B(  7-C , 26-H ) :   0.9917 B(  7-C , 27-H ) :   0.9628 B(  8-N ,  9-C ) :   1.1797 
B(  8-N , 28-H ) :   0.9489 B(  9-C , 10-S ) :   1.6107 B(  9-C , 11-N ) :   1.3037 
B( 11-N , 12-C ) :   0.9915 B( 11-N , 29-H ) :   0.9520 B( 12-C , 13-C ) :   0.9473 
B( 12-C , 30-H ) :   0.9996 B( 13-C , 14-C ) :   1.3761 B( 13-C , 19-C ) :   1.3693 
B( 14-C , 15-C ) :   1.3947 B( 14-C , 31-H ) :   0.9648 B( 15-C , 16-C ) :   1.3626 
B( 15-C , 32-H ) :   0.9714 B( 16-C , 17-C ) :   1.3314 B( 16-C , 33-H ) :   0.9860 
B( 17-C , 18-O ) :   1.1080 B( 17-C , 19-C ) :   1.3789 B( 18-O , 34-H ) :   0.9806 
B( 19-C , 35-H ) :   0.9585 

-------
TIMINGS
-------

Total SCF time: 0 days 1 hours 50 min 38 sec 

Total time                  ....    6638.903 sec
Sum of individual times     ....    6630.786 sec  ( 99.9%)

Fock matrix formation       ....    6611.225 sec  ( 99.6%)
Diagonalization             ....       1.457 sec  (  0.0%)
Density matrix formation    ....       0.236 sec  (  0.0%)
Population analysis         ....       0.541 sec  (  0.0%)
Initial guess               ....       6.227 sec  (  0.1%)
Orbital Transformation      ....       0.000 sec  (  0.0%)
Orbital Orthonormalization  ....       0.000 sec  (  0.0%)
DIIS solution               ....       4.685 sec  (  0.1%)
SOSCF solution              ....       4.953 sec  (  0.1%)

Maximum memory used throughout the entire SCF-calculation: 721.7 MB

------------------------------------------------------------------------------
                                ORCA  MP2 
------------------------------------------------------------------------------

Freezing NCore=48 chemical core electrons

-------------
RI-MP2 ENERGY
-------------
Dimension of the basis                    ...  828
Memory devoted to MP2                     ...  256 MB   
Data format for buffers                   ... DOUBLE
Compression type for matrix containers    ... UNCOMPRESSED
Overall scaling of the MP2 energy         ...   1.000e+00
Calculating two index integrals           ... done (    0.045 sec)
Cholesky decomposition of V**-1           ... done (    0.788 sec)

-----------------
RI-TRANSFORMATION (AUX index driven)
-----------------

Dimension of the orbital-basis         ... 828
Dimension of the aux-basis             ... 2141
Transformation of internal/external MOs...   24-  76 to   77- 827
Number Format for Storage              ... Double (8 Byte)
Integral mode                          ... Direct

First Phase: integral generation and transformation of MO indices
  Aux angular momentum 0               ... done (    5.796 sec)
  Aux angular momentum 1               ... done (   10.225 sec)
  Aux angular momentum 2               ... done (   12.188 sec)
  Aux angular momentum 3               ... done (    9.509 sec)
  Aux angular momentum 4               ... done (    3.312 sec)
Closing buffer VIA ( 0.63 GB; CompressionRatio= 1.00)
  Phase 1 completed in    41.613 sec
Second Phase: sorting and transformation of aux index

IA-Transformation
Memory available                       ... 158 MB 
Max. # MO pairs treated in a batch     ... 11    
# of internal orbitals                 ... 53
# batches for internal orbitals        ... 5
Closing buffer IAV ( 0.63 GB; CompressionRatio= 1.00)
(ia|v) transformation done in    38.296 sec

  Phase 2 completed in    38.306 sec
RI-Integral transformation completed in    79.952 sec
Opening buffers                              ... done

Starting loop over batches of integrals:

Operator 0  - window                       ... ( 24- 76)x( 77-827)
Operator 0  - Memory available             ...   256 MB
Operator 0  - Memory needed per MO         ...  12.3 MB
Operator 0  - Number of orbitals per batch ... 13
Operator 0  - Number of batches            ... 5

OPERATOR  0   PASS   0:  MOs    24 ...   36
  Reading integrals       ... ok
  Internal MO  26
  Internal MO  29
  Internal MO  32
  Internal MO  35
OPERATOR  0   PASS   1:  MOs    37 ...   49
  Reading integrals       ... ok
  Internal MO  38
  Internal MO  41
  Internal MO  44
  Internal MO  47
OPERATOR  0   PASS   2:  MOs    50 ...   62
  Reading integrals       ... ok
  Internal MO  50
  Internal MO  53
  Internal MO  56
  Internal MO  59
  Internal MO  62
OPERATOR  0   PASS   3:  MOs    63 ...   75
  Reading integrals       ... ok
  Internal MO  65
  Internal MO  68
  Internal MO  71
  Internal MO  74
OPERATOR  0   PASS   4:  MOs    76 ...   76
  Reading integrals       ... ok
Time spent in pair loops =    98.515 sec
Deleting buffer (Ka|jb)[aa] ...done

-----------------------------------------------
 RI-MP2 CORRELATION ENERGY:     -3.529955380 Eh
-----------------------------------------------


-------
TIMINGS
-------

Total time                :  179.709 sec
Integral trafo            :   79.972 sec ( 44.5%)
I/O of integrals          :    4.320 sec (  2.4%)
K(i,j) Operators          :   64.442 sec ( 35.9%)
T(i,j) pair energies      :    9.002 sec (  5.0%)
V-calculation             :    0.045 sec (  0.0%)
V**(-1/2)                 :    0.788 sec (  0.4%)
Gamma(ia|P)               :    0.000 sec (  0.0%)
Gamma-Trafo               :    0.000 sec (  0.0%)
D(virtual)                :    0.000 sec (  0.0%)
D(internal)               :    0.000 sec (  0.0%)
W(virtual)                :    0.000 sec (  0.0%)
W(internal)               :    0.000 sec (  0.0%)
L(virtual)                :    0.000 sec (  0.0%)
L(internal)               :    0.000 sec (  0.0%)
G(D)                      :    0.000 sec (  0.0%)
G(Z)                      :    0.000 sec (  0.0%)
Z-Vector Solution         :    0.000 sec (  0.0%)
3-Index Derivative        :    0.000 sec (  0.0%)
2-Index Derivative        :    0.000 sec (  0.0%)
Separable Gradient        :    0.000 sec (  0.0%)


---------------------------------------
MP2 TOTAL ENERGY:    -1274.345150682 Eh
---------------------------------------

Maximum memory used throughout the entire MP2-calculation: 303.2 MB

-------------------------   --------------------
FINAL SINGLE POINT ENERGY     -1274.345150681645
-------------------------   --------------------


                            ***************************************
                            *     ORCA property calculations      *
                            ***************************************


  WARNING: The energy has been calculated at the MP2 level but the densities
           used in the property calculations are still SCF densities
           MP2 response densities have not been calculated 
           use %mp2 Density relaxed end
           or  %mp2 Density unrelaxed end

                                    ---------------------
                                    Active property flags
                                    ---------------------
   (+) Dipole Moment


------------------------------------------------------------------------------
                       ORCA ELECTRIC PROPERTIES CALCULATION
------------------------------------------------------------------------------

Dipole Moment Calculation                       ... on
Quadrupole Moment Calculation                   ... off
Polarizability Calculation                      ... off
GBWName                                         ... CONFS/Conf934.orca.gbw
Electron density file                           ... CONFS/Conf934.orca.scfp
The origin for moment calculation is the CENTER OF MASS  = (32.948422, 31.454675 35.472480)

-------------
DIPOLE MOMENT
-------------
                                X             Y             Z
Electronic contribution:     12.08788       8.70845      10.54372
Nuclear contribution   :    -13.58324     -10.04307     -11.44386
                        -----------------------------------------
Total Dipole Moment    :     -1.49536      -1.33462      -0.90014
                        -----------------------------------------
Magnitude (a.u.)       :      2.19717
Magnitude (Debye)      :      5.58477



--------------------
Rotational spectrum 
--------------------
 
Rotational constants in cm-1:     0.010331     0.009000     0.005970 
Rotational constants in MHz :   309.708336   269.826338   178.974999 

 Dipole components along the rotational axes: 
x,y,z [a.u.] :     2.064921     0.345445     0.666591 
x,y,z [Debye]:     5.248613     0.878051     1.694341 

 

Timings for individual modules:

Sum of individual times         ...     6823.578 sec (= 113.726 min)
GTO integral calculation        ...        3.830 sec (=   0.064 min)   0.1 %
SCF iterations                  ...     6638.974 sec (= 110.650 min)  97.3 %
MP2 module                      ...      180.774 sec (=   3.013 min)   2.6 %
                             ****ORCA TERMINATED NORMALLY****
TOTAL RUN TIME: 0 days 1 hours 53 minutes 45 seconds 370 msec
