
                                        *****************
                                        * O   R   C   A *
                                        *****************

                                            #,                                       
                                            ###                                      
                                            ####                                     
                                            #####                                    
                                            ######                                   
                                           ########,                                 
                                     ,,################,,,,,                         
                               ,,#################################,,                 
                          ,,##########################################,,             
                       ,#########################################, ''#####,          
                    ,#############################################,,   '####,        
                  ,##################################################,,,,####,       
                ,###########''''           ''''###############################       
              ,#####''   ,,,,##########,,,,          '''####'''          '####       
            ,##' ,,,,###########################,,,                        '##       
           ' ,,###''''                  '''############,,,                           
         ,,##''                                '''############,,,,        ,,,,,,###''
      ,#''                                            '''#######################'''  
     '                                                          ''''####''''         
             ,#######,   #######,   ,#######,      ##                                
            ,#'     '#,  ##    ##  ,#'     '#,    #''#        ######   ,####,        
            ##       ##  ##   ,#'  ##            #'  '#       #        #'  '#        
            ##       ##  #######   ##           ,######,      #####,   #    #        
            '#,     ,#'  ##    ##  '#,     ,#' ,#      #,         ##   #,  ,#        
             '#######'   ##     ##  '#######'  #'      '#     #####' # '####'        



                  #######################################################
                  #                        -***-                        #
                  #          Department of theory and spectroscopy      #
                  #    Directorship and core code : Frank Neese         #
                  #        Max Planck Institute fuer Kohlenforschung    #
                  #                Kaiser Wilhelm Platz 1               #
                  #                 D-45470 Muelheim/Ruhr               #
                  #                      Germany                        #
                  #                                                     #
                  #                  All rights reserved                #
                  #                        -***-                        #
                  #######################################################


                         Program Version 5.0.0 -  RELEASE  -
                                (SVN: $Rev: 19529$)
                ($Date: 2021-06-28 11:36:33 +0200 (Mo, 28 Jun 2021) $)


 With contributions from (in alphabetic order):
   Daniel Aravena         : Magnetic Suceptibility
   Michael Atanasov       : Ab Initio Ligand Field Theory (pilot matlab implementation)
   Alexander A. Auer      : GIAO ZORA, VPT2 properties, NMR spectrum
   Ute Becker             : Parallelization
   Giovanni Bistoni       : ED, misc. LED, open-shell LED, HFLD
   Martin Brehm           : Molecular dynamics
   Dmytro Bykov           : SCF Hessian
   Vijay G. Chilkuri      : MRCI spin determinant printing, contributions to CSF-ICE
   Dipayan Datta          : RHF DLPNO-CCSD density
   Achintya Kumar Dutta   : EOM-CC, STEOM-CC
   Dmitry Ganyushin       : Spin-Orbit,Spin-Spin,Magnetic field MRCI
   Miquel Garcia          : C-PCM Hessian, Gaussian charge scheme
   Yang Guo               : DLPNO-NEVPT2, F12-NEVPT2, CIM, IAO-localization
   Andreas Hansen         : Spin unrestricted coupled pair/coupled cluster methods
   Benjamin Helmich-Paris : MC-RPA, TRAH-SCF, COSX integrals
   Lee Huntington         : MR-EOM, pCC
   Robert Izsak           : Overlap fitted RIJCOSX, COSX-SCS-MP3, EOM
   Marcus Kettner         : VPT2
   Christian Kollmar      : KDIIS, OOCD, Brueckner-CCSD(T), CCSD density, CASPT2, CASPT2-K
   Simone Kossmann        : Meta GGA functionals, TD-DFT gradient, OOMP2, MP2 Hessian
   Martin Krupicka        : Initial AUTO-CI
   Lucas Lang             : DCDCAS
   Marvin Lechner         : AUTO-CI (C++ implementation), FIC-MRCC
   Dagmar Lenk            : GEPOL surface, SMD
   Dimitrios Liakos       : Extrapolation schemes; Compound Job, initial MDCI parallelization
   Dimitrios Manganas     : Further ROCIS development; embedding schemes
   Dimitrios Pantazis     : SARC Basis sets
   Anastasios Papadopoulos: AUTO-CI, single reference methods and gradients
   Taras Petrenko         : DFT Hessian,TD-DFT gradient, ASA, ECA, R-Raman, ABS, FL, XAS/XES, NRVS
   Peter Pinski           : DLPNO-MP2, DLPNO-MP2 Gradient
   Christoph Reimann      : Effective Core Potentials
   Marius Retegan         : Local ZFS, SOC
   Christoph Riplinger    : Optimizer, TS searches, QM/MM, DLPNO-CCSD(T), (RO)-DLPNO pert. Triples
   Tobias Risthaus        : Range-separated hybrids, TD-DFT gradient, RPA, STAB
   Michael Roemelt        : Original ROCIS implementation
   Masaaki Saitow         : Open-shell DLPNO-CCSD energy and density
   Barbara Sandhoefer     : DKH picture change effects
   Avijit Sen             : IP-ROCIS
   Kantharuban Sivalingam : CASSCF convergence, NEVPT2, FIC-MRCI
   Bernardo de Souza      : ESD, SOC TD-DFT
   Georgi Stoychev        : AutoAux, RI-MP2 NMR
   Willem Van den Heuvel  : Paramagnetic NMR
   Boris Wezisla          : Elementary symmetry handling
   Frank Wennmohs         : Technical directorship


 We gratefully acknowledge several colleagues who have allowed us to
 interface, adapt or use parts of their codes:
   Stefan Grimme, W. Hujo, H. Kruse, P. Pracht,  : VdW corrections, initial TS optimization,
                  C. Bannwarth, S. Ehlert          DFT functionals, gCP, sTDA/sTD-DF
   Ed Valeev, F. Pavosevic, A. Kumar             : LibInt (2-el integral package), F12 methods
   Garnet Chan, S. Sharma, J. Yang, R. Olivares  : DMRG
   Ulf Ekstrom                                   : XCFun DFT Library
   Mihaly Kallay                                 : mrcc  (arbitrary order and MRCC methods)
   Jiri Pittner, Ondrej Demel                    : Mk-CCSD
   Frank Weinhold                                : gennbo (NPA and NBO analysis)
   Christopher J. Cramer and Donald G. Truhlar   : smd solvation model
   Lars Goerigk                                  : TD-DFT with DH, B97 family of functionals
   V. Asgeirsson, H. Jonsson                     : NEB implementation
   FAccTs GmbH                                   : IRC, NEB, NEB-TS, DLPNO-Multilevel, CI-OPT
                                                   MM, QMMM, 2- and 3-layer-ONIOM, Crystal-QMMM,
                                                   LR-CPCM, SF, NACMEs, symmetry and pop. for TD-DFT,
                                                   nearIR, NL-DFT gradient (VV10), updates on ESD,
                                                   ML-optimized integration grids
   S Lehtola, MJT Oliveira, MAL Marques          : LibXC Library
   Liviu Ungur et al                             : ANISO software


 Your calculation uses the libint2 library for the computation of 2-el integrals
 For citations please refer to: http://libint.valeyev.net

 Your ORCA version has been built with support for libXC version: 5.1.0
 For citations please refer to: https://tddft.org/programs/libxc/

 This ORCA versions uses:
   CBLAS   interface :  Fast vector & matrix operations
   LAPACKE interface :  Fast linear algebra routines
   SCALAPACK package :  Parallel linear algebra routines
   Shared memory     :  Shared parallel matrices
   BLAS/LAPACK       :  OpenBLAS 0.3.15  USE64BITINT DYNAMIC_ARCH NO_AFFINITY Zen SINGLE_THREADED
        Core in use  :  Zen
   Copyright (c) 2011-2014, The OpenBLAS Project


================================================================================

----- Orbital basis set information -----
Your calculation utilizes the basis: cc-pVTZ 
       H, B-Ne : Obtained from the ccRepo (grant-hill.group.shef.ac.uk/ccrepo) Feb. 2017
                 T. H. Dunning, Jr., J. Chem. Phys. 90, 1007 (1989)
            He : Obtained from the ccRepo (grant-hill.group.shef.ac.uk/ccrepo) Feb. 2017
                 D. E. Woon, T. H. Dunning, Jr., J. Chem. Phys. 100, 2975 (1994)
  Li-Be, Na-Mg : Obtained from the ccRepo (grant-hill.group.shef.ac.uk/ccrepo) Feb. 2017
                 B. P. Prascher, D. E. Woon, K. A. Peterson, T. H. Dunning, Jr., A. K. Wilson, Theor. Chem. Acc. 128, 69 (2011)
         Al-Ar : Obtained from the ccRepo (grant-hill.group.shef.ac.uk/ccrepo) Feb. 2017
                 D. E. Woon, T. H. Dunning, Jr., J. Chem. Phys. 98, 1358 (1993)
            Ca : Obtained from the Peterson Research Group Website (tyr0.chem.wsu.edu/~kipeters) Feb. 2017
                 J. Koput, K. A. Peterson, J. Phys. Chem. 106, 9595 (2002)
         Sc-Zn : Obtained from the ccRepo (grant-hill.group.shef.ac.uk/ccrepo) Feb. 2017
                 N. B. Balabanov, K. A. Peterson, J. Chem. Phys. 123, 064107 (2005)
                 N. B. Balabanov, K. A. Peterson, J. Chem. Phys. 125, 074110 (2006)
         Ga-Kr : Obtained from the ccRepo (grant-hill.group.shef.ac.uk/ccrepo) Feb. 2017
                 A. K. Wilson, D. E. Woon, K. A. Peterson, T. H. Dunning, Jr., J. Chem. Phys. 110, 7667 (1999)
             Y : Obtained from the ccRepo (grant-hill.group.shef.ac.uk/ccrepo) Feb. 2017
                 K. A. Peterson, D. Figgen, M. Dolg, H. Stoll, J. Chem. Phys. 126, 124101 (2007)
        Ag, Au : Obtained from the Peterson Research Group Website (tyr0.chem.wsu.edu/~kipeters) Feb. 2017
                 K. A. Peterson, C. Puzzarini, Theor. Chem. Acc. 114, 283 (2005)

----- AuxC basis set information -----
Your calculation utilizes the auxiliary basis: cc-pVTZ/C 
  Obtained from the EMSL Basis Set Exchange (bse.pnl.gov) Feb. 2017
  H-He, B-F, Al-Ar, Ga-Kr : F. Weigend, A. Kohn, C. Hattig, J. Chem. Phys. 116, 3175 (2002)
             Li-Be, Na-Mg : C. Haettig, Phys. Chem. Chem. Phys. 7, 59 (2005)
                       Ne : C. Haettig, Phys. Chem. Chem. Phys. 7, 59 (2005)
                            F. Weigend, A. Kohn, C. Hattig, J. Chem. Phys. 116, 3175 (2002)
                    Sc-Zn : J. G. Hill, J. A. Platts, J. Chem. Phys. 128, 044104 (2008)

================================================================================
                                        WARNINGS
                       Please study these warnings very carefully!
================================================================================


WARNING: No MP2 level density has been requested!
         To caclulate MP2 level properties use
         %mp2 Density relaxed end
         or
         %mp2 Density unrelaxed end

WARNING: Post HF methods need fully converged wavefunctions
  ===> : Setting SCFConvForced true
         You can overwrite this default with %scf ConvForced false 


INFO   : the flag for use of the SHARK integral package has been found!

================================================================================
                                       INPUT FILE
================================================================================
NAME = CONFS/Conf812.orca
|  1> ! ri-mp2 cc-pvtz cc-pvtz/c TightSCF NoKeepInts
|  2> 
|  3> %scf
|  4>   MaxCore 4096
|  5> end
|  6> *xyz  0  1
|  7>     C       14.3195626   15.1456228   16.5272071
|  8>     C       15.7001014   14.6685079   16.0457451
|  9>     O       16.5295584   15.8355216   15.9093036
| 10>     C       17.7548823   15.8404617   16.5078228
| 11>     O       18.4218459   14.8232344   16.6032687
| 12>     C       17.9282664   16.9905179   17.4537743
| 13>     C       17.3641927   18.2128465   17.2803286
| 14>     C       16.5077476   18.6789773   16.1213075
| 15>     N       17.6160901   19.2316479   18.2043978
| 16>     C       18.5111118   19.1471149   19.2384271
| 17>     S       18.8302340   20.4381096   20.2218155
| 18>     N       19.1297274   17.9351354   19.4159808
| 19>     C       18.7982446   16.7002268   18.6802814
| 20>     C       18.1095687   15.6976008   19.6021243
| 21>     C       18.6416559   14.4069667   19.7777454
| 22>     C       18.0022705   13.4764514   20.6139896
| 23>     C       16.8188379   13.8380358   21.2799745
| 24>     C       16.2831832   15.1210676   21.1040751
| 25>     O       15.1355800   15.4704535   21.7382349
| 26>     C       16.9221806   16.0452561   20.2718177
| 27>     H       14.4028898   15.6488964   17.4989326
| 28>     H       13.6373018   14.2943494   16.6403844
| 29>     H       13.8785752   15.8466294   15.8078362
| 30>     H       16.1105801   13.9642630   16.7833043
| 31>     H       15.6140819   14.1507300   15.0816957
| 32>     H       16.9210662   18.3347759   15.1650167
| 33>     H       16.4363203   19.7719194   16.0639782
| 34>     H       15.4891155   18.2810081   16.2091811
| 35>     H       17.1722193   20.1290017   18.0909633
| 36>     H       19.7612970   17.8911427   20.2053701
| 37>     H       19.7404519   16.2569322   18.3268330
| 38>     H       19.5460141   14.1185324   19.2475632
| 39>     H       18.4211614   12.4792756   20.7368391
| 40>     H       16.3204956   13.1214421   21.9242847
| 41>     H       14.8780253   14.7255311   22.3019187
| 42>     H       16.4925623   17.0338140   20.1522770
| 43> *
| 44> 
| 45>                          ****END OF INPUT****
================================================================================

                       ****************************
                       * Single Point Calculation *
                       ****************************

---------------------------------
CARTESIAN COORDINATES (ANGSTROEM)
---------------------------------
  C     14.319563   15.145623   16.527207
  C     15.700101   14.668508   16.045745
  O     16.529558   15.835522   15.909304
  C     17.754882   15.840462   16.507823
  O     18.421846   14.823234   16.603269
  C     17.928266   16.990518   17.453774
  C     17.364193   18.212847   17.280329
  C     16.507748   18.678977   16.121308
  N     17.616090   19.231648   18.204398
  C     18.511112   19.147115   19.238427
  S     18.830234   20.438110   20.221816
  N     19.129727   17.935135   19.415981
  C     18.798245   16.700227   18.680281
  C     18.109569   15.697601   19.602124
  C     18.641656   14.406967   19.777745
  C     18.002270   13.476451   20.613990
  C     16.818838   13.838036   21.279975
  C     16.283183   15.121068   21.104075
  O     15.135580   15.470453   21.738235
  C     16.922181   16.045256   20.271818
  H     14.402890   15.648896   17.498933
  H     13.637302   14.294349   16.640384
  H     13.878575   15.846629   15.807836
  H     16.110580   13.964263   16.783304
  H     15.614082   14.150730   15.081696
  H     16.921066   18.334776   15.165017
  H     16.436320   19.771919   16.063978
  H     15.489115   18.281008   16.209181
  H     17.172219   20.129002   18.090963
  H     19.761297   17.891143   20.205370
  H     19.740452   16.256932   18.326833
  H     19.546014   14.118532   19.247563
  H     18.421161   12.479276   20.736839
  H     16.320496   13.121442   21.924285
  H     14.878025   14.725531   22.301919
  H     16.492562   17.033814   20.152277

----------------------------
CARTESIAN COORDINATES (A.U.)
----------------------------
  NO LB      ZA    FRAG     MASS         X           Y           Z
   0 C     6.0000    0    12.011   27.060052   28.621079   31.231895
   1 C     6.0000    0    12.011   29.668892   27.719463   30.322064
   2 O     8.0000    0    15.999   31.236338   29.924799   30.064227
   3 C     6.0000    0    12.011   33.551865   29.934134   31.195264
   4 O     8.0000    0    15.999   34.812244   28.011853   31.375631
   5 C     6.0000    0    12.011   33.879514   32.107426   32.982853
   6 C     6.0000    0    12.011   32.813569   34.417292   32.655089
   7 C     6.0000    0    12.011   31.195122   35.298152   30.464856
   8 N     7.0000    0    14.007   33.289586   36.342548   34.401326
   9 C     6.0000    0    12.011   34.980932   36.182803   36.355358
  10 S    16.0000    0    32.060   35.583985   38.622430   38.213693
  11 N     7.0000    0    14.007   36.149946   33.892494   36.690886
  12 C     6.0000    0    12.011   35.523534   31.558855   35.300616
  13 C     6.0000    0    12.011   34.222125   29.664166   37.042647
  14 C     6.0000    0    12.011   35.227624   27.225221   37.374522
  15 C     6.0000    0    12.011   34.019361   25.466802   38.954795
  16 C     6.0000    0    12.011   31.782998   26.150098   40.213324
  17 C     6.0000    0    12.011   30.770757   28.574677   39.880922
  18 O     8.0000    0    15.999   28.602101   29.234920   41.079311
  19 C     6.0000    0    12.011   31.978287   30.321140   38.308184
  20 H     1.0000    0     1.008   27.217517   29.572128   33.068190
  21 H     1.0000    0     1.008   25.770766   27.012406   31.445769
  22 H     1.0000    0     1.008   26.226706   29.945790   29.872481
  23 H     1.0000    0     1.008   30.444584   26.388633   31.715849
  24 H     1.0000    0     1.008   29.506339   26.741004   28.500275
  25 H     1.0000    0     1.008   31.976181   34.647705   28.657728
  26 H     1.0000    0     1.008   31.060144   37.363513   30.356519
  27 H     1.0000    0     1.008   29.270186   34.546099   30.630913
  28 H     1.0000    0     1.008   32.450792   38.038301   34.186966
  29 H     1.0000    0     1.008   37.343439   33.809360   38.182616
  30 H     1.0000    0     1.008   37.304048   30.721150   34.632695
  31 H     1.0000    0     1.008   36.936614   26.680160   36.372623
  32 H     1.0000    0     1.008   34.810950   23.582413   39.186947
  33 H     1.0000    0     1.008   30.841267   24.795932   41.430894
  34 H     1.0000    0     1.008   28.115393   27.827221   42.144519
  35 H     1.0000    0     1.008   31.166426   32.189243   38.082285

--------------------------------
INTERNAL COORDINATES (ANGSTROEM)
--------------------------------
 C      0   0   0     0.000000000000     0.00000000     0.00000000
 C      1   0   0     1.537963479265     0.00000000     0.00000000
 O      2   1   0     1.438240652241   107.19713917     0.00000000
 C      3   2   1     1.363696556155   118.65278525   128.88604609
 O      4   3   2     1.220123659068   121.49892355    34.15473928
 C      4   3   2     1.499171621144   112.55884320   236.66427612
 C      6   4   3     1.357331851928   124.20358978   327.18434110
 C      7   6   4     1.514630661999   127.58310076   357.98290757
 N      7   6   4     1.398324883265   119.78933827   181.66070084
 C      9   7   6     1.370192053990   124.85004473     6.70062420
 S     10   9   7     1.653952550473   121.77435009   175.46151747
 N     10   9   7     1.372262688179   116.52564042   355.47329174
 C     12  10   9     1.475172432026   124.99629365   353.09103888
 C     13  12  10     1.526213524838   110.49374230   250.65808642
 C     14  13  12     1.407016680517   120.48733114   236.71183513
 C     15  14  13     1.404982838081   120.64437715   180.70932302
 C     16  15  14     1.405272885988   119.66358845     0.08435787
 C     17  16  15     1.401441099855   119.86523272     0.13434338
 O     18  17  16     1.356916454210   120.02173602   179.53868428
 C     18  17  16     1.398246916890   120.34140389   359.82652344
 H      1   2   3     1.097487214535   110.56591416   299.15569803
 H      1   2   3     1.096793190168   110.48126334   179.44532422
 H      1   2   3     1.096984335334   110.72018753    59.49924651
 H      2   1   3     1.099293962430   108.89792360   120.88117104
 H      2   1   3     1.097672334419   110.54444245   239.91750648
 H      8   7   6     1.097177726274   110.94058942   317.49895643
 H      8   7   6     1.096772967289   112.55068420   197.69927114
 H      8   7   6     1.097138372711   110.61374858    77.08501783
 H      9   7   6     1.007537848052   119.67938240   182.03278903
 H     12  10   9     1.011904631995   114.87844644   182.00898167
 H     13  12  10     1.099631970263   107.77225096   132.36409111
 H     15  14  13     1.087267797978   119.80330902   359.54980876
 H     16  15  14     1.088540840694   119.91767746   179.64934189
 H     17  16  15     1.084890415053   119.88995520   179.82013995
 H     19  18  17     0.969011471499   107.38044590     3.60268921
 H     20  18  17     1.084485400687   119.14796985   180.20458545

---------------------------
INTERNAL COORDINATES (A.U.)
---------------------------
 C      0   0   0     0.000000000000     0.00000000     0.00000000
 C      1   0   0     2.906329779783     0.00000000     0.00000000
 O      2   1   0     2.717880947408   107.19713917     0.00000000
 C      3   2   1     2.577013020904   118.65278525   128.88604609
 O      4   3   2     2.305699565156   121.49892355    34.15473928
 C      4   3   2     2.833023791709   112.55884320   236.66427612
 C      6   4   3     2.564985472992   124.20358978   327.18434110
 C      7   6   4     2.862237145218   127.58310076   357.98290757
 N      7   6   4     2.642451075618   119.78933827   181.66070084
 C      9   7   6     2.589287732917   124.85004473     6.70062420
 S     10   9   7     3.125517358894   121.77435009   175.46151747
 N     10   9   7     2.593200664456   116.52564042   355.47329174
 C     12  10   9     2.787671896840   124.99629365   353.09103888
 C     13  12  10     2.884125583830   110.49374230   250.65808642
 C     14  13  12     2.658876192035   120.48733114   236.71183513
 C     15  14  13     2.655032786832   120.64437715   180.70932302
 C     16  15  14     2.655580897943   119.66358845     0.08435787
 C     17  16  15     2.648339871548   119.86523272     0.13434338
 O     18  17  16     2.564200485068   120.02173602   179.53868428
 C     18  17  16     2.642303740523   120.34140389   359.82652344
 H      1   2   3     2.073950270951   110.56591416   299.15569803
 H      1   2   3     2.072638754968   110.48126334   179.44532422
 H      1   2   3     2.072999966984   110.72018753    59.49924651
 H      2   1   3     2.077364529665   108.89792360   120.88117104
 H      2   1   3     2.074300096834   110.54444245   239.91750648
 H      8   7   6     2.073365422897   110.94058942   317.49895643
 H      8   7   6     2.072600539265   112.55068420   197.69927114
 H      8   7   6     2.073291055441   110.61374858    77.08501783
 H      9   7   6     1.903970602379   119.67938240   182.03278903
 H     12  10   9     1.912222628116   114.87844644   182.00898167
 H     13  12  10     2.078003271902   107.77225096   132.36409111
 H     15  14  13     2.054638372411   119.80330902   359.54980876
 H     16  15  14     2.057044074500   119.91767746   179.64934189
 H     17  16  15     2.050145769766   119.88995520   179.82013995
 H     19  18  17     1.831166301761   107.38044590     3.60268921
 H     20  18  17     2.049380403535   119.14796985   180.20458545

---------------------
BASIS SET INFORMATION
---------------------
There are 5 groups of distinct atoms

 Group   1 Type C   : 18s5p2d1f contracted to 4s3p2d1f pattern {8811/311/11/1}
 Group   2 Type O   : 18s5p2d1f contracted to 4s3p2d1f pattern {8811/311/11/1}
 Group   3 Type N   : 18s5p2d1f contracted to 4s3p2d1f pattern {8811/311/11/1}
 Group   4 Type S   : 41s16p2d1f contracted to 5s4p2d1f pattern {13131311/7711/11/1}
 Group   5 Type H   : 5s2p1d contracted to 3s2p1d pattern {311/11/1}

Atom   0C    basis set group =>   1
Atom   1C    basis set group =>   1
Atom   2O    basis set group =>   2
Atom   3C    basis set group =>   1
Atom   4O    basis set group =>   2
Atom   5C    basis set group =>   1
Atom   6C    basis set group =>   1
Atom   7C    basis set group =>   1
Atom   8N    basis set group =>   3
Atom   9C    basis set group =>   1
Atom  10S    basis set group =>   4
Atom  11N    basis set group =>   3
Atom  12C    basis set group =>   1
Atom  13C    basis set group =>   1
Atom  14C    basis set group =>   1
Atom  15C    basis set group =>   1
Atom  16C    basis set group =>   1
Atom  17C    basis set group =>   1
Atom  18O    basis set group =>   2
Atom  19C    basis set group =>   1
Atom  20H    basis set group =>   5
Atom  21H    basis set group =>   5
Atom  22H    basis set group =>   5
Atom  23H    basis set group =>   5
Atom  24H    basis set group =>   5
Atom  25H    basis set group =>   5
Atom  26H    basis set group =>   5
Atom  27H    basis set group =>   5
Atom  28H    basis set group =>   5
Atom  29H    basis set group =>   5
Atom  30H    basis set group =>   5
Atom  31H    basis set group =>   5
Atom  32H    basis set group =>   5
Atom  33H    basis set group =>   5
Atom  34H    basis set group =>   5
Atom  35H    basis set group =>   5
---------------------------------
AUXILIARY/C BASIS SET INFORMATION
---------------------------------
There are 5 groups of distinct atoms

 Group   1 Type C   : 8s6p5d3f1g contracted to 8s6p5d3f1g pattern {11111111/111111/11111/111/1}
 Group   2 Type O   : 8s6p5d3f1g contracted to 8s6p5d3f1g pattern {11111111/111111/11111/111/1}
 Group   3 Type N   : 8s6p5d3f1g contracted to 8s6p5d3f1g pattern {11111111/111111/11111/111/1}
 Group   4 Type S   : 10s8p7d5f2g contracted to 10s8p7d5f2g pattern {1111111111/11111111/1111111/11111/11}
 Group   5 Type H   : 4s3p2d1f contracted to 4s3p2d1f pattern {1111/111/11/1}

Atom   0C    basis set group =>   1
Atom   1C    basis set group =>   1
Atom   2O    basis set group =>   2
Atom   3C    basis set group =>   1
Atom   4O    basis set group =>   2
Atom   5C    basis set group =>   1
Atom   6C    basis set group =>   1
Atom   7C    basis set group =>   1
Atom   8N    basis set group =>   3
Atom   9C    basis set group =>   1
Atom  10S    basis set group =>   4
Atom  11N    basis set group =>   3
Atom  12C    basis set group =>   1
Atom  13C    basis set group =>   1
Atom  14C    basis set group =>   1
Atom  15C    basis set group =>   1
Atom  16C    basis set group =>   1
Atom  17C    basis set group =>   1
Atom  18O    basis set group =>   2
Atom  19C    basis set group =>   1
Atom  20H    basis set group =>   5
Atom  21H    basis set group =>   5
Atom  22H    basis set group =>   5
Atom  23H    basis set group =>   5
Atom  24H    basis set group =>   5
Atom  25H    basis set group =>   5
Atom  26H    basis set group =>   5
Atom  27H    basis set group =>   5
Atom  28H    basis set group =>   5
Atom  29H    basis set group =>   5
Atom  30H    basis set group =>   5
Atom  31H    basis set group =>   5
Atom  32H    basis set group =>   5
Atom  33H    basis set group =>   5
Atom  34H    basis set group =>   5
Atom  35H    basis set group =>   5
------------------------------------------------------------------------------
                           ORCA GTO INTEGRAL CALCULATION
------------------------------------------------------------------------------
------------------------------------------------------------------------------
                   ___                                                        
                  /   \      - P O W E R E D   B Y -                         
                 /     \                                                     
                 |  |  |   _    _      __       _____    __    __             
                 |  |  |  | |  | |    /  \     |  _  \  |  |  /  |          
                  \  \/   | |  | |   /    \    | | | |  |  | /  /          
                 / \  \   | |__| |  /  /\  \   | |_| |  |  |/  /          
                |  |  |   |  __  | /  /__\  \  |    /   |      \           
                |  |  |   | |  | | |   __   |  |    \   |  |\   \          
                \     /   | |  | | |  |  |  |  | |\  \  |  | \   \       
                 \___/    |_|  |_| |__|  |__|  |_| \__\ |__|  \__/        
                                                                              
                      - O R C A' S   B I G   F R I E N D -                    
                                      &                                       
                       - I N T E G R A L  F E E D E R -                       
                                                                              
 v1 FN, 2020, v2 2021                                                         
------------------------------------------------------------------------------


Reading SHARK input file CONFS/Conf812.orca.SHARKINP.tmp ... ok
----------------------
SHARK INTEGRAL PACKAGE
----------------------

Number of atoms                             ...     36
Number of basis functions                   ...    828
Number of shells                            ...    298
Maximum angular momentum                    ...      3
Integral batch strategy                     ... SHARK/LIBINT Hybrid
RI-J (if used) integral strategy            ... SPLIT-RIJ (Revised 2003 algorithm where possible)
Printlevel                                  ...      1
Contraction scheme used                     ... SEGMENTED contraction
Coulomb Range Separation                    ... NOT USED
Exchange Range Separation                   ... NOT USED
Finite Nucleus Model                        ... NOT USED
Auxiliary Coulomb fitting basis             ... NOT available
Auxiliary J/K fitting basis                 ... NOT available
Auxiliary Correlation fitting basis         ... AVAILABLE
   # of basis functions in Aux-C            ...   2141
   # of shells in Aux-C                     ...    629
   Maximum angular momentum in Aux-C        ...      4
Auxiliary 'external' fitting basis          ... NOT available
Integral threshold                          ...     2.500000e-11
Primitive cut-off                           ...     2.500000e-12
Primitive pair pre-selection threshold      ...     2.500000e-12

Calculating pre-screening integrals         ... done (  0.5 sec) Dimension = 298
Organizing shell pair data                  ... done (  1.4 sec)
Shell pair information
Total number of shell pairs                 ...     44551
Shell pairs after pre-screening             ...     33697
Total number of primitive shell pairs       ...    234348
Primitive shell pairs kept                  ...     96349
          la=0 lb=0:   6720 shell pairs
          la=1 lb=0:   9367 shell pairs
          la=1 lb=1:   3309 shell pairs
          la=2 lb=0:   5380 shell pairs
          la=2 lb=1:   3689 shell pairs
          la=2 lb=2:   1051 shell pairs
          la=3 lb=0:   1951 shell pairs
          la=3 lb=1:   1334 shell pairs
          la=3 lb=2:    747 shell pairs
          la=3 lb=3:    149 shell pairs

Calculating one electron integrals          ... done (  0.5 sec)
Calculating RI/C V-Matrix + Cholesky decomp.... done (  1.3 sec)
Calculating Nuclear repulsion               ... done (  0.0 sec) ENN=   1713.816593733132 Eh

SHARK setup successfully completed in   4.1 seconds

Maximum memory used throughout the entire GTOINT-calculation: 498.5 MB
-------------------------------------------------------------------------------
                                 ORCA SCF
-------------------------------------------------------------------------------

------------
SCF SETTINGS
------------
Hamiltonian:
 Ab initio Hamiltonian  Method          .... Hartree-Fock(GTOs)


General Settings:
 Integral files         IntName         .... CONFS/Conf812.orca
 Hartree-Fock type      HFTyp           .... RHF
 Total Charge           Charge          ....    0
 Multiplicity           Mult            ....    1
 Number of Electrons    NEL             ....  154
 Basis Dimension        Dim             ....  828
 Nuclear Repulsion      ENuc            ....   1713.8165937331 Eh

Convergence Acceleration:
 DIIS                   CNVDIIS         .... on
   Start iteration      DIISMaxIt       ....    12
   Startup error        DIISStart       ....  0.200000
   # of expansion vecs  DIISMaxEq       ....     5
   Bias factor          DIISBfac        ....   1.050
   Max. coefficient     DIISMaxC        ....  10.000
 Trust-Rad. Augm. Hess. CNVTRAH         .... auto
   Auto Start mean grad. ratio tolernc. ....  1.125000
   Auto Start start iteration           ....    20
   Auto Start num. interpolation iter.  ....    10
   Max. Number of Micro iterations      ....    16
   Max. Number of Macro iterations      .... Maxiter - #DIIS iter
   Number of Davidson start vectors     ....     2
   Converg. threshold I  (grad. norm)   ....   1.000e-05
   Converg. threshold II (energy diff.) ....   1.000e-08
   Grad. Scal. Fac. for Micro threshold ....   0.100
   Minimum threshold for Micro iter.    ....   0.010
   NR start threshold (gradient norm)   ....   0.001
   Initial trust radius                 ....   0.400
   Minimum AH scaling param. (alpha)    ....   1.000
   Maximum AH scaling param. (alpha)    .... 1000.000
   Orbital update algorithm             .... Taylor
   White noise on init. David. guess    .... on
   Maximum white noise                  ....   0.010
   Quad. conv. algorithm                .... NR
 SOSCF                  CNVSOSCF        .... on
   Start iteration      SOSCFMaxIt      ....   150
   Startup grad/error   SOSCFStart      ....  0.003300
 Level Shifting         CNVShift        .... on
   Level shift para.    LevelShift      ....    0.2500
   Turn off err/grad.   ShiftErr        ....    0.0010
 Zerner damping         CNVZerner       .... off
 Static damping         CNVDamp         .... on
   Fraction old density DampFac         ....    0.7000
   Max. Damping (<1)    DampMax         ....    0.9800
   Min. Damping (>=0)   DampMin         ....    0.0000
   Turn off err/grad.   DampErr         ....    0.1000
 Fernandez-Rico         CNVRico         .... off

SCF Procedure:
 Maximum # iterations   MaxIter         ....   125
 SCF integral mode      SCFMode         .... Direct
   Integral package                     .... SHARK and LIBINT hybrid scheme
 Reset frequency        DirectResetFreq ....    20
 Integral Threshold     Thresh          ....  2.500e-11 Eh
 Primitive CutOff       TCut            ....  2.500e-12 Eh

Convergence Tolerance:
 Convergence Check Mode ConvCheckMode   .... Total+1el-Energy
 Convergence forced     ConvForced      .... 1
 Energy Change          TolE            ....  1.000e-08 Eh
 1-El. energy change                    ....  1.000e-05 Eh
 Orbital Gradient       TolG            ....  1.000e-05
 Orbital Rotation angle TolX            ....  1.000e-05
 DIIS Error             TolErr          ....  5.000e-07


Diagonalization of the overlap matrix:
Smallest eigenvalue                        ... 3.439e-05
Time for diagonalization                   ...    0.112 sec
Threshold for overlap eigenvalues          ... 1.000e-08
Number of eigenvalues below threshold      ... 0
Time for construction of square roots      ...    0.112 sec
Total time needed                          ...    0.225 sec

Time for model grid setup =    1.473 sec

------------------------------
INITIAL GUESS: MODEL POTENTIAL
------------------------------
Loading Hartree-Fock densities                     ... done
Calculating cut-offs                               ... done
Initializing the effective Hamiltonian             ... done
Setting up the integral package (SHARK)            ... done
Starting the Coulomb interaction                   ... done (   4.7 sec)
Reading the grid                                   ... done
Mapping shells                                     ... done
Starting the XC term evaluation                    ... done (   1.4 sec)
Transforming the Hamiltonian                       ... done (   0.1 sec)
Diagonalizing the Hamiltonian                      ... done (   0.1 sec)
Back transforming the eigenvectors                 ... done (   0.0 sec)
Now organizing SCF variables                       ... done
                      ------------------
                      INITIAL GUESS DONE (   8.3 sec)
                      ------------------
--------------
SCF ITERATIONS
--------------
ITER       Energy         Delta-E        Max-DP      RMS-DP      [F,P]     Damp
               ***  Starting incremental Fock matrix formation  ***
  0  -1270.0028634450   0.000000000000 0.04929471  0.00043509  0.3090367 0.7000
  1  -1270.2716155020  -0.268752057020 0.03606866  0.00035111  0.1813543 0.7000
                               ***Turning on DIIS***
  2  -1270.4389082337  -0.167292731766 0.02583126  0.00023527  0.1097329 0.7000
  3  -1272.5948733094  -2.155965075669 0.06312908  0.00050925  0.0828880 0.0000
  4  -1270.7469735505   1.847899758885 0.01070486  0.00009794  0.0069020 0.0000
  5  -1270.8099694649  -0.062995914370 0.00463685  0.00005258  0.0036899 0.0000
                      *** Initiating the SOSCF procedure ***
                           *** Shutting down DIIS ***
                      *** Re-Reading the Fockian *** 
                      *** Removing any level shift *** 
ITER      Energy       Delta-E        Grad      Rot      Max-DP    RMS-DP
  6  -1270.78770920   0.0222602639  0.001776  0.001776  0.002365  0.000027
               *** Restarting incremental Fock matrix formation ***
  7  -1270.80211675  -0.0144075522  0.000946  0.002436  0.001623  0.000017
  8  -1270.80216560  -0.0000488462  0.000496  0.002877  0.001741  0.000018
  9  -1270.80218427  -0.0000186706  0.000207  0.000382  0.000371  0.000004
 10  -1270.80218667  -0.0000024010  0.000058  0.000156  0.000120  0.000001
 11  -1270.80218690  -0.0000002274  0.000022  0.000119  0.000067  0.000001
 12  -1270.80218696  -0.0000000637  0.000011  0.000039  0.000029  0.000000
 13  -1270.80218696  -0.0000000023  0.000003  0.000009  0.000005  0.000000
                  ***Gradient check signals convergence***
              ***Rediagonalizing the Fockian in SOSCF/NRSCF***

               *****************************************************
               *                     SUCCESS                       *
               *           SCF CONVERGED AFTER  14 CYCLES          *
               *****************************************************


----------------
TOTAL SCF ENERGY
----------------

Total Energy       :        -1270.80218696 Eh          -34580.28553 eV

Components:
Nuclear Repulsion  :         1713.81659373 Eh           46635.32041 eV
Electronic Energy  :        -2984.61878069 Eh          -81215.60594 eV
One Electron Energy:        -5148.89036884 Eh         -140108.42991 eV
Two Electron Energy:         2164.27158815 Eh           58892.82397 eV

Virial components:
Potential Energy   :        -2539.80138741 Eh          -69111.50931 eV
Kinetic Energy     :         1268.99920046 Eh           34531.22378 eV
Virial Ratio       :            2.00142079


---------------
SCF CONVERGENCE
---------------

  Last Energy change         ...    7.0886e-09  Tolerance :   1.0000e-08
  Last MAX-Density change    ...    1.7085e-06  Tolerance :   1.0000e-07
  Last RMS-Density change    ...    3.0386e-08  Tolerance :   5.0000e-09
  Last Orbital Gradient      ...    9.6427e-07  Tolerance :   1.0000e-05
  Last Orbital Rotation      ...    2.7538e-06  Tolerance :   1.0000e-05

             **** THE GBW FILE WAS UPDATED (CONFS/Conf812.orca.gbw) ****
             **** DENSITY CONFS/Conf812.orca.scfp WAS UPDATED ****
             **** ENERGY FILE WAS UPDATED (CONFS/Conf812.orca.en.tmp) ****
             **** THE GBW FILE WAS UPDATED (CONFS/Conf812.orca.gbw) ****
             **** DENSITY CONFS/Conf812.orca.scfp WAS UPDATED ****
----------------
ORBITAL ENERGIES
----------------

  NO   OCC          E(Eh)            E(eV) 
   0   2.0000     -91.888297     -2500.4077 
   1   2.0000     -20.595030      -560.4193 
   2   2.0000     -20.593457      -560.3765 
   3   2.0000     -20.550679      -559.2124 
   4   2.0000     -15.627985      -425.2591 
   5   2.0000     -15.607716      -424.7075 
   6   2.0000     -11.394875      -310.0703 
   7   2.0000     -11.383673      -309.7655 
   8   2.0000     -11.333554      -308.4017 
   9   2.0000     -11.311003      -307.7880 
  10   2.0000     -11.307691      -307.6979 
  11   2.0000     -11.298615      -307.4509 
  12   2.0000     -11.259866      -306.3965 
  13   2.0000     -11.259316      -306.3816 
  14   2.0000     -11.256510      -306.3052 
  15   2.0000     -11.251100      -306.1580 
  16   2.0000     -11.240675      -305.8743 
  17   2.0000     -11.236674      -305.7655 
  18   2.0000     -11.233876      -305.6893 
  19   2.0000     -11.231597      -305.6273 
  20   2.0000      -8.893374      -242.0010 
  21   2.0000      -6.574953      -178.9136 
  22   2.0000      -6.572943      -178.8589 
  23   2.0000      -6.572360      -178.8430 
  24   2.0000      -1.453569       -39.5536 
  25   2.0000      -1.414769       -38.4978 
  26   2.0000      -1.356959       -36.9247 
  27   2.0000      -1.339187       -36.4411 
  28   2.0000      -1.237396       -33.6713 
  29   2.0000      -1.155206       -31.4348 
  30   2.0000      -1.120773       -30.4978 
  31   2.0000      -1.044469       -28.4215 
  32   2.0000      -1.036456       -28.2034 
  33   2.0000      -1.012585       -27.5538 
  34   2.0000      -0.998829       -27.1795 
  35   2.0000      -0.984436       -26.7879 
  36   2.0000      -0.922632       -25.1061 
  37   2.0000      -0.887646       -24.1541 
  38   2.0000      -0.847322       -23.0568 
  39   2.0000      -0.837104       -22.7788 
  40   2.0000      -0.831134       -22.6163 
  41   2.0000      -0.819222       -22.2922 
  42   2.0000      -0.759460       -20.6660 
  43   2.0000      -0.736255       -20.0345 
  44   2.0000      -0.727196       -19.7880 
  45   2.0000      -0.693390       -18.8681 
  46   2.0000      -0.684943       -18.6382 
  47   2.0000      -0.679545       -18.4914 
  48   2.0000      -0.676825       -18.4174 
  49   2.0000      -0.660513       -17.9735 
  50   2.0000      -0.651371       -17.7247 
  51   2.0000      -0.644736       -17.5442 
  52   2.0000      -0.635961       -17.3054 
  53   2.0000      -0.603924       -16.4336 
  54   2.0000      -0.602146       -16.3852 
  55   2.0000      -0.598411       -16.2836 
  56   2.0000      -0.593463       -16.1490 
  57   2.0000      -0.578497       -15.7417 
  58   2.0000      -0.575664       -15.6646 
  59   2.0000      -0.568180       -15.4610 
  60   2.0000      -0.559979       -15.2378 
  61   2.0000      -0.556067       -15.1314 
  62   2.0000      -0.541928       -14.7466 
  63   2.0000      -0.520338       -14.1591 
  64   2.0000      -0.517402       -14.0792 
  65   2.0000      -0.511581       -13.9208 
  66   2.0000      -0.501652       -13.6507 
  67   2.0000      -0.497444       -13.5361 
  68   2.0000      -0.482571       -13.1314 
  69   2.0000      -0.463228       -12.6051 
  70   2.0000      -0.457186       -12.4407 
  71   2.0000      -0.456683       -12.4270 
  72   2.0000      -0.353716        -9.6251 
  73   2.0000      -0.346939        -9.4407 
  74   2.0000      -0.327606        -8.9146 
  75   2.0000      -0.318091        -8.6557 
  76   2.0000      -0.315183        -8.5766 
  77   0.0000       0.074082         2.0159 
  78   0.0000       0.106607         2.9009 
  79   0.0000       0.119426         3.2497 
  80   0.0000       0.133278         3.6267 
  81   0.0000       0.140510         3.8235 
  82   0.0000       0.143295         3.8993 
  83   0.0000       0.150797         4.1034 
  84   0.0000       0.156502         4.2586 
  85   0.0000       0.162154         4.4124 
  86   0.0000       0.169074         4.6007 
  87   0.0000       0.173964         4.7338 
  88   0.0000       0.189212         5.1487 
  89   0.0000       0.193150         5.2559 
  90   0.0000       0.204649         5.5688 
  91   0.0000       0.207653         5.6505 
  92   0.0000       0.214663         5.8413 
  93   0.0000       0.217039         5.9059 
  94   0.0000       0.223376         6.0784 
  95   0.0000       0.232909         6.3378 
  96   0.0000       0.235969         6.4210 
  97   0.0000       0.245433         6.6786 
  98   0.0000       0.247918         6.7462 
  99   0.0000       0.284906         7.7527 
 100   0.0000       0.296508         8.0684 
 101   0.0000       0.309252         8.4152 
 102   0.0000       0.315402         8.5825 
 103   0.0000       0.322463         8.7747 
 104   0.0000       0.326512         8.8848 
 105   0.0000       0.336744         9.1633 
 106   0.0000       0.340737         9.2719 
 107   0.0000       0.347989         9.4693 
 108   0.0000       0.354733         9.6528 
 109   0.0000       0.363904         9.9023 
 110   0.0000       0.372882        10.1466 
 111   0.0000       0.383047        10.4232 
 112   0.0000       0.385759        10.4970 
 113   0.0000       0.393191        10.6993 
 114   0.0000       0.397827        10.8254 
 115   0.0000       0.406641        11.0653 
 116   0.0000       0.420230        11.4350 
 117   0.0000       0.425697        11.5838 
 118   0.0000       0.432451        11.7676 
 119   0.0000       0.437515        11.9054 
 120   0.0000       0.442316        12.0360 
 121   0.0000       0.451674        12.2907 
 122   0.0000       0.456200        12.4138 
 123   0.0000       0.460258        12.5243 
 124   0.0000       0.460995        12.5443 
 125   0.0000       0.469820        12.7845 
 126   0.0000       0.478554        13.0221 
 127   0.0000       0.485309        13.2059 
 128   0.0000       0.495051        13.4710 
 129   0.0000       0.496873        13.5206 
 130   0.0000       0.505322        13.7505 
 131   0.0000       0.507004        13.7963 
 132   0.0000       0.510314        13.8864 
 133   0.0000       0.516659        14.0590 
 134   0.0000       0.526337        14.3224 
 135   0.0000       0.530308        14.4304 
 136   0.0000       0.536423        14.5968 
 137   0.0000       0.541305        14.7297 
 138   0.0000       0.544628        14.8201 
 139   0.0000       0.553379        15.0582 
 140   0.0000       0.555947        15.1281 
 141   0.0000       0.559212        15.2169 
 142   0.0000       0.561132        15.2692 
 143   0.0000       0.571269        15.5450 
 144   0.0000       0.574857        15.6427 
 145   0.0000       0.576552        15.6888 
 146   0.0000       0.582437        15.8489 
 147   0.0000       0.588810        16.0223 
 148   0.0000       0.591700        16.1010 
 149   0.0000       0.596888        16.2422 
 150   0.0000       0.601877        16.3779 
 151   0.0000       0.609325        16.5806 
 152   0.0000       0.612084        16.6557 
 153   0.0000       0.618961        16.8428 
 154   0.0000       0.620851        16.8942 
 155   0.0000       0.627671        17.0798 
 156   0.0000       0.628838        17.1115 
 157   0.0000       0.634253        17.2589 
 158   0.0000       0.636058        17.3080 
 159   0.0000       0.643676        17.5153 
 160   0.0000       0.649626        17.6772 
 161   0.0000       0.650895        17.7118 
 162   0.0000       0.653720        17.7886 
 163   0.0000       0.664911        18.0931 
 164   0.0000       0.667053        18.1514 
 165   0.0000       0.677560        18.4374 
 166   0.0000       0.681965        18.5572 
 167   0.0000       0.683131        18.5889 
 168   0.0000       0.689201        18.7541 
 169   0.0000       0.691983        18.8298 
 170   0.0000       0.700630        19.0651 
 171   0.0000       0.703864        19.1531 
 172   0.0000       0.714485        19.4421 
 173   0.0000       0.720556        19.6073 
 174   0.0000       0.724210        19.7067 
 175   0.0000       0.730448        19.8765 
 176   0.0000       0.734104        19.9760 
 177   0.0000       0.740423        20.1479 
 178   0.0000       0.748195        20.3594 
 179   0.0000       0.752999        20.4902 
 180   0.0000       0.757748        20.6194 
 181   0.0000       0.762430        20.7468 
 182   0.0000       0.770703        20.9719 
 183   0.0000       0.784129        21.3372 
 184   0.0000       0.789367        21.4798 
 185   0.0000       0.799528        21.7563 
 186   0.0000       0.810825        22.0637 
 187   0.0000       0.819163        22.2906 
 188   0.0000       0.826027        22.4773 
 189   0.0000       0.828571        22.5466 
 190   0.0000       0.837071        22.7779 
 191   0.0000       0.842324        22.9208 
 192   0.0000       0.846404        23.0318 
 193   0.0000       0.860586        23.4177 
 194   0.0000       0.863998        23.5106 
 195   0.0000       0.873101        23.7583 
 196   0.0000       0.887016        24.1369 
 197   0.0000       0.890787        24.2395 
 198   0.0000       0.900332        24.4993 
 199   0.0000       0.903765        24.5927 
 200   0.0000       0.917365        24.9628 
 201   0.0000       0.922158        25.0932 
 202   0.0000       0.929329        25.2883 
 203   0.0000       0.937158        25.5014 
 204   0.0000       0.939922        25.5766 
 205   0.0000       0.949131        25.8272 
 206   0.0000       0.961687        26.1688 
 207   0.0000       0.967824        26.3358 
 208   0.0000       0.973889        26.5009 
 209   0.0000       0.978262        26.6199 
 210   0.0000       0.980868        26.6908 
 211   0.0000       0.985915        26.8281 
 212   0.0000       0.990377        26.9495 
 213   0.0000       1.000031        27.2122 
 214   0.0000       1.013073        27.5671 
 215   0.0000       1.021740        27.8030 
 216   0.0000       1.026219        27.9248 
 217   0.0000       1.037292        28.2262 
 218   0.0000       1.041788        28.3485 
 219   0.0000       1.046229        28.4693 
 220   0.0000       1.051479        28.6122 
 221   0.0000       1.057442        28.7744 
 222   0.0000       1.065028        28.9809 
 223   0.0000       1.070850        29.1393 
 224   0.0000       1.080501        29.4019 
 225   0.0000       1.092617        29.7316 
 226   0.0000       1.099885        29.9294 
 227   0.0000       1.108134        30.1539 
 228   0.0000       1.117725        30.4148 
 229   0.0000       1.122115        30.5343 
 230   0.0000       1.126768        30.6609 
 231   0.0000       1.134473        30.8706 
 232   0.0000       1.136567        30.9276 
 233   0.0000       1.143192        31.1078 
 234   0.0000       1.157096        31.4862 
 235   0.0000       1.159697        31.5570 
 236   0.0000       1.168947        31.8087 
 237   0.0000       1.174494        31.9596 
 238   0.0000       1.176818        32.0229 
 239   0.0000       1.184113        32.2214 
 240   0.0000       1.187765        32.3207 
 241   0.0000       1.202818        32.7303 
 242   0.0000       1.210490        32.9391 
 243   0.0000       1.217095        33.1188 
 244   0.0000       1.223225        33.2856 
 245   0.0000       1.229014        33.4432 
 246   0.0000       1.235579        33.6218 
 247   0.0000       1.239293        33.7229 
 248   0.0000       1.244210        33.8567 
 249   0.0000       1.262040        34.3418 
 250   0.0000       1.262958        34.3668 
 251   0.0000       1.272567        34.6283 
 252   0.0000       1.278352        34.7857 
 253   0.0000       1.280858        34.8539 
 254   0.0000       1.288974        35.0748 
 255   0.0000       1.293081        35.1865 
 256   0.0000       1.304471        35.4965 
 257   0.0000       1.307873        35.5890 
 258   0.0000       1.325245        36.0618 
 259   0.0000       1.332179        36.2504 
 260   0.0000       1.333549        36.2877 
 261   0.0000       1.343813        36.5670 
 262   0.0000       1.357699        36.9449 
 263   0.0000       1.358726        36.9728 
 264   0.0000       1.364448        37.1285 
 265   0.0000       1.379831        37.5471 
 266   0.0000       1.382827        37.6286 
 267   0.0000       1.398248        38.0483 
 268   0.0000       1.399888        38.0929 
 269   0.0000       1.407467        38.2991 
 270   0.0000       1.415837        38.5269 
 271   0.0000       1.426694        38.8223 
 272   0.0000       1.437320        39.1115 
 273   0.0000       1.440840        39.2072 
 274   0.0000       1.456643        39.6373 
 275   0.0000       1.464171        39.8421 
 276   0.0000       1.465262        39.8718 
 277   0.0000       1.473247        40.0891 
 278   0.0000       1.479874        40.2694 
 279   0.0000       1.488171        40.4952 
 280   0.0000       1.492055        40.6009 
 281   0.0000       1.493123        40.6299 
 282   0.0000       1.505594        40.9693 
 283   0.0000       1.509202        41.0675 
 284   0.0000       1.519533        41.3486 
 285   0.0000       1.525018        41.4978 
 286   0.0000       1.529629        41.6233 
 287   0.0000       1.537934        41.8493 
 288   0.0000       1.546335        42.0779 
 289   0.0000       1.553496        42.2728 
 290   0.0000       1.554408        42.2976 
 291   0.0000       1.565223        42.5919 
 292   0.0000       1.565791        42.6074 
 293   0.0000       1.578265        42.9468 
 294   0.0000       1.589596        43.2551 
 295   0.0000       1.601263        43.5726 
 296   0.0000       1.602291        43.6006 
 297   0.0000       1.603984        43.6466 
 298   0.0000       1.614843        43.9421 
 299   0.0000       1.624217        44.1972 
 300   0.0000       1.631302        44.3900 
 301   0.0000       1.644311        44.7440 
 302   0.0000       1.646346        44.7994 
 303   0.0000       1.651711        44.9453 
 304   0.0000       1.661277        45.2056 
 305   0.0000       1.666556        45.3493 
 306   0.0000       1.680460        45.7276 
 307   0.0000       1.683479        45.8098 
 308   0.0000       1.699763        46.2529 
 309   0.0000       1.708884        46.5011 
 310   0.0000       1.721208        46.8364 
 311   0.0000       1.725807        46.9616 
 312   0.0000       1.726198        46.9722 
 313   0.0000       1.734066        47.1863 
 314   0.0000       1.740999        47.3750 
 315   0.0000       1.757033        47.8113 
 316   0.0000       1.764148        48.0049 
 317   0.0000       1.773294        48.2538 
 318   0.0000       1.784955        48.5711 
 319   0.0000       1.794698        48.8362 
 320   0.0000       1.801996        49.0348 
 321   0.0000       1.817365        49.4530 
 322   0.0000       1.830677        49.8152 
 323   0.0000       1.840102        50.0717 
 324   0.0000       1.841327        50.1051 
 325   0.0000       1.861909        50.6651 
 326   0.0000       1.872116        50.9429 
 327   0.0000       1.890234        51.4359 
 328   0.0000       1.905557        51.8528 
 329   0.0000       1.912555        52.0433 
 330   0.0000       1.928033        52.4644 
 331   0.0000       1.935789        52.6755 
 332   0.0000       1.941949        52.8431 
 333   0.0000       1.958226        53.2860 
 334   0.0000       1.961102        53.3643 
 335   0.0000       1.980140        53.8823 
 336   0.0000       1.999397        54.4063 
 337   0.0000       2.002255        54.4841 
 338   0.0000       2.021358        55.0040 
 339   0.0000       2.024944        55.1015 
 340   0.0000       2.031184        55.2713 
 341   0.0000       2.035771        55.3961 
 342   0.0000       2.052106        55.8406 
 343   0.0000       2.062556        56.1250 
 344   0.0000       2.083204        56.6869 
 345   0.0000       2.097475        57.0752 
 346   0.0000       2.121562        57.7306 
 347   0.0000       2.128886        57.9299 
 348   0.0000       2.154272        58.6207 
 349   0.0000       2.158285        58.7299 
 350   0.0000       2.177971        59.2656 
 351   0.0000       2.201430        59.9039 
 352   0.0000       2.209264        60.1171 
 353   0.0000       2.224736        60.5381 
 354   0.0000       2.233074        60.7650 
 355   0.0000       2.262895        61.5765 
 356   0.0000       2.279608        62.0313 
 357   0.0000       2.289090        62.2893 
 358   0.0000       2.302686        62.6593 
 359   0.0000       2.303614        62.6845 
 360   0.0000       2.313831        62.9625 
 361   0.0000       2.320037        63.1314 
 362   0.0000       2.345245        63.8174 
 363   0.0000       2.358140        64.1682 
 364   0.0000       2.362313        64.2818 
 365   0.0000       2.368104        64.4394 
 366   0.0000       2.386664        64.9444 
 367   0.0000       2.393071        65.1188 
 368   0.0000       2.408506        65.5388 
 369   0.0000       2.415941        65.7411 
 370   0.0000       2.433600        66.2216 
 371   0.0000       2.447370        66.5963 
 372   0.0000       2.453535        66.7641 
 373   0.0000       2.471340        67.2486 
 374   0.0000       2.487310        67.6831 
 375   0.0000       2.500805        68.0504 
 376   0.0000       2.509574        68.2890 
 377   0.0000       2.520181        68.5776 
 378   0.0000       2.531090        68.8745 
 379   0.0000       2.569239        69.9125 
 380   0.0000       2.571783        69.9818 
 381   0.0000       2.577790        70.1452 
 382   0.0000       2.591571        70.5202 
 383   0.0000       2.608870        70.9910 
 384   0.0000       2.614337        71.1397 
 385   0.0000       2.617191        71.2174 
 386   0.0000       2.624354        71.4123 
 387   0.0000       2.637940        71.7820 
 388   0.0000       2.653653        72.2096 
 389   0.0000       2.664665        72.5092 
 390   0.0000       2.676244        72.8243 
 391   0.0000       2.690670        73.2168 
 392   0.0000       2.695963        73.3609 
 393   0.0000       2.706216        73.6399 
 394   0.0000       2.719362        73.9976 
 395   0.0000       2.727890        74.2297 
 396   0.0000       2.741988        74.6133 
 397   0.0000       2.744627        74.6851 
 398   0.0000       2.757210        75.0275 
 399   0.0000       2.762130        75.1614 
 400   0.0000       2.777541        75.5807 
 401   0.0000       2.788067        75.8672 
 402   0.0000       2.796258        76.0901 
 403   0.0000       2.806560        76.3704 
 404   0.0000       2.811646        76.5088 
 405   0.0000       2.828944        76.9795 
 406   0.0000       2.835144        77.1482 
 407   0.0000       2.841602        77.3239 
 408   0.0000       2.850072        77.5544 
 409   0.0000       2.858928        77.7954 
 410   0.0000       2.865560        77.9758 
 411   0.0000       2.877124        78.2905 
 412   0.0000       2.880339        78.3780 
 413   0.0000       2.902612        78.9841 
 414   0.0000       2.902965        78.9937 
 415   0.0000       2.915753        79.3417 
 416   0.0000       2.927949        79.6736 
 417   0.0000       2.936815        79.9148 
 418   0.0000       2.944144        80.1142 
 419   0.0000       2.951896        80.3252 
 420   0.0000       2.960470        80.5585 
 421   0.0000       2.976159        80.9854 
 422   0.0000       2.982527        81.1587 
 423   0.0000       2.994155        81.4751 
 424   0.0000       2.996280        81.5329 
 425   0.0000       3.009349        81.8885 
 426   0.0000       3.014567        82.0305 
 427   0.0000       3.023892        82.2843 
 428   0.0000       3.032886        82.5290 
 429   0.0000       3.040452        82.7349 
 430   0.0000       3.050786        83.0161 
 431   0.0000       3.053646        83.0939 
 432   0.0000       3.060323        83.2756 
 433   0.0000       3.068545        83.4993 
 434   0.0000       3.079379        83.7942 
 435   0.0000       3.084218        83.9258 
 436   0.0000       3.088451        84.0410 
 437   0.0000       3.092475        84.1505 
 438   0.0000       3.099717        84.3476 
 439   0.0000       3.105671        84.5096 
 440   0.0000       3.108617        84.5898 
 441   0.0000       3.116280        84.7983 
 442   0.0000       3.126862        85.0862 
 443   0.0000       3.132466        85.2387 
 444   0.0000       3.142824        85.5206 
 445   0.0000       3.148113        85.6645 
 446   0.0000       3.159177        85.9656 
 447   0.0000       3.178323        86.4866 
 448   0.0000       3.181169        86.5640 
 449   0.0000       3.186448        86.7077 
 450   0.0000       3.192752        86.8792 
 451   0.0000       3.201807        87.1256 
 452   0.0000       3.205883        87.2365 
 453   0.0000       3.214268        87.4647 
 454   0.0000       3.220975        87.6472 
 455   0.0000       3.226082        87.7861 
 456   0.0000       3.230405        87.9038 
 457   0.0000       3.243967        88.2728 
 458   0.0000       3.247467        88.3681 
 459   0.0000       3.256625        88.6173 
 460   0.0000       3.271271        89.0158 
 461   0.0000       3.273446        89.0750 
 462   0.0000       3.277371        89.1818 
 463   0.0000       3.289379        89.5086 
 464   0.0000       3.304140        89.9102 
 465   0.0000       3.304987        89.9333 
 466   0.0000       3.314026        90.1792 
 467   0.0000       3.317221        90.2662 
 468   0.0000       3.324023        90.4513 
 469   0.0000       3.327842        90.5552 
 470   0.0000       3.332990        90.6953 
 471   0.0000       3.335774        90.7710 
 472   0.0000       3.343326        90.9765 
 473   0.0000       3.351287        91.1932 
 474   0.0000       3.362428        91.4963 
 475   0.0000       3.364299        91.5472 
 476   0.0000       3.374669        91.8294 
 477   0.0000       3.376033        91.8665 
 478   0.0000       3.381134        92.0053 
 479   0.0000       3.390986        92.2734 
 480   0.0000       3.397551        92.4521 
 481   0.0000       3.398699        92.4833 
 482   0.0000       3.401350        92.5554 
 483   0.0000       3.403367        92.6103 
 484   0.0000       3.414533        92.9142 
 485   0.0000       3.415644        92.9444 
 486   0.0000       3.421747        93.1105 
 487   0.0000       3.428501        93.2942 
 488   0.0000       3.434047        93.4452 
 489   0.0000       3.440232        93.6135 
 490   0.0000       3.448998        93.8520 
 491   0.0000       3.449724        93.8718 
 492   0.0000       3.456946        94.0683 
 493   0.0000       3.458161        94.1014 
 494   0.0000       3.465567        94.3029 
 495   0.0000       3.472111        94.4809 
 496   0.0000       3.474367        94.5423 
 497   0.0000       3.486713        94.8783 
 498   0.0000       3.492314        95.0307 
 499   0.0000       3.501794        95.2887 
 500   0.0000       3.510441        95.5240 
 501   0.0000       3.512889        95.5906 
 502   0.0000       3.524052        95.8943 
 503   0.0000       3.537840        96.2695 
 504   0.0000       3.543088        96.4123 
 505   0.0000       3.552573        96.6704 
 506   0.0000       3.560417        96.8839 
 507   0.0000       3.568016        97.0906 
 508   0.0000       3.579268        97.3968 
 509   0.0000       3.589222        97.6677 
 510   0.0000       3.592409        97.7544 
 511   0.0000       3.599675        97.9521 
 512   0.0000       3.613875        98.3385 
 513   0.0000       3.616782        98.4176 
 514   0.0000       3.618315        98.4593 
 515   0.0000       3.624484        98.6272 
 516   0.0000       3.627843        98.7186 
 517   0.0000       3.632891        98.8560 
 518   0.0000       3.636995        98.9677 
 519   0.0000       3.642420        99.1153 
 520   0.0000       3.649691        99.3131 
 521   0.0000       3.651376        99.3590 
 522   0.0000       3.664241        99.7091 
 523   0.0000       3.668750        99.8318 
 524   0.0000       3.678587       100.0994 
 525   0.0000       3.685340       100.2832 
 526   0.0000       3.689791       100.4043 
 527   0.0000       3.692579       100.4802 
 528   0.0000       3.699241       100.6615 
 529   0.0000       3.701306       100.7177 
 530   0.0000       3.717246       101.1514 
 531   0.0000       3.723532       101.3224 
 532   0.0000       3.729619       101.4881 
 533   0.0000       3.742120       101.8283 
 534   0.0000       3.745067       101.9084 
 535   0.0000       3.750617       102.0595 
 536   0.0000       3.758892       102.2847 
 537   0.0000       3.762942       102.3949 
 538   0.0000       3.764895       102.4480 
 539   0.0000       3.768632       102.5497 
 540   0.0000       3.784475       102.9808 
 541   0.0000       3.786550       103.0373 
 542   0.0000       3.793915       103.2377 
 543   0.0000       3.800980       103.4299 
 544   0.0000       3.810705       103.6946 
 545   0.0000       3.817903       103.8904 
 546   0.0000       3.818868       103.9167 
 547   0.0000       3.824985       104.0831 
 548   0.0000       3.830003       104.2197 
 549   0.0000       3.840323       104.5005 
 550   0.0000       3.845316       104.6364 
 551   0.0000       3.865919       105.1970 
 552   0.0000       3.871500       105.3489 
 553   0.0000       3.875612       105.4608 
 554   0.0000       3.891920       105.9045 
 555   0.0000       3.904557       106.2484 
 556   0.0000       3.910767       106.4174 
 557   0.0000       3.916151       106.5639 
 558   0.0000       3.928890       106.9105 
 559   0.0000       3.937217       107.1371 
 560   0.0000       3.946310       107.3846 
 561   0.0000       3.954704       107.6130 
 562   0.0000       3.963980       107.8654 
 563   0.0000       3.970546       108.0441 
 564   0.0000       3.977679       108.2382 
 565   0.0000       3.981381       108.3389 
 566   0.0000       3.984693       108.4290 
 567   0.0000       3.987266       108.4990 
 568   0.0000       3.993673       108.6734 
 569   0.0000       4.014859       109.2499 
 570   0.0000       4.026443       109.5651 
 571   0.0000       4.031409       109.7002 
 572   0.0000       4.044789       110.0643 
 573   0.0000       4.052477       110.2735 
 574   0.0000       4.056702       110.3885 
 575   0.0000       4.074587       110.8752 
 576   0.0000       4.078112       110.9711 
 577   0.0000       4.083961       111.1302 
 578   0.0000       4.098513       111.5262 
 579   0.0000       4.099461       111.5520 
 580   0.0000       4.113434       111.9322 
 581   0.0000       4.118031       112.0573 
 582   0.0000       4.126599       112.2905 
 583   0.0000       4.131971       112.4367 
 584   0.0000       4.137936       112.5990 
 585   0.0000       4.148266       112.8801 
 586   0.0000       4.155087       113.0657 
 587   0.0000       4.158283       113.1526 
 588   0.0000       4.171049       113.5000 
 589   0.0000       4.176966       113.6610 
 590   0.0000       4.179238       113.7229 
 591   0.0000       4.185272       113.8870 
 592   0.0000       4.188209       113.9670 
 593   0.0000       4.194101       114.1273 
 594   0.0000       4.199608       114.2772 
 595   0.0000       4.209247       114.5394 
 596   0.0000       4.218664       114.7957 
 597   0.0000       4.229396       115.0877 
 598   0.0000       4.232031       115.1594 
 599   0.0000       4.240190       115.3814 
 600   0.0000       4.250155       115.6526 
 601   0.0000       4.258746       115.8864 
 602   0.0000       4.265356       116.0662 
 603   0.0000       4.273919       116.2992 
 604   0.0000       4.280721       116.4844 
 605   0.0000       4.291302       116.7723 
 606   0.0000       4.300199       117.0144 
 607   0.0000       4.303961       117.1167 
 608   0.0000       4.318128       117.5022 
 609   0.0000       4.324732       117.6819 
 610   0.0000       4.333657       117.9248 
 611   0.0000       4.345642       118.2509 
 612   0.0000       4.347511       118.3018 
 613   0.0000       4.355448       118.5178 
 614   0.0000       4.358158       118.5915 
 615   0.0000       4.364374       118.7606 
 616   0.0000       4.373802       119.0172 
 617   0.0000       4.375410       119.0610 
 618   0.0000       4.386489       119.3624 
 619   0.0000       4.391932       119.5105 
 620   0.0000       4.398462       119.6882 
 621   0.0000       4.405831       119.8887 
 622   0.0000       4.425473       120.4232 
 623   0.0000       4.427727       120.4846 
 624   0.0000       4.441601       120.8621 
 625   0.0000       4.449566       121.0788 
 626   0.0000       4.453268       121.1796 
 627   0.0000       4.464649       121.4893 
 628   0.0000       4.478249       121.8594 
 629   0.0000       4.484542       122.0306 
 630   0.0000       4.506934       122.6399 
 631   0.0000       4.512644       122.7953 
 632   0.0000       4.515295       122.8674 
 633   0.0000       4.522172       123.0546 
 634   0.0000       4.530032       123.2684 
 635   0.0000       4.542794       123.6157 
 636   0.0000       4.547310       123.7386 
 637   0.0000       4.550558       123.8270 
 638   0.0000       4.561477       124.1241 
 639   0.0000       4.569937       124.3543 
 640   0.0000       4.579519       124.6150 
 641   0.0000       4.581532       124.6698 
 642   0.0000       4.595127       125.0398 
 643   0.0000       4.607146       125.3668 
 644   0.0000       4.609916       125.4422 
 645   0.0000       4.626536       125.8945 
 646   0.0000       4.628011       125.9346 
 647   0.0000       4.642010       126.3155 
 648   0.0000       4.645078       126.3990 
 649   0.0000       4.645763       126.4176 
 650   0.0000       4.658924       126.7758 
 651   0.0000       4.660723       126.8247 
 652   0.0000       4.674160       127.1904 
 653   0.0000       4.680594       127.3654 
 654   0.0000       4.689190       127.5993 
 655   0.0000       4.698172       127.8438 
 656   0.0000       4.711009       128.1931 
 657   0.0000       4.718756       128.4039 
 658   0.0000       4.727593       128.6444 
 659   0.0000       4.737218       128.9063 
 660   0.0000       4.746647       129.1628 
 661   0.0000       4.775354       129.9440 
 662   0.0000       4.779188       130.0483 
 663   0.0000       4.782453       130.1372 
 664   0.0000       4.803150       130.7004 
 665   0.0000       4.825451       131.3072 
 666   0.0000       4.841437       131.7422 
 667   0.0000       4.847896       131.9180 
 668   0.0000       4.854731       132.1039 
 669   0.0000       4.877205       132.7155 
 670   0.0000       4.898901       133.3059 
 671   0.0000       4.907822       133.5486 
 672   0.0000       4.918889       133.8498 
 673   0.0000       4.937284       134.3503 
 674   0.0000       4.970183       135.2456 
 675   0.0000       4.988998       135.7575 
 676   0.0000       5.006380       136.2305 
 677   0.0000       5.018352       136.5563 
 678   0.0000       5.027517       136.8057 
 679   0.0000       5.049709       137.4096 
 680   0.0000       5.055100       137.5563 
 681   0.0000       5.073105       138.0462 
 682   0.0000       5.093040       138.5887 
 683   0.0000       5.100299       138.7862 
 684   0.0000       5.107645       138.9861 
 685   0.0000       5.114952       139.1849 
 686   0.0000       5.122076       139.3788 
 687   0.0000       5.141500       139.9073 
 688   0.0000       5.144496       139.9889 
 689   0.0000       5.153338       140.2295 
 690   0.0000       5.158205       140.3619 
 691   0.0000       5.169770       140.6766 
 692   0.0000       5.189762       141.2206 
 693   0.0000       5.202625       141.5706 
 694   0.0000       5.203042       141.5820 
 695   0.0000       5.213656       141.8708 
 696   0.0000       5.226884       142.2307 
 697   0.0000       5.230932       142.3409 
 698   0.0000       5.232754       142.3905 
 699   0.0000       5.252315       142.9227 
 700   0.0000       5.257119       143.0535 
 701   0.0000       5.272159       143.4627 
 702   0.0000       5.299509       144.2070 
 703   0.0000       5.313505       144.5878 
 704   0.0000       5.323793       144.8678 
 705   0.0000       5.338207       145.2600 
 706   0.0000       5.344002       145.4177 
 707   0.0000       5.351260       145.6152 
 708   0.0000       5.366433       146.0281 
 709   0.0000       5.380593       146.4134 
 710   0.0000       5.392479       146.7368 
 711   0.0000       5.403491       147.0365 
 712   0.0000       5.432199       147.8176 
 713   0.0000       5.450869       148.3257 
 714   0.0000       5.466455       148.7498 
 715   0.0000       5.485169       149.2591 
 716   0.0000       5.497158       149.5853 
 717   0.0000       5.505971       149.8251 
 718   0.0000       5.513589       150.0324 
 719   0.0000       5.530146       150.4829 
 720   0.0000       5.539386       150.7344 
 721   0.0000       5.539933       150.7492 
 722   0.0000       5.555231       151.1655 
 723   0.0000       5.568562       151.5283 
 724   0.0000       5.585260       151.9826 
 725   0.0000       5.599870       152.3802 
 726   0.0000       5.616259       152.8262 
 727   0.0000       5.629306       153.1812 
 728   0.0000       5.640120       153.4755 
 729   0.0000       5.642134       153.5303 
 730   0.0000       5.651733       153.7915 
 731   0.0000       5.656805       153.9295 
 732   0.0000       5.662290       154.0787 
 733   0.0000       5.672748       154.3633 
 734   0.0000       5.706096       155.2708 
 735   0.0000       5.709452       155.3621 
 736   0.0000       5.722964       155.7298 
 737   0.0000       5.728027       155.8675 
 738   0.0000       5.734386       156.0406 
 739   0.0000       5.751070       156.4946 
 740   0.0000       5.757836       156.6787 
 741   0.0000       5.782062       157.3379 
 742   0.0000       5.785291       157.4258 
 743   0.0000       5.795014       157.6903 
 744   0.0000       5.818307       158.3242 
 745   0.0000       5.843725       159.0158 
 746   0.0000       5.867911       159.6740 
 747   0.0000       5.869231       159.7099 
 748   0.0000       5.902625       160.6186 
 749   0.0000       5.928954       161.3351 
 750   0.0000       5.933326       161.4540 
 751   0.0000       5.973258       162.5406 
 752   0.0000       5.981176       162.7561 
 753   0.0000       5.995900       163.1567 
 754   0.0000       6.013140       163.6258 
 755   0.0000       6.024162       163.9258 
 756   0.0000       6.055115       164.7680 
 757   0.0000       6.060017       164.9015 
 758   0.0000       6.082306       165.5080 
 759   0.0000       6.096224       165.8867 
 760   0.0000       6.098276       165.9425 
 761   0.0000       6.175750       168.0507 
 762   0.0000       6.218006       169.2005 
 763   0.0000       6.230173       169.5316 
 764   0.0000       6.254500       170.1936 
 765   0.0000       6.258198       170.2942 
 766   0.0000       6.286565       171.0661 
 767   0.0000       6.319458       171.9612 
 768   0.0000       6.349148       172.7691 
 769   0.0000       6.350587       172.8083 
 770   0.0000       6.368715       173.3016 
 771   0.0000       6.382795       173.6847 
 772   0.0000       6.405536       174.3035 
 773   0.0000       6.443112       175.3260 
 774   0.0000       6.457553       175.7190 
 775   0.0000       6.460942       175.8112 
 776   0.0000       6.502876       176.9523 
 777   0.0000       6.558435       178.4641 
 778   0.0000       6.587349       179.2509 
 779   0.0000       6.607054       179.7871 
 780   0.0000       6.635620       180.5644 
 781   0.0000       6.676606       181.6797 
 782   0.0000       6.725739       183.0167 
 783   0.0000       6.754846       183.8087 
 784   0.0000       6.796062       184.9303 
 785   0.0000       6.895711       187.6418 
 786   0.0000       6.913670       188.1305 
 787   0.0000       6.924925       188.4368 
 788   0.0000       6.972272       189.7252 
 789   0.0000       6.986007       190.0989 
 790   0.0000       7.055547       191.9912 
 791   0.0000       7.063713       192.2134 
 792   0.0000       7.084100       192.7682 
 793   0.0000       7.137258       194.2147 
 794   0.0000       7.207752       196.1329 
 795   0.0000       7.261268       197.5891 
 796   0.0000       7.273215       197.9142 
 797   0.0000       7.283824       198.2029 
 798   0.0000       7.342614       199.8027 
 799   0.0000       7.381940       200.8728 
 800   0.0000       7.393808       201.1957 
 801   0.0000       7.563560       205.8149 
 802   0.0000       7.580090       206.2647 
 803   0.0000       7.589159       206.5115 
 804   0.0000       7.645491       208.0444 
 805   0.0000       7.813239       212.6091 
 806   0.0000       7.823295       212.8827 
 807   0.0000       7.911511       215.2832 
 808   0.0000       7.935958       215.9484 
 809   0.0000       9.362647       254.7706 
 810   0.0000       9.539394       259.5801 
 811   0.0000      10.839822       294.9665 
 812   0.0000      11.271052       306.7009 
 813   0.0000      11.889508       323.5300 
 814   0.0000      12.596810       342.7766 
 815   0.0000      12.920891       351.5953 
 816   0.0000      13.074808       355.7836 
 817   0.0000      13.135899       357.4460 
 818   0.0000      13.210304       359.4706 
 819   0.0000      13.401726       364.6795 
 820   0.0000      13.482513       366.8778 
 821   0.0000      13.714428       373.1885 
 822   0.0000      13.929585       379.0433 
 823   0.0000      13.948665       379.5625 
 824   0.0000      14.043602       382.1458 
 825   0.0000      14.555801       396.0835 
 826   0.0000      14.672919       399.2704 
 827   0.0000      15.964098       434.4052 

                    ********************************
                    * MULLIKEN POPULATION ANALYSIS *
                    ********************************

-----------------------
MULLIKEN ATOMIC CHARGES
-----------------------
   0 C :   -0.284479
   1 C :    0.044607
   2 O :   -0.359444
   3 C :    0.439684
   4 O :   -0.409501
   5 C :   -0.181394
   6 C :    0.139751
   7 C :   -0.285325
   8 N :   -0.124915
   9 C :    0.204624
  10 S :   -0.440463
  11 N :   -0.200350
  12 C :    0.051905
  13 C :    0.051951
  14 C :   -0.160934
  15 C :   -0.132645
  16 C :   -0.280912
  17 C :    0.314810
  18 O :   -0.359813
  19 C :   -0.284609
  20 H :    0.103671
  21 H :    0.103510
  22 H :    0.091923
  23 H :    0.104158
  24 H :    0.100016
  25 H :    0.125031
  26 H :    0.105159
  27 H :    0.125788
  28 H :    0.197039
  29 H :    0.194211
  30 H :    0.154008
  31 H :    0.154167
  32 H :    0.160500
  33 H :    0.129715
  34 H :    0.240877
  35 H :    0.167678
Sum of atomic charges:   -0.0000000

--------------------------------
MULLIKEN REDUCED ORBITAL CHARGES
--------------------------------
  0 C s       :     3.258744  s :     3.258744
      pz      :     1.002158  p :     2.947698
      px      :     0.930300
      py      :     1.015240
      dz2     :     0.015571  d :     0.073541
      dxz     :     0.013122
      dyz     :     0.017627
      dx2y2   :     0.008688
      dxy     :     0.018532
      f0      :     0.000442  f :     0.004497
      f+1     :     0.000453
      f-1     :     0.001074
      f+2     :     0.000426
      f-2     :     0.000662
      f+3     :     0.000762
      f-3     :     0.000678
  1 C s       :     3.172895  s :     3.172895
      pz      :     1.006612  p :     2.618206
      px      :     0.832732
      py      :     0.778862
      dz2     :     0.021875  d :     0.152498
      dxz     :     0.023962
      dyz     :     0.036263
      dx2y2   :     0.031514
      dxy     :     0.038884
      f0      :     0.001445  f :     0.011794
      f+1     :     0.000888
      f-1     :     0.001722
      f+2     :     0.000561
      f-2     :     0.002044
      f+3     :     0.002284
      f-3     :     0.002848
  2 O s       :     3.716289  s :     3.716289
      pz      :     1.727728  p :     4.607932
      px      :     1.319184
      py      :     1.561019
      dz2     :     0.003806  d :     0.032920
      dxz     :     0.007523
      dyz     :     0.003726
      dx2y2   :     0.011755
      dxy     :     0.006111
      f0      :     0.000259  f :     0.002303
      f+1     :     0.000348
      f-1     :     0.000167
      f+2     :     0.000440
      f-2     :     0.000199
[...]
 15 C s       :     2.705804  s :     2.705804
      pz      :     0.890794  p :     2.796165
      px      :     0.945345
      py      :     0.960026
      dz2     :     0.085791  d :     0.415679
      dxz     :     0.072859
      dyz     :     0.053462
      dx2y2   :     0.103414
      dxy     :     0.100154
      f0      :     0.003074  f :     0.040998
      f+1     :     0.005272
      f-1     :     0.005445
      f+2     :     0.007242
      f-2     :     0.005983
      f+3     :     0.007231
      f-3     :     0.006751
 16 C s       :     2.701859  s :     2.701859
      pz      :     0.933727  p :     2.869150
      px      :     0.969065
      py      :     0.966358
      dz2     :     0.039884  d :     0.390931
      dxz     :     0.062465
      dyz     :     0.079516
      dx2y2   :     0.096787
      dxy     :     0.112279
      f0      :     0.003924  f :     0.040319
      f+1     :     0.005044
      f-1     :     0.003360
      f+2     :     0.005747
      f-2     :     0.005359
      f+3     :     0.008102
      f-3     :     0.008783
 17 C s       :     2.701528  s :     2.701528
      pz      :     0.851179  p :     2.684490
      px      :     0.820417
      py      :     1.012894
      dz2     :     0.118803  d :     0.708332
      dxz     :     0.118620
      dyz     :     0.123940
      dx2y2   :     0.174987
      dxy     :     0.171982
      f0      :     0.008332  f :     0.099253
      f+1     :     0.016841
      f-1     :     0.007765
      f+2     :     0.015474
      f-2     :     0.014218
      f+3     :     0.016203
      f-3     :     0.020421
 18 O s       :     3.177262  s :     3.177262
      pz      :     1.452359  p :     4.348987
      px      :     1.399261
      py      :     1.497368
      dz2     :     0.007497  d :     0.075564
      dxz     :     0.017413
      dyz     :     0.016483
      dx2y2   :     0.018573
      dxy     :     0.015599
      f0      :     0.000567  f :     0.005076
      f+1     :     0.000762
      f-1     :     0.000338
      f+2     :     0.000736
      f-2     :     0.000859
      f+3     :     0.000791
      f-3     :     0.001022
 19 C s       :     2.695234  s :     2.695234
      pz      :     0.928415  p :     2.847233
      px      :     0.959318
      py      :     0.959500
      dz2     :     0.070177  d :     0.388584
      dxz     :     0.069269
      dyz     :     0.056102
      dx2y2   :     0.091566
      dxy     :     0.101470
      f0      :     0.003191  f :     0.040828
      f+1     :     0.005254
      f-1     :     0.005060
      f+2     :     0.007288
      f-2     :     0.006483
      f+3     :     0.007192
      f-3     :     0.006360
 20 H s       :     0.848272  s :     0.848272
      pz      :     0.066428  p :     0.150512
      px      :     0.037452
      py      :     0.046632
      dz2     :     0.008875  d :     0.027486
      dxz     :     0.006802
      dyz     :     0.007808
      dx2y2   :     0.001677
      dxy     :     0.002323
 21 H s       :     0.845903  s :     0.845903
      pz      :     0.040017  p :     0.150591
      px      :     0.052262
      py      :     0.058312
      dz2     :     0.002278  d :     0.027391
      dxz     :     0.003378
      dyz     :     0.006179
      dx2y2   :     0.008611
      dxy     :     0.006945
 22 H s       :     0.851930  s :     0.851930
      pz      :     0.053252  p :     0.151142
      px      :     0.044376
      py      :     0.053514
      dz2     :     0.007033  d :     0.027491
      dxz     :     0.004567
      dyz     :     0.005901
      dx2y2   :     0.004910
      dxy     :     0.005081
 23 H s       :     0.850009  s :     0.850009
      pz      :     0.058250  p :     0.147364
      px      :     0.040239
      py      :     0.048875
      dz2     :     0.007690  d :     0.027236
      dxz     :     0.003690
      dyz     :     0.006807
      dx2y2   :     0.004045
      dxy     :     0.005003
 24 H s       :     0.858072  s :     0.858072
      pz      :     0.069455  p :     0.144687
      px      :     0.034442
      py      :     0.040790
      dz2     :     0.008104  d :     0.026746
      dxz     :     0.006549
      dyz     :     0.008231
      dx2y2   :     0.001675
      dxy     :     0.002187
 25 H s       :     0.830317  s :     0.830317
      pz      :     0.064602  p :     0.150089
      px      :     0.042845
      py      :     0.042641
      dz2     :     0.008976  d :     0.027690
      dxz     :     0.007377
      dyz     :     0.006856
      dx2y2   :     0.002824
      dxy     :     0.001658
 26 H s       :     0.842293  s :     0.842293
      pz      :     0.037157  p :     0.150009
      px      :     0.039732
      py      :     0.073121
      dz2     :     0.002298  d :     0.027689
      dxz     :     0.000201
      dyz     :     0.009091
      dx2y2   :     0.006758
      dxy     :     0.009341
 27 H s       :     0.830766  s :     0.830766
      pz      :     0.038368  p :     0.151912
      px      :     0.069137
      py      :     0.044407
      dz2     :     0.002456  d :     0.027724
      dxz     :     0.008164
      dyz     :     0.000841
      dx2y2   :     0.008596
      dxy     :     0.007666
 28 H s       :     0.743037  s :     0.743037
      pz      :     0.058898  p :     0.254022
      px      :     0.084115
      py      :     0.111009
      dz2     :     0.005874  d :     0.061840
      dxz     :     0.003675
      dyz     :     0.015603
      dx2y2   :     0.018511
      dxy     :     0.018177
 29 H s       :     0.748564  s :     0.748564
      pz      :     0.111879  p :     0.254087
      px      :     0.097990
      py      :     0.044219
      dz2     :     0.020894  d :     0.061345
      dxz     :     0.015630
      dyz     :     0.009960
      dx2y2   :     0.008739
      dxy     :     0.006122
 30 H s       :     0.828214  s :     0.828214
      pz      :     0.041071  p :     0.148291
      px      :     0.067621
      py      :     0.039599
      dz2     :     0.003239  d :     0.028325
      dxz     :     0.007826
      dyz     :     0.002698
      dx2y2   :     0.007265
      dxy     :     0.007297
 31 H s       :     0.841610  s :     0.841610
      pz      :     0.051728  p :     0.155895
      px      :     0.068281
      py      :     0.035886
      dz2     :     0.004805  d :     0.027456
      dxz     :     0.007209
      dyz     :     0.002753
      dx2y2   :     0.006179
      dxy     :     0.006510
 32 H s       :     0.842901  s :     0.842901
      pz      :     0.037645  p :     0.151261
      px      :     0.041556
      py      :     0.072060
      dz2     :     0.002683  d :     0.026469
      dxz     :     0.001285
      dyz     :     0.006715
      dx2y2   :     0.007860
      dxy     :     0.007926
 33 H s       :     0.848994  s :     0.848994
      pz      :     0.058180  p :     0.159161
      px      :     0.046267
      py      :     0.054713
      dz2     :     0.005986  d :     0.027770
      dxz     :     0.004527
      dyz     :     0.006177
      dx2y2   :     0.005769
      dxy     :     0.005310
 34 H s       :     0.706724  s :     0.706724
      pz      :     0.116886  p :     0.347963
      px      :     0.081245
      py      :     0.149833
      dz2     :     0.023865  d :     0.099595
      dxz     :     0.011388
      dyz     :     0.024579
      dx2y2   :     0.020332
      dxy     :     0.019431
 35 H s       :     0.839766  s :     0.839766
      pz      :     0.040994  p :     0.157042
      px      :     0.043020
      py      :     0.073028
      dz2     :     0.002728  d :     0.028050
      dxz     :     0.001523
      dyz     :     0.007381
      dx2y2   :     0.008227
      dxy     :     0.008190


                      *****************************
                      * MAYER POPULATION ANALYSIS *
                      *****************************

  NA   - Mulliken gross atomic population
  ZA   - Total nuclear charge
  QA   - Mulliken gross atomic charge
  VA   - Mayer's total valence
  BVA  - Mayer's bonded valence
  FA   - Mayer's free valence

  ATOM       NA         ZA         QA         VA         BVA        FA
  0 C      6.2845     6.0000    -0.2845     3.8891     3.8891     0.0000
  1 C      5.9554     6.0000     0.0446     3.8609     3.8609    -0.0000
  2 O      8.3594     8.0000    -0.3594     2.0202     2.0202     0.0000
  3 C      5.5603     6.0000     0.4397     4.2105     4.2105    -0.0000
  4 O      8.4095     8.0000    -0.4095     2.1008     2.1008    -0.0000
  5 C      6.1814     6.0000    -0.1814     3.6301     3.6301    -0.0000
  6 C      5.8602     6.0000     0.1398     3.8357     3.8357     0.0000
  7 C      6.2853     6.0000    -0.2853     3.8942     3.8942    -0.0000
  8 N      7.1249     7.0000    -0.1249     3.2891     3.2891    -0.0000
  9 C      5.7954     6.0000     0.2046     4.1541     4.1541     0.0000
 10 S     16.4405    16.0000    -0.4405     1.7549     1.7549     0.0000
 11 N      7.2003     7.0000    -0.2003     3.2593     3.2593     0.0000
 12 C      5.9481     6.0000     0.0519     3.9616     3.9616    -0.0000
 13 C      5.9480     6.0000     0.0520     3.7369     3.7369     0.0000
 14 C      6.1609     6.0000    -0.1609     3.8646     3.8646    -0.0000
 15 C      6.1326     6.0000    -0.1326     3.8070     3.8070    -0.0000
 16 C      6.2809     6.0000    -0.2809     3.7953     3.7953    -0.0000
 17 C      5.6852     6.0000     0.3148     3.8707     3.8707    -0.0000
 18 O      8.3598     8.0000    -0.3598     2.1139     2.1139    -0.0000
 19 C      6.2846     6.0000    -0.2846     3.8468     3.8468    -0.0000
 20 H      0.8963     1.0000     0.1037     0.9814     0.9814    -0.0000
 21 H      0.8965     1.0000     0.1035     0.9850     0.9850     0.0000
 22 H      0.9081     1.0000     0.0919     0.9808     0.9808    -0.0000
 23 H      0.8958     1.0000     0.1042     0.9841     0.9841     0.0000
 24 H      0.9000     1.0000     0.1000     0.9789     0.9789     0.0000
 25 H      0.8750     1.0000     0.1250     0.9834     0.9834    -0.0000
 26 H      0.8948     1.0000     0.1052     0.9862     0.9862    -0.0000
 27 H      0.8742     1.0000     0.1258     0.9749     0.9749    -0.0000
 28 H      0.8030     1.0000     0.1970     1.0228     1.0228    -0.0000
 29 H      0.8058     1.0000     0.1942     1.0183     1.0183     0.0000
 30 H      0.8460     1.0000     0.1540     0.9959     0.9959    -0.0000
 31 H      0.8458     1.0000     0.1542     0.9882     0.9882    -0.0000
 32 H      0.8395     1.0000     0.1605     0.9772     0.9772    -0.0000
 33 H      0.8703     1.0000     0.1297     0.9918     0.9918    -0.0000
 34 H      0.7591     1.0000     0.2409     1.0107     1.0107     0.0000
 35 H      0.8323     1.0000     0.1677     0.9867     0.9867     0.0000

  Mayer bond orders larger than 0.100000
B(  0-C ,  1-C ) :   0.9695 B(  0-C , 20-H ) :   0.9748 B(  0-C , 21-H ) :   0.9784 
B(  0-C , 22-H ) :   0.9780 B(  1-C ,  2-O ) :   0.8946 B(  1-C , 23-H ) :   0.9704 
B(  1-C , 24-H ) :   0.9850 B(  2-O ,  3-C ) :   1.1207 B(  3-C ,  4-O ) :   2.0146 
B(  3-C ,  5-C ) :   1.0316 B(  5-C ,  6-C ) :   1.6635 B(  5-C , 12-C ) :   0.9659 
B(  6-C ,  7-C ) :   0.9541 B(  6-C ,  8-N ) :   1.1417 B(  7-C , 25-H ) :   0.9693 
B(  7-C , 26-H ) :   0.9887 B(  7-C , 27-H ) :   0.9637 B(  8-N ,  9-C ) :   1.1838 
B(  8-N , 28-H ) :   0.9495 B(  9-C , 10-S ) :   1.6095 B(  9-C , 11-N ) :   1.3015 
B( 11-N , 12-C ) :   0.9924 B( 11-N , 29-H ) :   0.9517 B( 12-C , 13-C ) :   0.9442 
B( 12-C , 30-H ) :   0.9983 B( 13-C , 14-C ) :   1.3758 B( 13-C , 19-C ) :   1.3677 
B( 14-C , 15-C ) :   1.3938 B( 14-C , 31-H ) :   0.9648 B( 15-C , 16-C ) :   1.3635 
B( 15-C , 32-H ) :   0.9710 B( 16-C , 17-C ) :   1.3317 B( 16-C , 33-H ) :   0.9853 
B( 17-C , 18-O ) :   1.1078 B( 17-C , 19-C ) :   1.3743 B( 18-O , 34-H ) :   0.9802 
B( 19-C , 35-H ) :   0.9582 

-------
TIMINGS
-------

Total SCF time: 0 days 2 hours 0 min 29 sec 

Total time                  ....    7229.904 sec
Sum of individual times     ....    7218.492 sec  ( 99.8%)

Fock matrix formation       ....    7178.767 sec  ( 99.3%)
Diagonalization             ....       1.965 sec  (  0.0%)
Density matrix formation    ....       0.261 sec  (  0.0%)
Population analysis         ....       1.542 sec  (  0.0%)
Initial guess               ....       6.862 sec  (  0.1%)
Orbital Transformation      ....       0.000 sec  (  0.0%)
Orbital Orthonormalization  ....       0.000 sec  (  0.0%)
DIIS solution               ....      20.689 sec  (  0.3%)
SOSCF solution              ....       6.934 sec  (  0.1%)

Maximum memory used throughout the entire SCF-calculation: 740.9 MB

------------------------------------------------------------------------------
                                ORCA  MP2 
------------------------------------------------------------------------------

Freezing NCore=48 chemical core electrons

-------------
RI-MP2 ENERGY
-------------
Dimension of the basis                    ...  828
Memory devoted to MP2                     ...  256 MB   
Data format for buffers                   ... DOUBLE
Compression type for matrix containers    ... UNCOMPRESSED
Overall scaling of the MP2 energy         ...   1.000e+00
Calculating two index integrals           ... done (    0.062 sec)
Cholesky decomposition of V**-1           ... done (    0.824 sec)

-----------------
RI-TRANSFORMATION (AUX index driven)
-----------------

Dimension of the orbital-basis         ... 828
Dimension of the aux-basis             ... 2141
Transformation of internal/external MOs...   24-  76 to   77- 827
Number Format for Storage              ... Double (8 Byte)
Integral mode                          ... Direct

First Phase: integral generation and transformation of MO indices
  Aux angular momentum 0               ... done (    6.395 sec)
  Aux angular momentum 1               ... done (   11.151 sec)
  Aux angular momentum 2               ... done (   14.130 sec)
  Aux angular momentum 3               ... done (   12.111 sec)
  Aux angular momentum 4               ... done (    4.795 sec)
Closing buffer VIA ( 0.63 GB; CompressionRatio= 1.00)
  Phase 1 completed in    49.582 sec
Second Phase: sorting and transformation of aux index

IA-Transformation
Memory available                       ... 157 MB 
Max. # MO pairs treated in a batch     ... 11    
# of internal orbitals                 ... 53
# batches for internal orbitals        ... 5
Closing buffer IAV ( 0.63 GB; CompressionRatio= 1.00)
(ia|v) transformation done in   223.707 sec

  Phase 2 completed in   223.718 sec
RI-Integral transformation completed in   273.364 sec
Opening buffers                              ... done

Starting loop over batches of integrals:

Operator 0  - window                       ... ( 24- 76)x( 77-827)
Operator 0  - Memory available             ...   256 MB
Operator 0  - Memory needed per MO         ...  12.3 MB
Operator 0  - Number of orbitals per batch ... 13
Operator 0  - Number of batches            ... 5

OPERATOR  0   PASS   0:  MOs    24 ...   36
  Reading integrals       ... ok
  Internal MO  26
  Internal MO  29
  Internal MO  32
  Internal MO  35
OPERATOR  0   PASS   1:  MOs    37 ...   49
  Reading integrals       ... ok
  Internal MO  38
  Internal MO  41
  Internal MO  44
  Internal MO  47
OPERATOR  0   PASS   2:  MOs    50 ...   62
  Reading integrals       ... ok
  Internal MO  50
  Internal MO  53
  Internal MO  56
  Internal MO  59
  Internal MO  62
OPERATOR  0   PASS   3:  MOs    63 ...   75
  Reading integrals       ... ok
  Internal MO  65
  Internal MO  68
  Internal MO  71
  Internal MO  74
OPERATOR  0   PASS   4:  MOs    76 ...   76
  Reading integrals       ... ok
Time spent in pair loops =   134.159 sec
Deleting buffer (Ka|jb)[aa] ...done

-----------------------------------------------
 RI-MP2 CORRELATION ENERGY:     -3.532603111 Eh
-----------------------------------------------


-------
TIMINGS
-------

Total time                :  408.686 sec
Integral trafo            :  273.392 sec ( 66.9%)
I/O of integrals          :    4.265 sec (  1.0%)
K(i,j) Operators          :   80.813 sec ( 19.8%)
T(i,j) pair energies      :    2.953 sec (  0.7%)
V-calculation             :    0.062 sec (  0.0%)
V**(-1/2)                 :    0.824 sec (  0.2%)
Gamma(ia|P)               :    0.000 sec (  0.0%)
Gamma-Trafo               :    0.000 sec (  0.0%)
D(virtual)                :    0.000 sec (  0.0%)
D(internal)               :    0.000 sec (  0.0%)
W(virtual)                :    0.000 sec (  0.0%)
W(internal)               :    0.000 sec (  0.0%)
L(virtual)                :    0.000 sec (  0.0%)
L(internal)               :    0.000 sec (  0.0%)
G(D)                      :    0.000 sec (  0.0%)
G(Z)                      :    0.000 sec (  0.0%)
Z-Vector Solution         :    0.000 sec (  0.0%)
3-Index Derivative        :    0.000 sec (  0.0%)
2-Index Derivative        :    0.000 sec (  0.0%)
Separable Gradient        :    0.000 sec (  0.0%)


---------------------------------------
MP2 TOTAL ENERGY:    -1274.334790068 Eh
---------------------------------------

Maximum memory used throughout the entire MP2-calculation: 304.8 MB

-------------------------   --------------------
FINAL SINGLE POINT ENERGY     -1274.334790068024
-------------------------   --------------------


                            ***************************************
                            *     ORCA property calculations      *
                            ***************************************


  WARNING: The energy has been calculated at the MP2 level but the densities
           used in the property calculations are still SCF densities
           MP2 response densities have not been calculated 
           use %mp2 Density relaxed end
           or  %mp2 Density unrelaxed end

                                    ---------------------
                                    Active property flags
                                    ---------------------
   (+) Dipole Moment


------------------------------------------------------------------------------
                       ORCA ELECTRIC PROPERTIES CALCULATION
------------------------------------------------------------------------------

Dipole Moment Calculation                       ... on
Quadrupole Moment Calculation                   ... off
Polarizability Calculation                      ... off
GBWName                                         ... CONFS/Conf812.orca.gbw
Electron density file                           ... CONFS/Conf812.orca.scfp
The origin for moment calculation is the CENTER OF MASS  = (32.896335, 31.427619 35.322992)

-------------
DIPOLE MOMENT
-------------
                                X             Y             Z
Electronic contribution:     11.56356       8.22860       7.58883
Nuclear contribution   :    -12.92051      -9.56763      -8.36119
                        -----------------------------------------
Total Dipole Moment    :     -1.35695      -1.33902      -0.77236
                        -----------------------------------------
Magnitude (a.u.)       :      2.05690
Magnitude (Debye)      :      5.22823



--------------------
Rotational spectrum 
--------------------
 
Rotational constants in cm-1:     0.011243     0.009215     0.006599 
Rotational constants in MHz :   337.060805   276.269735   197.829661 

 Dipole components along the rotational axes: 
x,y,z [a.u.] :    -1.820073     0.709411     0.644138 
x,y,z [Debye]:    -4.626257     1.803180     1.637268 

 

Timings for individual modules:

Sum of individual times         ...     7645.252 sec (= 127.421 min)
GTO integral calculation        ...        4.226 sec (=   0.070 min)   0.1 %
SCF iterations                  ...     7230.212 sec (= 120.504 min)  94.6 %
MP2 module                      ...      410.814 sec (=   6.847 min)   5.4 %
                             ****ORCA TERMINATED NORMALLY****
TOTAL RUN TIME: 0 days 2 hours 7 minutes 26 seconds 912 msec
