
                                        *****************
                                        * O   R   C   A *
                                        *****************

                                            #,                                       
                                            ###                                      
                                            ####                                     
                                            #####                                    
                                            ######                                   
                                           ########,                                 
                                     ,,################,,,,,                         
                               ,,#################################,,                 
                          ,,##########################################,,             
                       ,#########################################, ''#####,          
                    ,#############################################,,   '####,        
                  ,##################################################,,,,####,       
                ,###########''''           ''''###############################       
              ,#####''   ,,,,##########,,,,          '''####'''          '####       
            ,##' ,,,,###########################,,,                        '##       
           ' ,,###''''                  '''############,,,                           
         ,,##''                                '''############,,,,        ,,,,,,###''
      ,#''                                            '''#######################'''  
     '                                                          ''''####''''         
             ,#######,   #######,   ,#######,      ##                                
            ,#'     '#,  ##    ##  ,#'     '#,    #''#        ######   ,####,        
            ##       ##  ##   ,#'  ##            #'  '#       #        #'  '#        
            ##       ##  #######   ##           ,######,      #####,   #    #        
            '#,     ,#'  ##    ##  '#,     ,#' ,#      #,         ##   #,  ,#        
             '#######'   ##     ##  '#######'  #'      '#     #####' # '####'        



                  #######################################################
                  #                        -***-                        #
                  #          Department of theory and spectroscopy      #
                  #    Directorship and core code : Frank Neese         #
                  #        Max Planck Institute fuer Kohlenforschung    #
                  #                Kaiser Wilhelm Platz 1               #
                  #                 D-45470 Muelheim/Ruhr               #
                  #                      Germany                        #
                  #                                                     #
                  #                  All rights reserved                #
                  #                        -***-                        #
                  #######################################################


                         Program Version 5.0.0 -  RELEASE  -
                                (SVN: $Rev: 19529$)
                ($Date: 2021-06-28 11:36:33 +0200 (Mo, 28 Jun 2021) $)


 With contributions from (in alphabetic order):
   Daniel Aravena         : Magnetic Suceptibility
   Michael Atanasov       : Ab Initio Ligand Field Theory (pilot matlab implementation)
   Alexander A. Auer      : GIAO ZORA, VPT2 properties, NMR spectrum
   Ute Becker             : Parallelization
   Giovanni Bistoni       : ED, misc. LED, open-shell LED, HFLD
   Martin Brehm           : Molecular dynamics
   Dmytro Bykov           : SCF Hessian
   Vijay G. Chilkuri      : MRCI spin determinant printing, contributions to CSF-ICE
   Dipayan Datta          : RHF DLPNO-CCSD density
   Achintya Kumar Dutta   : EOM-CC, STEOM-CC
   Dmitry Ganyushin       : Spin-Orbit,Spin-Spin,Magnetic field MRCI
   Miquel Garcia          : C-PCM Hessian, Gaussian charge scheme
   Yang Guo               : DLPNO-NEVPT2, F12-NEVPT2, CIM, IAO-localization
   Andreas Hansen         : Spin unrestricted coupled pair/coupled cluster methods
   Benjamin Helmich-Paris : MC-RPA, TRAH-SCF, COSX integrals
   Lee Huntington         : MR-EOM, pCC
   Robert Izsak           : Overlap fitted RIJCOSX, COSX-SCS-MP3, EOM
   Marcus Kettner         : VPT2
   Christian Kollmar      : KDIIS, OOCD, Brueckner-CCSD(T), CCSD density, CASPT2, CASPT2-K
   Simone Kossmann        : Meta GGA functionals, TD-DFT gradient, OOMP2, MP2 Hessian
   Martin Krupicka        : Initial AUTO-CI
   Lucas Lang             : DCDCAS
   Marvin Lechner         : AUTO-CI (C++ implementation), FIC-MRCC
   Dagmar Lenk            : GEPOL surface, SMD
   Dimitrios Liakos       : Extrapolation schemes; Compound Job, initial MDCI parallelization
   Dimitrios Manganas     : Further ROCIS development; embedding schemes
   Dimitrios Pantazis     : SARC Basis sets
   Anastasios Papadopoulos: AUTO-CI, single reference methods and gradients
   Taras Petrenko         : DFT Hessian,TD-DFT gradient, ASA, ECA, R-Raman, ABS, FL, XAS/XES, NRVS
   Peter Pinski           : DLPNO-MP2, DLPNO-MP2 Gradient
   Christoph Reimann      : Effective Core Potentials
   Marius Retegan         : Local ZFS, SOC
   Christoph Riplinger    : Optimizer, TS searches, QM/MM, DLPNO-CCSD(T), (RO)-DLPNO pert. Triples
   Tobias Risthaus        : Range-separated hybrids, TD-DFT gradient, RPA, STAB
   Michael Roemelt        : Original ROCIS implementation
   Masaaki Saitow         : Open-shell DLPNO-CCSD energy and density
   Barbara Sandhoefer     : DKH picture change effects
   Avijit Sen             : IP-ROCIS
   Kantharuban Sivalingam : CASSCF convergence, NEVPT2, FIC-MRCI
   Bernardo de Souza      : ESD, SOC TD-DFT
   Georgi Stoychev        : AutoAux, RI-MP2 NMR
   Willem Van den Heuvel  : Paramagnetic NMR
   Boris Wezisla          : Elementary symmetry handling
   Frank Wennmohs         : Technical directorship


 We gratefully acknowledge several colleagues who have allowed us to
 interface, adapt or use parts of their codes:
   Stefan Grimme, W. Hujo, H. Kruse, P. Pracht,  : VdW corrections, initial TS optimization,
                  C. Bannwarth, S. Ehlert          DFT functionals, gCP, sTDA/sTD-DF
   Ed Valeev, F. Pavosevic, A. Kumar             : LibInt (2-el integral package), F12 methods
   Garnet Chan, S. Sharma, J. Yang, R. Olivares  : DMRG
   Ulf Ekstrom                                   : XCFun DFT Library
   Mihaly Kallay                                 : mrcc  (arbitrary order and MRCC methods)
   Jiri Pittner, Ondrej Demel                    : Mk-CCSD
   Frank Weinhold                                : gennbo (NPA and NBO analysis)
   Christopher J. Cramer and Donald G. Truhlar   : smd solvation model
   Lars Goerigk                                  : TD-DFT with DH, B97 family of functionals
   V. Asgeirsson, H. Jonsson                     : NEB implementation
   FAccTs GmbH                                   : IRC, NEB, NEB-TS, DLPNO-Multilevel, CI-OPT
                                                   MM, QMMM, 2- and 3-layer-ONIOM, Crystal-QMMM,
                                                   LR-CPCM, SF, NACMEs, symmetry and pop. for TD-DFT,
                                                   nearIR, NL-DFT gradient (VV10), updates on ESD,
                                                   ML-optimized integration grids
   S Lehtola, MJT Oliveira, MAL Marques          : LibXC Library
   Liviu Ungur et al                             : ANISO software


 Your calculation uses the libint2 library for the computation of 2-el integrals
 For citations please refer to: http://libint.valeyev.net

 Your ORCA version has been built with support for libXC version: 5.1.0
 For citations please refer to: https://tddft.org/programs/libxc/

 This ORCA versions uses:
   CBLAS   interface :  Fast vector & matrix operations
   LAPACKE interface :  Fast linear algebra routines
   SCALAPACK package :  Parallel linear algebra routines
   Shared memory     :  Shared parallel matrices
   BLAS/LAPACK       :  OpenBLAS 0.3.15  USE64BITINT DYNAMIC_ARCH NO_AFFINITY SkylakeX SINGLE_THREADED
        Core in use  :  SkylakeX
   Copyright (c) 2011-2014, The OpenBLAS Project


================================================================================

----- Orbital basis set information -----
Your calculation utilizes the basis: cc-pVTZ 
       H, B-Ne : Obtained from the ccRepo (grant-hill.group.shef.ac.uk/ccrepo) Feb. 2017
                 T. H. Dunning, Jr., J. Chem. Phys. 90, 1007 (1989)
            He : Obtained from the ccRepo (grant-hill.group.shef.ac.uk/ccrepo) Feb. 2017
                 D. E. Woon, T. H. Dunning, Jr., J. Chem. Phys. 100, 2975 (1994)
  Li-Be, Na-Mg : Obtained from the ccRepo (grant-hill.group.shef.ac.uk/ccrepo) Feb. 2017
                 B. P. Prascher, D. E. Woon, K. A. Peterson, T. H. Dunning, Jr., A. K. Wilson, Theor. Chem. Acc. 128, 69 (2011)
         Al-Ar : Obtained from the ccRepo (grant-hill.group.shef.ac.uk/ccrepo) Feb. 2017
                 D. E. Woon, T. H. Dunning, Jr., J. Chem. Phys. 98, 1358 (1993)
            Ca : Obtained from the Peterson Research Group Website (tyr0.chem.wsu.edu/~kipeters) Feb. 2017
                 J. Koput, K. A. Peterson, J. Phys. Chem. 106, 9595 (2002)
         Sc-Zn : Obtained from the ccRepo (grant-hill.group.shef.ac.uk/ccrepo) Feb. 2017
                 N. B. Balabanov, K. A. Peterson, J. Chem. Phys. 123, 064107 (2005)
                 N. B. Balabanov, K. A. Peterson, J. Chem. Phys. 125, 074110 (2006)
         Ga-Kr : Obtained from the ccRepo (grant-hill.group.shef.ac.uk/ccrepo) Feb. 2017
                 A. K. Wilson, D. E. Woon, K. A. Peterson, T. H. Dunning, Jr., J. Chem. Phys. 110, 7667 (1999)
             Y : Obtained from the ccRepo (grant-hill.group.shef.ac.uk/ccrepo) Feb. 2017
                 K. A. Peterson, D. Figgen, M. Dolg, H. Stoll, J. Chem. Phys. 126, 124101 (2007)
        Ag, Au : Obtained from the Peterson Research Group Website (tyr0.chem.wsu.edu/~kipeters) Feb. 2017
                 K. A. Peterson, C. Puzzarini, Theor. Chem. Acc. 114, 283 (2005)

----- AuxC basis set information -----
Your calculation utilizes the auxiliary basis: cc-pVTZ/C 
  Obtained from the EMSL Basis Set Exchange (bse.pnl.gov) Feb. 2017
  H-He, B-F, Al-Ar, Ga-Kr : F. Weigend, A. Kohn, C. Hattig, J. Chem. Phys. 116, 3175 (2002)
             Li-Be, Na-Mg : C. Haettig, Phys. Chem. Chem. Phys. 7, 59 (2005)
                       Ne : C. Haettig, Phys. Chem. Chem. Phys. 7, 59 (2005)
                            F. Weigend, A. Kohn, C. Hattig, J. Chem. Phys. 116, 3175 (2002)
                    Sc-Zn : J. G. Hill, J. A. Platts, J. Chem. Phys. 128, 044104 (2008)

================================================================================
                                        WARNINGS
                       Please study these warnings very carefully!
================================================================================


WARNING: No MP2 level density has been requested!
         To caclulate MP2 level properties use
         %mp2 Density relaxed end
         or
         %mp2 Density unrelaxed end

WARNING: Post HF methods need fully converged wavefunctions
  ===> : Setting SCFConvForced true
         You can overwrite this default with %scf ConvForced false 


INFO   : the flag for use of the SHARK integral package has been found!

================================================================================
                                       INPUT FILE
================================================================================
NAME = CONFS/Conf925.orca
|  1> ! ri-mp2 cc-pvtz cc-pvtz/c TightSCF NoKeepInts
|  2> 
|  3> %scf
|  4>   MaxCore 4096
|  5> end
|  6> *xyz  0  1
|  7>     C       16.0153239   13.0870792   16.3414193
|  8>     C       15.6406654   14.5443936   16.6581038
|  9>     O       16.8235434   15.3417579   16.4831836
| 10>     C       16.6799045   16.6969547   16.4094724
| 11>     O       15.7556755   17.2052361   15.7984418
| 12>     C       17.5214178   17.4261071   17.4214109
| 13>     C       17.5009534   18.7780055   17.5429198
| 14>     C       16.6770455   19.7587065   16.7359868
| 15>     N       18.3348271   19.4118172   18.4689270
| 16>     C       19.2921239   18.7835812   19.2197464
| 17>     S       20.3096104   19.6210242   20.2193579
| 18>     N       19.3694037   17.4199471   19.0959570
| 19>     C       18.4245874   16.5812830   18.3364844
| 20>     C       17.6203151   15.7169250   19.3034643
| 21>     C       17.8750362   14.3361689   19.4020509
| 22>     C       17.1296794   13.5323611   20.2808237
| 23>     C       16.1248387   14.1146052   21.0720322
| 24>     C       15.8746455   15.4908316   20.9832298
| 25>     O       14.9062885   16.0562635   21.7468711
| 26>     C       16.6165573   16.2878106   20.1060658
| 27>     H       16.7970867   12.7315787   17.0235043
| 28>     H       16.3848299   12.9984846   15.3121770
| 29>     H       15.1412636   12.4337472   16.4503883
| 30>     H       14.8484796   14.8663224   15.9681494
| 31>     H       15.2670365   14.6326797   17.6871168
| 32>     H       15.6059646   19.6003765   16.9161479
| 33>     H       16.8515627   19.6189617   15.6615706
| 34>     H       16.9026850   20.8051905   16.9722510
| 35>     H       18.2938740   20.4133436   18.5709415
| 36>     H       20.0616810   16.9817523   19.6897365
| 37>     H       19.0190366   15.9179362   17.6923710
| 38>     H       18.6484734   13.8828880   18.7876799
| 39>     H       17.3325020   12.4648114   20.3478045
| 40>     H       15.5473570   13.4983506   21.7533896
| 41>     H       14.5414410   15.3629348   22.3171538
| 42>     H       16.4112839   17.3517824   20.0576692
| 43> *
| 44> 
| 45>                          ****END OF INPUT****
================================================================================

                       ****************************
                       * Single Point Calculation *
                       ****************************

---------------------------------
CARTESIAN COORDINATES (ANGSTROEM)
---------------------------------
  C     16.015324   13.087079   16.341419
  C     15.640665   14.544394   16.658104
  O     16.823543   15.341758   16.483184
  C     16.679904   16.696955   16.409472
  O     15.755676   17.205236   15.798442
  C     17.521418   17.426107   17.421411
  C     17.500953   18.778005   17.542920
  C     16.677045   19.758706   16.735987
  N     18.334827   19.411817   18.468927
  C     19.292124   18.783581   19.219746
  S     20.309610   19.621024   20.219358
  N     19.369404   17.419947   19.095957
  C     18.424587   16.581283   18.336484
  C     17.620315   15.716925   19.303464
  C     17.875036   14.336169   19.402051
  C     17.129679   13.532361   20.280824
  C     16.124839   14.114605   21.072032
  C     15.874645   15.490832   20.983230
  O     14.906289   16.056264   21.746871
  C     16.616557   16.287811   20.106066
  H     16.797087   12.731579   17.023504
  H     16.384830   12.998485   15.312177
  H     15.141264   12.433747   16.450388
  H     14.848480   14.866322   15.968149
  H     15.267036   14.632680   17.687117
  H     15.605965   19.600376   16.916148
  H     16.851563   19.618962   15.661571
  H     16.902685   20.805190   16.972251
  H     18.293874   20.413344   18.570941
  H     20.061681   16.981752   19.689736
  H     19.019037   15.917936   17.692371
  H     18.648473   13.882888   18.787680
  H     17.332502   12.464811   20.347804
  H     15.547357   13.498351   21.753390
  H     14.541441   15.362935   22.317154
  H     16.411284   17.351782   20.057669

----------------------------
CARTESIAN COORDINATES (A.U.)
----------------------------
  NO LB      ZA    FRAG     MASS         X           Y           Z
   0 C     6.0000    0    12.011   30.264576   24.730996   30.880807
   1 C     6.0000    0    12.011   29.556574   27.484921   31.479254
   2 O     8.0000    0    15.999   31.791890   28.991721   31.148703
   3 C     6.0000    0    12.011   31.520451   31.552672   31.009409
   4 O     8.0000    0    15.999   29.773912   32.513184   29.854728
   5 C     6.0000    0    12.011   33.110681   32.930570   32.921695
   6 C     6.0000    0    12.011   33.072009   35.485288   33.151314
   7 C     6.0000    0    12.011   31.515049   37.338544   31.626432
   8 N     7.0000    0    14.007   34.647802   36.683018   34.901214
   9 C     6.0000    0    12.011   36.456831   35.495824   36.320057
  10 S    16.0000    0    32.060   38.379602   37.078362   38.209049
  11 N     7.0000    0    14.007   36.602868   32.918929   36.086129
  12 C     6.0000    0    12.011   34.817424   31.334084   34.650934
  13 C     6.0000    0    12.011   33.297570   29.700684   36.478261
  14 C     6.0000    0    12.011   33.778923   27.091433   36.664563
  15 C     6.0000    0    12.011   32.370403   25.572456   38.325203
  16 C     6.0000    0    12.011   30.471529   26.672738   39.820370
  17 C     6.0000    0    12.011   29.998732   29.273429   39.652558
  18 O     8.0000    0    15.999   28.168803   30.341941   41.095631
  19 C     6.0000    0    12.011   31.400743   30.779501   37.994958
  20 H     1.0000    0     1.008   31.741894   24.059197   32.169761
  21 H     1.0000    0     1.008   30.962841   24.563576   28.935821
  22 H     1.0000    0     1.008   28.612842   23.496377   31.086729
  23 H     1.0000    0     1.008   28.059560   28.093278   30.175429
  24 H     1.0000    0     1.008   28.850518   27.651757   33.423807
  25 H     1.0000    0     1.008   29.490999   37.039344   31.966887
  26 H     1.0000    0     1.008   31.844838   37.074465   29.596079
  27 H     1.0000    0     1.008   31.941446   39.316112   32.072906
  28 H     1.0000    0     1.008   34.570412   38.575629   35.093993
  29 H     1.0000    0     1.008   37.911083   32.090861   37.208210
  30 H     1.0000    0     1.008   35.940771   30.080540   33.433736
  31 H     1.0000    0     1.008   35.240508   26.234856   35.503570
  32 H     1.0000    0     1.008   32.753682   23.555080   38.451778
  33 H     1.0000    0     1.008   29.380247   25.508186   41.107949
  34 H     1.0000    0     1.008   27.479341   29.031739   42.173309
  35 H     1.0000    0     1.008   31.012832   32.790117   37.903502

--------------------------------
INTERNAL COORDINATES (ANGSTROEM)
--------------------------------
 C      0   0   0     0.000000000000     0.00000000     0.00000000
 C      1   0   0     1.537668145150     0.00000000     0.00000000
 O      2   1   0     1.437215107827   107.46990693     0.00000000
 C      3   2   1     1.364779777594   118.08975015   165.37588390
 O      4   3   2     1.218978104874   121.39377171   320.00921819
 C      4   3   2     1.504602068417   112.70728341   124.89439707
 C      6   4   3     1.357502297740   122.30210242   181.78792283
 C      7   6   4     1.513849247968   127.27478896     0.09677968
 N      7   6   4     1.398052914972   120.11763151   182.12856627
 C      9   7   6     1.369243370041   124.90368988     6.00884249
 S     10   9   7     1.654029233981   121.94953700   175.73147415
 N     10   9   7     1.371420410277   116.49475970   356.03127599
 C     12  10   9     1.474053575527   125.17729489   353.35470851
 C     13  12  10     1.526112319495   109.48591070   248.36505365
 C     14  13  12     1.407511834470   120.30610824   253.01747089
 C     15  14  13     1.404957427350   120.60044404   180.61364656
 C     16  15  14     1.405248702128   119.63499684   359.73065173
 C     17  16  15     1.401599660256   119.92091764   359.82840510
 O     18  17  16     1.356678498412   120.06492411   180.07655281
 C     18  17  16     1.398222202769   120.31184017     0.28204475
 H      1   2   3     1.096710366591   110.65905885    60.68021450
 H      1   2   3     1.097143290229   110.59717341   300.42511925
 H      1   2   3     1.096676047528   110.48419146   180.56098135
 H      2   1   3     1.098741811378   108.90696082   120.03617120
 H      2   1   3     1.098299023280   110.61157337   239.35369223
 H      8   7   6     1.097606808105   110.49672981    64.03653398
 H      8   7   6     1.097431106287   110.65960468   305.32505082
 H      8   7   6     1.096294996074   113.04745454   184.75204543
 H      9   7   6     1.007541187499   119.56871369   181.75197007
 H     12  10   9     1.011848129643   114.59422344   182.26188946
 H     13  12  10     1.099218313398   107.37511944   130.96045919
 H     15  14  13     1.086793633718   119.89084957     0.05381342
 H     16  15  14     1.088708315670   120.04309203   179.83090873
 H     17  16  15     1.085127988945   119.91867988   180.09023827
 H     19  18  17     0.969041145886   107.56548611     3.22327822
 H     20  18  17     1.084672941874   119.12323069   180.40243724

---------------------------
INTERNAL COORDINATES (A.U.)
---------------------------
 C      0   0   0     0.000000000000     0.00000000     0.00000000
 C      1   0   0     2.905771679189     0.00000000     0.00000000
 O      2   1   0     2.715942949327   107.46990693     0.00000000
 C      3   2   1     2.579060012766   118.08975015   165.37588390
 O      4   3   2     2.303534781459   121.39377171   320.00921819
 C      4   3   2     2.843285849840   112.70728341   124.89439707
 C      6   4   3     2.565307568897   122.30210242   181.78792283
 C      7   6   4     2.860760486702   127.27478896     0.09677968
 N      7   6   4     2.641937130027   120.11763151   182.12856627
 C      9   7   6     2.587494980066   124.90368988     6.00884249
 S     10   9   7     3.125662269723   121.94953700   175.73147415
 N     10   9   7     2.591608989893   116.49475970   356.03127599
 C     12  10   9     2.785557564474   125.17729489   353.35470851
 C     13  12  10     2.883934333449   109.48591070   248.36505365
 C     14  13  12     2.659811897401   120.30610824   253.01747089
 C     15  14  13     2.654984767511   120.60044404   180.61364656
 C     16  15  14     2.655535197071   119.63499684   359.73065173
 C     17  16  15     2.648639507280   119.92091764   359.82840510
 O     18  17  16     2.563750813777   120.06492411   180.07655281
 C     18  17  16     2.642257037602   120.31184017     0.28204475
 H      1   2   3     2.072482241090   110.65905885    60.68021450
 H      1   2   3     2.073300348202   110.59717341   300.42511925
 H      1   2   3     2.072417387459   110.48419146   180.56098135
 H      2   1   3     2.076321115393   108.90696082   120.03617120
 H      2   1   3     2.075484367152   110.61157337   239.35369223
 H      8   7   6     2.074176270046   110.49672981    64.03653398
 H      8   7   6     2.073844241728   110.65960468   305.32505082
 H      8   7   6     2.071697304569   113.04745454   184.75204543
 H      9   7   6     1.903976913019   119.56871369   181.75197007
 H     12  10   9     1.912115854146   114.59422344   182.26188946
 H     13  12  10     2.077221573714   107.37511944   130.96045919
 H     15  14  13     2.053742331816   119.89084957     0.05381342
 H     16  15  14     2.057360556339   120.04309203   179.83090873
 H     17  16  15     2.050594719358   119.91867988   180.09023827
 H     19  18  17     1.831222378225   107.56548611     3.22327822
 H     20  18  17     2.049734805017   119.12323069   180.40243724

---------------------
BASIS SET INFORMATION
---------------------
There are 5 groups of distinct atoms

 Group   1 Type C   : 18s5p2d1f contracted to 4s3p2d1f pattern {8811/311/11/1}
 Group   2 Type O   : 18s5p2d1f contracted to 4s3p2d1f pattern {8811/311/11/1}
 Group   3 Type N   : 18s5p2d1f contracted to 4s3p2d1f pattern {8811/311/11/1}
 Group   4 Type S   : 41s16p2d1f contracted to 5s4p2d1f pattern {13131311/7711/11/1}
 Group   5 Type H   : 5s2p1d contracted to 3s2p1d pattern {311/11/1}

Atom   0C    basis set group =>   1
Atom   1C    basis set group =>   1
Atom   2O    basis set group =>   2
Atom   3C    basis set group =>   1
Atom   4O    basis set group =>   2
Atom   5C    basis set group =>   1
Atom   6C    basis set group =>   1
Atom   7C    basis set group =>   1
Atom   8N    basis set group =>   3
Atom   9C    basis set group =>   1
Atom  10S    basis set group =>   4
Atom  11N    basis set group =>   3
Atom  12C    basis set group =>   1
Atom  13C    basis set group =>   1
Atom  14C    basis set group =>   1
Atom  15C    basis set group =>   1
Atom  16C    basis set group =>   1
Atom  17C    basis set group =>   1
Atom  18O    basis set group =>   2
Atom  19C    basis set group =>   1
Atom  20H    basis set group =>   5
Atom  21H    basis set group =>   5
Atom  22H    basis set group =>   5
Atom  23H    basis set group =>   5
Atom  24H    basis set group =>   5
Atom  25H    basis set group =>   5
Atom  26H    basis set group =>   5
Atom  27H    basis set group =>   5
Atom  28H    basis set group =>   5
Atom  29H    basis set group =>   5
Atom  30H    basis set group =>   5
Atom  31H    basis set group =>   5
Atom  32H    basis set group =>   5
Atom  33H    basis set group =>   5
Atom  34H    basis set group =>   5
Atom  35H    basis set group =>   5
---------------------------------
AUXILIARY/C BASIS SET INFORMATION
---------------------------------
There are 5 groups of distinct atoms

 Group   1 Type C   : 8s6p5d3f1g contracted to 8s6p5d3f1g pattern {11111111/111111/11111/111/1}
 Group   2 Type O   : 8s6p5d3f1g contracted to 8s6p5d3f1g pattern {11111111/111111/11111/111/1}
 Group   3 Type N   : 8s6p5d3f1g contracted to 8s6p5d3f1g pattern {11111111/111111/11111/111/1}
 Group   4 Type S   : 10s8p7d5f2g contracted to 10s8p7d5f2g pattern {1111111111/11111111/1111111/11111/11}
 Group   5 Type H   : 4s3p2d1f contracted to 4s3p2d1f pattern {1111/111/11/1}

Atom   0C    basis set group =>   1
Atom   1C    basis set group =>   1
Atom   2O    basis set group =>   2
Atom   3C    basis set group =>   1
Atom   4O    basis set group =>   2
Atom   5C    basis set group =>   1
Atom   6C    basis set group =>   1
Atom   7C    basis set group =>   1
Atom   8N    basis set group =>   3
Atom   9C    basis set group =>   1
Atom  10S    basis set group =>   4
Atom  11N    basis set group =>   3
Atom  12C    basis set group =>   1
Atom  13C    basis set group =>   1
Atom  14C    basis set group =>   1
Atom  15C    basis set group =>   1
Atom  16C    basis set group =>   1
Atom  17C    basis set group =>   1
Atom  18O    basis set group =>   2
Atom  19C    basis set group =>   1
Atom  20H    basis set group =>   5
Atom  21H    basis set group =>   5
Atom  22H    basis set group =>   5
Atom  23H    basis set group =>   5
Atom  24H    basis set group =>   5
Atom  25H    basis set group =>   5
Atom  26H    basis set group =>   5
Atom  27H    basis set group =>   5
Atom  28H    basis set group =>   5
Atom  29H    basis set group =>   5
Atom  30H    basis set group =>   5
Atom  31H    basis set group =>   5
Atom  32H    basis set group =>   5
Atom  33H    basis set group =>   5
Atom  34H    basis set group =>   5
Atom  35H    basis set group =>   5
------------------------------------------------------------------------------
                           ORCA GTO INTEGRAL CALCULATION
------------------------------------------------------------------------------
------------------------------------------------------------------------------
                   ___                                                        
                  /   \      - P O W E R E D   B Y -                         
                 /     \                                                     
                 |  |  |   _    _      __       _____    __    __             
                 |  |  |  | |  | |    /  \     |  _  \  |  |  /  |          
                  \  \/   | |  | |   /    \    | | | |  |  | /  /          
                 / \  \   | |__| |  /  /\  \   | |_| |  |  |/  /          
                |  |  |   |  __  | /  /__\  \  |    /   |      \           
                |  |  |   | |  | | |   __   |  |    \   |  |\   \          
                \     /   | |  | | |  |  |  |  | |\  \  |  | \   \       
                 \___/    |_|  |_| |__|  |__|  |_| \__\ |__|  \__/        
                                                                              
                      - O R C A' S   B I G   F R I E N D -                    
                                      &                                       
                       - I N T E G R A L  F E E D E R -                       
                                                                              
 v1 FN, 2020, v2 2021                                                         
------------------------------------------------------------------------------


Reading SHARK input file CONFS/Conf925.orca.SHARKINP.tmp ... ok
----------------------
SHARK INTEGRAL PACKAGE
----------------------

Number of atoms                             ...     36
Number of basis functions                   ...    828
Number of shells                            ...    298
Maximum angular momentum                    ...      3
Integral batch strategy                     ... SHARK/LIBINT Hybrid
RI-J (if used) integral strategy            ... SPLIT-RIJ (Revised 2003 algorithm where possible)
Printlevel                                  ...      1
Contraction scheme used                     ... SEGMENTED contraction
Coulomb Range Separation                    ... NOT USED
Exchange Range Separation                   ... NOT USED
Finite Nucleus Model                        ... NOT USED
Auxiliary Coulomb fitting basis             ... NOT available
Auxiliary J/K fitting basis                 ... NOT available
Auxiliary Correlation fitting basis         ... AVAILABLE
   # of basis functions in Aux-C            ...   2141
   # of shells in Aux-C                     ...    629
   Maximum angular momentum in Aux-C        ...      4
Auxiliary 'external' fitting basis          ... NOT available
Integral threshold                          ...     2.500000e-11
Primitive cut-off                           ...     2.500000e-12
Primitive pair pre-selection threshold      ...     2.500000e-12

Calculating pre-screening integrals         ... done (  0.6 sec) Dimension = 298
Organizing shell pair data                  ... done (  1.4 sec)
Shell pair information
Total number of shell pairs                 ...     44551
Shell pairs after pre-screening             ...     33648
Total number of primitive shell pairs       ...    234348
Primitive shell pairs kept                  ...     96571
          la=0 lb=0:   6720 shell pairs
          la=1 lb=0:   9340 shell pairs
          la=1 lb=1:   3302 shell pairs
          la=2 lb=0:   5375 shell pairs
          la=2 lb=1:   3690 shell pairs
          la=2 lb=2:   1053 shell pairs
          la=3 lb=0:   1945 shell pairs
          la=3 lb=1:   1330 shell pairs
          la=3 lb=2:    742 shell pairs
          la=3 lb=3:    151 shell pairs

Calculating one electron integrals          ... done (  0.4 sec)
Calculating RI/C V-Matrix + Cholesky decomp.... done (  1.0 sec)
Calculating Nuclear repulsion               ... done (  0.1 sec) ENN=   1713.971813187168 Eh

SHARK setup successfully completed in   3.7 seconds

Maximum memory used throughout the entire GTOINT-calculation: 500.6 MB
-------------------------------------------------------------------------------
                                 ORCA SCF
-------------------------------------------------------------------------------

------------
SCF SETTINGS
------------
Hamiltonian:
 Ab initio Hamiltonian  Method          .... Hartree-Fock(GTOs)


General Settings:
 Integral files         IntName         .... CONFS/Conf925.orca
 Hartree-Fock type      HFTyp           .... RHF
 Total Charge           Charge          ....    0
 Multiplicity           Mult            ....    1
 Number of Electrons    NEL             ....  154
 Basis Dimension        Dim             ....  828
 Nuclear Repulsion      ENuc            ....   1713.9718131872 Eh

Convergence Acceleration:
 DIIS                   CNVDIIS         .... on
   Start iteration      DIISMaxIt       ....    12
   Startup error        DIISStart       ....  0.200000
   # of expansion vecs  DIISMaxEq       ....     5
   Bias factor          DIISBfac        ....   1.050
   Max. coefficient     DIISMaxC        ....  10.000
 Trust-Rad. Augm. Hess. CNVTRAH         .... auto
   Auto Start mean grad. ratio tolernc. ....  1.125000
   Auto Start start iteration           ....    20
   Auto Start num. interpolation iter.  ....    10
   Max. Number of Micro iterations      ....    16
   Max. Number of Macro iterations      .... Maxiter - #DIIS iter
   Number of Davidson start vectors     ....     2
   Converg. threshold I  (grad. norm)   ....   1.000e-05
   Converg. threshold II (energy diff.) ....   1.000e-08
   Grad. Scal. Fac. for Micro threshold ....   0.100
   Minimum threshold for Micro iter.    ....   0.010
   NR start threshold (gradient norm)   ....   0.001
   Initial trust radius                 ....   0.400
   Minimum AH scaling param. (alpha)    ....   1.000
   Maximum AH scaling param. (alpha)    .... 1000.000
   Orbital update algorithm             .... Taylor
   White noise on init. David. guess    .... on
   Maximum white noise                  ....   0.010
   Quad. conv. algorithm                .... NR
 SOSCF                  CNVSOSCF        .... on
   Start iteration      SOSCFMaxIt      ....   150
   Startup grad/error   SOSCFStart      ....  0.003300
 Level Shifting         CNVShift        .... on
   Level shift para.    LevelShift      ....    0.2500
   Turn off err/grad.   ShiftErr        ....    0.0010
 Zerner damping         CNVZerner       .... off
 Static damping         CNVDamp         .... on
   Fraction old density DampFac         ....    0.7000
   Max. Damping (<1)    DampMax         ....    0.9800
   Min. Damping (>=0)   DampMin         ....    0.0000
   Turn off err/grad.   DampErr         ....    0.1000
 Fernandez-Rico         CNVRico         .... off

SCF Procedure:
 Maximum # iterations   MaxIter         ....   125
 SCF integral mode      SCFMode         .... Direct
   Integral package                     .... SHARK and LIBINT hybrid scheme
 Reset frequency        DirectResetFreq ....    20
 Integral Threshold     Thresh          ....  2.500e-11 Eh
 Primitive CutOff       TCut            ....  2.500e-12 Eh

Convergence Tolerance:
 Convergence Check Mode ConvCheckMode   .... Total+1el-Energy
 Convergence forced     ConvForced      .... 1
 Energy Change          TolE            ....  1.000e-08 Eh
 1-El. energy change                    ....  1.000e-05 Eh
 Orbital Gradient       TolG            ....  1.000e-05
 Orbital Rotation angle TolX            ....  1.000e-05
 DIIS Error             TolErr          ....  5.000e-07


Diagonalization of the overlap matrix:
Smallest eigenvalue                        ... 3.342e-05
Time for diagonalization                   ...    0.142 sec
Threshold for overlap eigenvalues          ... 1.000e-08
Number of eigenvalues below threshold      ... 0
Time for construction of square roots      ...    0.065 sec
Total time needed                          ...    0.210 sec

Time for model grid setup =    1.613 sec

------------------------------
INITIAL GUESS: MODEL POTENTIAL
------------------------------
Loading Hartree-Fock densities                     ... done
Calculating cut-offs                               ... done
Initializing the effective Hamiltonian             ... done
Setting up the integral package (SHARK)            ... done
Starting the Coulomb interaction                   ... done (   4.7 sec)
Reading the grid                                   ... done
Mapping shells                                     ... done
Starting the XC term evaluation                    ... done (   1.6 sec)
Transforming the Hamiltonian                       ... done (   0.1 sec)
Diagonalizing the Hamiltonian                      ... done (   0.1 sec)
Back transforming the eigenvectors                 ... done (   0.0 sec)
Now organizing SCF variables                       ... done
                      ------------------
                      INITIAL GUESS DONE (   8.3 sec)
                      ------------------
--------------
SCF ITERATIONS
--------------
ITER       Energy         Delta-E        Max-DP      RMS-DP      [F,P]     Damp
               ***  Starting incremental Fock matrix formation  ***
  0  -1270.0120038548   0.000000000000 0.04931719  0.00043563  0.3026565 0.7000
  1  -1270.2798201923  -0.267816337467 0.03607926  0.00035184  0.1781480 0.7000
                               ***Turning on DIIS***
  2  -1270.4466220339  -0.166801841606 0.02583448  0.00023603  0.1096664 0.7000
  3  -1272.5853291175  -2.138707083612 0.06311614  0.00051082  0.0829276 0.0000
  4  -1270.7563878702   1.828941247296 0.00740844  0.00009722  0.0070425 0.0000
  5  -1270.8143580232  -0.057970152956 0.00387233  0.00005150  0.0049336 0.0000
                      *** Initiating the SOSCF procedure ***
                           *** Shutting down DIIS ***
                      *** Re-Reading the Fockian *** 
                      *** Removing any level shift *** 
ITER      Energy       Delta-E        Grad      Rot      Max-DP    RMS-DP
  6  -1270.79424790   0.0201101268  0.001728  0.001728  0.002241  0.000027
               *** Restarting incremental Fock matrix formation ***
  7  -1270.80904608  -0.0147981789  0.001016  0.002614  0.001553  0.000017
  8  -1270.80909513  -0.0000490500  0.000445  0.003015  0.001817  0.000018
  9  -1270.80911395  -0.0000188259  0.000183  0.000371  0.000360  0.000005
 10  -1270.80911640  -0.0000024492  0.000058  0.000158  0.000126  0.000001
 11  -1270.80911665  -0.0000002482  0.000026  0.000129  0.000065  0.000001
 12  -1270.80911673  -0.0000000766  0.000010  0.000044  0.000036  0.000000
 13  -1270.80911673  -0.0000000027  0.000003  0.000012  0.000007  0.000000
                 **** Energy Check signals convergence ****
              ***Rediagonalizing the Fockian in SOSCF/NRSCF***

               *****************************************************
               *                     SUCCESS                       *
               *           SCF CONVERGED AFTER  14 CYCLES          *
               *****************************************************


----------------
TOTAL SCF ENERGY
----------------

Total Energy       :        -1270.80911672 Eh          -34580.47410 eV

Components:
Nuclear Repulsion  :         1713.97181319 Eh           46639.54415 eV
Electronic Energy  :        -2984.78092991 Eh          -81220.01825 eV
One Electron Energy:        -5149.04772032 Eh         -140112.71166 eV
Two Electron Energy:         2164.26679041 Eh           58892.69341 eV

Virial components:
Potential Energy   :        -2539.79331580 Eh          -69111.28967 eV
Kinetic Energy     :         1268.98419909 Eh           34530.81557 eV
Virial Ratio       :            2.00143809


---------------
SCF CONVERGENCE
---------------

  Last Energy change         ...    8.6611e-09  Tolerance :   1.0000e-08
  Last MAX-Density change    ...    1.7756e-06  Tolerance :   1.0000e-07
  Last RMS-Density change    ...    2.9120e-08  Tolerance :   5.0000e-09
  Last Orbital Gradient      ...    1.2933e-06  Tolerance :   1.0000e-05
  Last Orbital Rotation      ...    2.9520e-06  Tolerance :   1.0000e-05

             **** THE GBW FILE WAS UPDATED (CONFS/Conf925.orca.gbw) ****
             **** DENSITY CONFS/Conf925.orca.scfp WAS UPDATED ****
             **** ENERGY FILE WAS UPDATED (CONFS/Conf925.orca.en.tmp) ****
             **** THE GBW FILE WAS UPDATED (CONFS/Conf925.orca.gbw) ****
             **** DENSITY CONFS/Conf925.orca.scfp WAS UPDATED ****
----------------
ORBITAL ENERGIES
----------------

  NO   OCC          E(Eh)            E(eV) 
   0   2.0000     -91.889724     -2500.4465 
   1   2.0000     -20.599620      -560.5442 
   2   2.0000     -20.591590      -560.3256 
   3   2.0000     -20.544233      -559.0370 
   4   2.0000     -15.629948      -425.3125 
   5   2.0000     -15.609258      -424.7495 
   6   2.0000     -11.393324      -310.0281 
   7   2.0000     -11.384841      -309.7973 
   8   2.0000     -11.336415      -308.4795 
   9   2.0000     -11.317333      -307.9603 
  10   2.0000     -11.310643      -307.7783 
  11   2.0000     -11.293144      -307.3021 
  12   2.0000     -11.262672      -306.4729 
  13   2.0000     -11.259078      -306.3751 
  14   2.0000     -11.258776      -306.3669 
  15   2.0000     -11.252755      -306.2030 
  16   2.0000     -11.246352      -306.0288 
  17   2.0000     -11.241361      -305.8930 
  18   2.0000     -11.241122      -305.8865 
  19   2.0000     -11.227301      -305.5104 
  20   2.0000      -8.894781      -242.0393 
  21   2.0000      -6.576353      -178.9517 
  22   2.0000      -6.574350      -178.8972 
  23   2.0000      -6.573761      -178.8811 
  24   2.0000      -1.450326       -39.4654 
  25   2.0000      -1.419298       -38.6211 
  26   2.0000      -1.353577       -36.8327 
  27   2.0000      -1.340990       -36.4902 
  28   2.0000      -1.239656       -33.7328 
  29   2.0000      -1.160571       -31.5807 
  30   2.0000      -1.121199       -30.5094 
  31   2.0000      -1.044801       -28.4305 
  32   2.0000      -1.036962       -28.2172 
  33   2.0000      -1.018535       -27.7157 
  34   2.0000      -0.996677       -27.1210 
  35   2.0000      -0.985245       -26.8099 
  36   2.0000      -0.924181       -25.1482 
  37   2.0000      -0.883393       -24.0383 
  38   2.0000      -0.848033       -23.0762 
  39   2.0000      -0.839968       -22.8567 
  40   2.0000      -0.836847       -22.7718 
  41   2.0000      -0.822071       -22.3697 
  42   2.0000      -0.762992       -20.7621 
  43   2.0000      -0.735002       -20.0004 
  44   2.0000      -0.723792       -19.6954 
  45   2.0000      -0.698635       -19.0108 
  46   2.0000      -0.688680       -18.7399 
  47   2.0000      -0.678446       -18.4614 
  48   2.0000      -0.674704       -18.3596 
  49   2.0000      -0.657741       -17.8980 
  50   2.0000      -0.647482       -17.6189 
  51   2.0000      -0.643830       -17.5195 
  52   2.0000      -0.635509       -17.2931 
  53   2.0000      -0.612001       -16.6534 
  54   2.0000      -0.610086       -16.6013 
  55   2.0000      -0.602436       -16.3931 
  56   2.0000      -0.600018       -16.3273 
  57   2.0000      -0.580118       -15.7858 
  58   2.0000      -0.571748       -15.5580 
  59   2.0000      -0.565880       -15.3984 
  60   2.0000      -0.557440       -15.1687 
  61   2.0000      -0.540247       -14.7009 
  62   2.0000      -0.536500       -14.5989 
  63   2.0000      -0.527759       -14.3611 
  64   2.0000      -0.521566       -14.1925 
  65   2.0000      -0.514799       -14.0084 
  66   2.0000      -0.504671       -13.7328 
  67   2.0000      -0.499496       -13.5920 
  68   2.0000      -0.487182       -13.2569 
  69   2.0000      -0.465470       -12.6661 
  70   2.0000      -0.457573       -12.4512 
  71   2.0000      -0.445272       -12.1165 
  72   2.0000      -0.355151        -9.6641 
  73   2.0000      -0.352550        -9.5934 
  74   2.0000      -0.329406        -8.9636 
  75   2.0000      -0.324696        -8.8354 
  76   2.0000      -0.317129        -8.6295 
  77   0.0000       0.072468         1.9720 
  78   0.0000       0.102899         2.8000 
  79   0.0000       0.123813         3.3691 
  80   0.0000       0.130164         3.5419 
  81   0.0000       0.135325         3.6824 
  82   0.0000       0.138797         3.7769 
  83   0.0000       0.151297         4.1170 
  84   0.0000       0.159845         4.3496 
  85   0.0000       0.160935         4.3793 
  86   0.0000       0.167886         4.5684 
  87   0.0000       0.178953         4.8695 
  88   0.0000       0.192221         5.2306 
  89   0.0000       0.196353         5.3430 
  90   0.0000       0.200464         5.4549 
  91   0.0000       0.209616         5.7039 
  92   0.0000       0.215198         5.8558 
  93   0.0000       0.219989         5.9862 
  94   0.0000       0.227687         6.1957 
  95   0.0000       0.235538         6.4093 
  96   0.0000       0.245604         6.6832 
  97   0.0000       0.259372         7.0579 
  98   0.0000       0.263773         7.1776 
  99   0.0000       0.281164         7.6509 
 100   0.0000       0.293139         7.9767 
 101   0.0000       0.305036         8.3005 
 102   0.0000       0.308214         8.3869 
 103   0.0000       0.317206         8.6316 
 104   0.0000       0.326515         8.8849 
 105   0.0000       0.337531         9.1847 
 106   0.0000       0.342807         9.3283 
 107   0.0000       0.346717         9.4347 
 108   0.0000       0.351233         9.5575 
 109   0.0000       0.366748         9.9797 
 110   0.0000       0.371405        10.1064 
 111   0.0000       0.379351        10.3227 
 112   0.0000       0.383319        10.4306 
 113   0.0000       0.389992        10.6122 
 114   0.0000       0.393092        10.6966 
 115   0.0000       0.405004        11.0207 
 116   0.0000       0.408309        11.1106 
 117   0.0000       0.425794        11.5864 
 118   0.0000       0.433903        11.8071 
 119   0.0000       0.437622        11.9083 
 120   0.0000       0.441762        12.0210 
 121   0.0000       0.445264        12.1163 
 122   0.0000       0.455315        12.3897 
 123   0.0000       0.461939        12.5700 
 124   0.0000       0.465580        12.6691 
 125   0.0000       0.470772        12.8104 
 126   0.0000       0.477062        12.9815 
 127   0.0000       0.481597        13.1049 
 128   0.0000       0.487316        13.2605 
 129   0.0000       0.493935        13.4407 
 130   0.0000       0.500891        13.6299 
 131   0.0000       0.507541        13.8109 
 132   0.0000       0.512446        13.9444 
 133   0.0000       0.514245        13.9933 
 134   0.0000       0.521125        14.1805 
 135   0.0000       0.528708        14.3869 
 136   0.0000       0.531775        14.4703 
 137   0.0000       0.540373        14.7043 
 138   0.0000       0.541870        14.7450 
 139   0.0000       0.548220        14.9178 
 140   0.0000       0.557096        15.1593 
 141   0.0000       0.561821        15.2879 
 142   0.0000       0.563623        15.3370 
 143   0.0000       0.568971        15.4825 
 144   0.0000       0.575452        15.6589 
 145   0.0000       0.578819        15.7505 
 146   0.0000       0.591367        16.0919 
 147   0.0000       0.593247        16.1431 
 148   0.0000       0.594893        16.1879 
 149   0.0000       0.601093        16.3566 
 150   0.0000       0.606367        16.5001 
 151   0.0000       0.608540        16.5592 
 152   0.0000       0.614072        16.7098 
 153   0.0000       0.619295        16.8519 
 154   0.0000       0.621494        16.9117 
 155   0.0000       0.625980        17.0338 
 156   0.0000       0.630925        17.1683 
 157   0.0000       0.632469        17.2104 
 158   0.0000       0.639072        17.3900 
 159   0.0000       0.639738        17.4082 
 160   0.0000       0.649795        17.6818 
 161   0.0000       0.652073        17.7438 
 162   0.0000       0.661967        18.0130 
 163   0.0000       0.666826        18.1453 
 164   0.0000       0.669662        18.2224 
 165   0.0000       0.674843        18.3634 
 166   0.0000       0.677971        18.4485 
 167   0.0000       0.678857        18.4726 
 168   0.0000       0.692949        18.8561 
 169   0.0000       0.703000        19.1296 
 170   0.0000       0.707990        19.2654 
 171   0.0000       0.713159        19.4060 
 172   0.0000       0.719296        19.5730 
 173   0.0000       0.724890        19.7252 
 174   0.0000       0.732887        19.9429 
 175   0.0000       0.733568        19.9614 
 176   0.0000       0.738850        20.1051 
 177   0.0000       0.742325        20.1997 
 178   0.0000       0.747017        20.3274 
 179   0.0000       0.758839        20.6491 
 180   0.0000       0.766814        20.8661 
 181   0.0000       0.771409        20.9911 
 182   0.0000       0.776761        21.1367 
 183   0.0000       0.791426        21.5358 
 184   0.0000       0.797739        21.7076 
 185   0.0000       0.804283        21.8857 
 186   0.0000       0.817845        22.2547 
 187   0.0000       0.822811        22.3898 
 188   0.0000       0.830987        22.6123 
 189   0.0000       0.835488        22.7348 
 190   0.0000       0.840676        22.8759 
 191   0.0000       0.847631        23.0652 
 192   0.0000       0.854405        23.2495 
 193   0.0000       0.868202        23.6250 
 194   0.0000       0.872262        23.7354 
 195   0.0000       0.875521        23.8241 
 196   0.0000       0.881029        23.9740 
 197   0.0000       0.885382        24.0925 
 198   0.0000       0.893383        24.3102 
 199   0.0000       0.904995        24.6262 
 200   0.0000       0.915057        24.9000 
 201   0.0000       0.920685        25.0531 
 202   0.0000       0.928246        25.2588 
 203   0.0000       0.937766        25.5179 
 204   0.0000       0.943189        25.6655 
 205   0.0000       0.953062        25.9341 
 206   0.0000       0.956438        26.0260 
 207   0.0000       0.962635        26.1946 
 208   0.0000       0.973301        26.4849 
 209   0.0000       0.974484        26.5171 
 210   0.0000       0.982142        26.7254 
 211   0.0000       0.989062        26.9137 
 212   0.0000       0.998331        27.1660 
 213   0.0000       1.001900        27.2631 
 214   0.0000       1.012637        27.5553 
 215   0.0000       1.013211        27.5709 
 216   0.0000       1.028125        27.9767 
 217   0.0000       1.029262        28.0076 
 218   0.0000       1.036480        28.2041 
 219   0.0000       1.044648        28.4263 
 220   0.0000       1.049247        28.5515 
 221   0.0000       1.060807        28.8660 
 222   0.0000       1.064790        28.9744 
 223   0.0000       1.072587        29.1866 
 224   0.0000       1.084876        29.5210 
 225   0.0000       1.095380        29.8068 
 226   0.0000       1.102028        29.9877 
 227   0.0000       1.108891        30.1745 
 228   0.0000       1.113812        30.3084 
 229   0.0000       1.116125        30.3713 
 230   0.0000       1.129491        30.7350 
 231   0.0000       1.133383        30.8409 
 232   0.0000       1.134453        30.8700 
 233   0.0000       1.144965        31.1561 
 234   0.0000       1.146233        31.1906 
 235   0.0000       1.156515        31.4704 
 236   0.0000       1.167994        31.7827 
 237   0.0000       1.173571        31.9345 
 238   0.0000       1.180391        32.1201 
 239   0.0000       1.183665        32.2092 
 240   0.0000       1.189386        32.3648 
 241   0.0000       1.199092        32.6289 
 242   0.0000       1.200458        32.6661 
 243   0.0000       1.207481        32.8572 
 244   0.0000       1.215257        33.0688 
 245   0.0000       1.221230        33.2314 
 246   0.0000       1.230374        33.4802 
 247   0.0000       1.237827        33.6830 
 248   0.0000       1.253303        34.1041 
 249   0.0000       1.264229        34.4014 
 250   0.0000       1.270481        34.5716 
 251   0.0000       1.275651        34.7122 
 252   0.0000       1.281073        34.8598 
 253   0.0000       1.291502        35.1436 
 254   0.0000       1.294545        35.2264 
 255   0.0000       1.301944        35.4277 
 256   0.0000       1.310544        35.6617 
 257   0.0000       1.324033        36.0288 
 258   0.0000       1.333637        36.2901 
 259   0.0000       1.338905        36.4335 
 260   0.0000       1.345568        36.6148 
 261   0.0000       1.355576        36.8871 
 262   0.0000       1.364525        37.1306 
 263   0.0000       1.373342        37.3705 
 264   0.0000       1.385429        37.6995 
 265   0.0000       1.387448        37.7544 
 266   0.0000       1.393527        37.9198 
 267   0.0000       1.398916        38.0664 
 268   0.0000       1.409914        38.3657 
 269   0.0000       1.422679        38.7131 
 270   0.0000       1.426452        38.8157 
 271   0.0000       1.432628        38.9838 
 272   0.0000       1.442747        39.2591 
 273   0.0000       1.452095        39.5135 
 274   0.0000       1.454883        39.5894 
 275   0.0000       1.462353        39.7926 
 276   0.0000       1.473113        40.0855 
 277   0.0000       1.479425        40.2572 
 278   0.0000       1.487462        40.4759 
 279   0.0000       1.495514        40.6950 
 280   0.0000       1.499098        40.7925 
 281   0.0000       1.506624        40.9973 
 282   0.0000       1.511403        41.1274 
 283   0.0000       1.512696        41.1625 
 284   0.0000       1.520817        41.3835 
 285   0.0000       1.525257        41.5044 
 286   0.0000       1.532293        41.6958 
 287   0.0000       1.539961        41.9045 
 288   0.0000       1.545314        42.0501 
 289   0.0000       1.550850        42.2008 
 290   0.0000       1.552048        42.2334 
 291   0.0000       1.555936        42.3392 
 292   0.0000       1.565084        42.5881 
 293   0.0000       1.574163        42.8351 
 294   0.0000       1.576585        42.9011 
 295   0.0000       1.588698        43.2307 
 296   0.0000       1.590647        43.2837 
 297   0.0000       1.593468        43.3605 
 298   0.0000       1.609568        43.7986 
 299   0.0000       1.624136        44.1950 
 300   0.0000       1.632712        44.4283 
 301   0.0000       1.641211        44.6596 
 302   0.0000       1.649411        44.8827 
 303   0.0000       1.658721        45.1361 
 304   0.0000       1.664894        45.3041 
 305   0.0000       1.670435        45.4549 
 306   0.0000       1.678694        45.6796 
 307   0.0000       1.692877        46.0655 
 308   0.0000       1.701749        46.3070 
 309   0.0000       1.710902        46.5560 
 310   0.0000       1.717222        46.7280 
 311   0.0000       1.727424        47.0056 
 312   0.0000       1.736355        47.2486 
 313   0.0000       1.753907        47.7262 
 314   0.0000       1.760855        47.9153 
 315   0.0000       1.765057        48.0296 
 316   0.0000       1.782752        48.5111 
 317   0.0000       1.792446        48.7749 
 318   0.0000       1.806832        49.1664 
 319   0.0000       1.808190        49.2033 
 320   0.0000       1.815259        49.3957 
 321   0.0000       1.823650        49.6241 
 322   0.0000       1.829185        49.7747 
 323   0.0000       1.837256        49.9943 
 324   0.0000       1.848971        50.3131 
 325   0.0000       1.858135        50.5624 
 326   0.0000       1.890185        51.4345 
 327   0.0000       1.896326        51.6017 
 328   0.0000       1.903758        51.8039 
 329   0.0000       1.914919        52.1076 
 330   0.0000       1.930176        52.5228 
 331   0.0000       1.933707        52.6188 
 332   0.0000       1.938876        52.7595 
 333   0.0000       1.948848        53.0309 
 334   0.0000       1.968546        53.5669 
 335   0.0000       1.981457        53.9182 
 336   0.0000       1.988830        54.1188 
 337   0.0000       1.995934        54.3121 
 338   0.0000       2.020102        54.9698 
 339   0.0000       2.021602        55.0106 
 340   0.0000       2.035684        55.3938 
 341   0.0000       2.043244        55.5995 
 342   0.0000       2.059104        56.0311 
 343   0.0000       2.074510        56.4503 
 344   0.0000       2.100984        57.1707 
 345   0.0000       2.115157        57.5563 
 346   0.0000       2.123424        57.7813 
 347   0.0000       2.129507        57.9468 
 348   0.0000       2.152324        58.5677 
 349   0.0000       2.160840        58.7994 
 350   0.0000       2.189767        59.5866 
 351   0.0000       2.202145        59.9234 
 352   0.0000       2.211738        60.1845 
 353   0.0000       2.226812        60.5946 
 354   0.0000       2.245376        61.0998 
 355   0.0000       2.256649        61.4066 
 356   0.0000       2.261988        61.5518 
 357   0.0000       2.284903        62.1754 
 358   0.0000       2.296136        62.4810 
 359   0.0000       2.305815        62.7444 
 360   0.0000       2.309280        62.8387 
 361   0.0000       2.329063        63.3770 
 362   0.0000       2.333139        63.4879 
 363   0.0000       2.342442        63.7411 
 364   0.0000       2.364075        64.3297 
 365   0.0000       2.379748        64.7562 
 366   0.0000       2.387147        64.9576 
 367   0.0000       2.399878        65.3040 
 368   0.0000       2.410563        65.5947 
 369   0.0000       2.433250        66.2121 
 370   0.0000       2.442388        66.4608 
 371   0.0000       2.458734        66.9055 
 372   0.0000       2.460887        66.9641 
 373   0.0000       2.481676        67.5298 
 374   0.0000       2.491461        67.7961 
 375   0.0000       2.503406        68.1211 
 376   0.0000       2.511189        68.3329 
 377   0.0000       2.534843        68.9766 
 378   0.0000       2.554354        69.5075 
 379   0.0000       2.564449        69.7822 
 380   0.0000       2.572391        69.9983 
 381   0.0000       2.582774        70.2809 
 382   0.0000       2.586266        70.3759 
 383   0.0000       2.604758        70.8791 
 384   0.0000       2.616139        71.1887 
 385   0.0000       2.622518        71.3623 
 386   0.0000       2.631507        71.6069 
 387   0.0000       2.642711        71.9118 
 388   0.0000       2.659634        72.3723 
 389   0.0000       2.665248        72.5251 
 390   0.0000       2.687250        73.1238 
 391   0.0000       2.695459        73.3472 
 392   0.0000       2.704683        73.5982 
 393   0.0000       2.709685        73.7343 
 394   0.0000       2.722169        74.0740 
 395   0.0000       2.734794        74.4175 
 396   0.0000       2.735900        74.4476 
 397   0.0000       2.745042        74.6964 
 398   0.0000       2.764742        75.2324 
 399   0.0000       2.775242        75.5182 
 400   0.0000       2.780664        75.6657 
 401   0.0000       2.785195        75.7890 
 402   0.0000       2.797382        76.1206 
 403   0.0000       2.811991        76.5182 
 404   0.0000       2.825621        76.8891 
 405   0.0000       2.835159        77.1486 
 406   0.0000       2.835927        77.1695 
 407   0.0000       2.852747        77.6272 
 408   0.0000       2.856176        77.7205 
 409   0.0000       2.859369        77.8074 
 410   0.0000       2.868801        78.0641 
 411   0.0000       2.879145        78.3455 
 412   0.0000       2.885106        78.5077 
 413   0.0000       2.899556        78.9009 
 414   0.0000       2.913212        79.2725 
 415   0.0000       2.914814        79.3161 
 416   0.0000       2.931715        79.7760 
 417   0.0000       2.942449        80.0681 
 418   0.0000       2.956334        80.4459 
 419   0.0000       2.962690        80.6189 
 420   0.0000       2.971337        80.8542 
 421   0.0000       2.979111        81.0657 
 422   0.0000       2.993644        81.4612 
 423   0.0000       2.996543        81.5401 
 424   0.0000       3.000910        81.6589 
 425   0.0000       3.012595        81.9769 
 426   0.0000       3.016830        82.0921 
 427   0.0000       3.026344        82.3510 
 428   0.0000       3.040353        82.7322 
 429   0.0000       3.045415        82.8700 
 430   0.0000       3.051984        83.0487 
 431   0.0000       3.053044        83.0775 
 432   0.0000       3.070235        83.5453 
 433   0.0000       3.072206        83.5990 
 434   0.0000       3.075201        83.6805 
 435   0.0000       3.078399        83.7675 
 436   0.0000       3.088332        84.0378 
 437   0.0000       3.091488        84.1237 
 438   0.0000       3.102009        84.4100 
 439   0.0000       3.110089        84.6298 
 440   0.0000       3.113610        84.7256 
 441   0.0000       3.115352        84.7730 
 442   0.0000       3.122888        84.9781 
 443   0.0000       3.129024        85.1451 
 444   0.0000       3.139629        85.4336 
 445   0.0000       3.154412        85.8359 
 446   0.0000       3.163175        86.0744 
 447   0.0000       3.172293        86.3225 
 448   0.0000       3.183205        86.6194 
 449   0.0000       3.190808        86.8263 
 450   0.0000       3.194962        86.9393 
 451   0.0000       3.197148        86.9988 
 452   0.0000       3.216570        87.5273 
 453   0.0000       3.222580        87.6909 
 454   0.0000       3.228854        87.8616 
 455   0.0000       3.233523        87.9886 
 456   0.0000       3.236421        88.0675 
 457   0.0000       3.248548        88.3975 
 458   0.0000       3.250162        88.4414 
 459   0.0000       3.265486        88.8584 
 460   0.0000       3.271498        89.0220 
 461   0.0000       3.275125        89.1207 
 462   0.0000       3.284096        89.3648 
 463   0.0000       3.292993        89.6069 
 464   0.0000       3.300598        89.8138 
 465   0.0000       3.310932        90.0950 
 466   0.0000       3.315116        90.2089 
 467   0.0000       3.316378        90.2432 
 468   0.0000       3.326173        90.5098 
 469   0.0000       3.333635        90.7128 
 470   0.0000       3.340999        90.9132 
 471   0.0000       3.342587        90.9564 
 472   0.0000       3.348150        91.1078 
 473   0.0000       3.353850        91.2629 
 474   0.0000       3.359514        91.4170 
 475   0.0000       3.368537        91.6626 
 476   0.0000       3.369843        91.6981 
 477   0.0000       3.384515        92.0973 
 478   0.0000       3.387887        92.1891 
 479   0.0000       3.393165        92.3327 
 480   0.0000       3.402049        92.5745 
 481   0.0000       3.407817        92.7314 
 482   0.0000       3.409778        92.7848 
 483   0.0000       3.413267        92.8797 
 484   0.0000       3.417353        92.9909 
 485   0.0000       3.425746        93.2193 
 486   0.0000       3.428576        93.2963 
 487   0.0000       3.429784        93.3292 
 488   0.0000       3.438139        93.5565 
 489   0.0000       3.442794        93.6832 
 490   0.0000       3.443438        93.7007 
 491   0.0000       3.448391        93.8355 
 492   0.0000       3.453856        93.9842 
 493   0.0000       3.457302        94.0780 
 494   0.0000       3.472043        94.4791 
 495   0.0000       3.473806        94.5271 
 496   0.0000       3.481603        94.7392 
 497   0.0000       3.484557        94.8196 
 498   0.0000       3.495138        95.1076 
 499   0.0000       3.503119        95.3247 
 500   0.0000       3.512958        95.5925 
 501   0.0000       3.524822        95.9153 
 502   0.0000       3.533065        96.1396 
 503   0.0000       3.543290        96.4178 
 504   0.0000       3.553634        96.6993 
 505   0.0000       3.556649        96.7813 
 506   0.0000       3.559889        96.8695 
 507   0.0000       3.566833        97.0585 
 508   0.0000       3.574936        97.2789 
 509   0.0000       3.584540        97.5403 
 510   0.0000       3.587959        97.6333 
 511   0.0000       3.603770        98.0636 
 512   0.0000       3.606635        98.1415 
 513   0.0000       3.613704        98.3339 
 514   0.0000       3.620518        98.5193 
 515   0.0000       3.626074        98.6705 
 516   0.0000       3.630554        98.7924 
 517   0.0000       3.633541        98.8737 
 518   0.0000       3.641335        99.0858 
 519   0.0000       3.645144        99.1894 
 520   0.0000       3.647734        99.2599 
 521   0.0000       3.652818        99.3982 
 522   0.0000       3.661896        99.6453 
 523   0.0000       3.665516        99.7438 
 524   0.0000       3.673382        99.9578 
 525   0.0000       3.676932       100.0544 
 526   0.0000       3.679254       100.1176 
 527   0.0000       3.687161       100.3328 
 528   0.0000       3.704332       100.8000 
 529   0.0000       3.711065       100.9832 
 530   0.0000       3.717250       101.1515 
 531   0.0000       3.725966       101.3887 
 532   0.0000       3.733924       101.6052 
 533   0.0000       3.737425       101.7005 
 534   0.0000       3.743532       101.8667 
 535   0.0000       3.750444       102.0548 
 536   0.0000       3.753685       102.1430 
 537   0.0000       3.761536       102.3566 
 538   0.0000       3.764462       102.4362 
 539   0.0000       3.772913       102.6662 
 540   0.0000       3.781337       102.8954 
 541   0.0000       3.791122       103.1617 
 542   0.0000       3.796456       103.3068 
 543   0.0000       3.805074       103.5413 
 544   0.0000       3.815955       103.8374 
 545   0.0000       3.819313       103.9288 
 546   0.0000       3.822638       104.0193 
 547   0.0000       3.831193       104.2521 
 548   0.0000       3.837507       104.4239 
 549   0.0000       3.847188       104.6873 
 550   0.0000       3.854990       104.8996 
 551   0.0000       3.858261       104.9886 
 552   0.0000       3.868228       105.2598 
 553   0.0000       3.880679       105.5986 
 554   0.0000       3.892125       105.9101 
 555   0.0000       3.894831       105.9837 
 556   0.0000       3.901021       106.1522 
 557   0.0000       3.917483       106.6001 
 558   0.0000       3.922760       106.7437 
 559   0.0000       3.932485       107.0084 
 560   0.0000       3.941186       107.2451 
 561   0.0000       3.949230       107.4640 
 562   0.0000       3.952867       107.5630 
 563   0.0000       3.971708       108.0757 
 564   0.0000       3.980156       108.3055 
 565   0.0000       3.986095       108.4672 
 566   0.0000       3.989073       108.5482 
 567   0.0000       3.993154       108.6592 
 568   0.0000       4.013837       109.2221 
 569   0.0000       4.017526       109.3224 
 570   0.0000       4.025315       109.5344 
 571   0.0000       4.042504       110.0021 
 572   0.0000       4.044697       110.0618 
 573   0.0000       4.054959       110.3411 
 574   0.0000       4.068227       110.7021 
 575   0.0000       4.071085       110.7799 
 576   0.0000       4.077592       110.9569 
 577   0.0000       4.086298       111.1938 
 578   0.0000       4.101520       111.6080 
 579   0.0000       4.113437       111.9323 
 580   0.0000       4.117963       112.0555 
 581   0.0000       4.120966       112.1372 
 582   0.0000       4.137466       112.5862 
 583   0.0000       4.139137       112.6316 
 584   0.0000       4.146862       112.8419 
 585   0.0000       4.149887       112.9242 
 586   0.0000       4.158478       113.1579 
 587   0.0000       4.164672       113.3265 
 588   0.0000       4.170858       113.4948 
 589   0.0000       4.176145       113.6387 
 590   0.0000       4.184690       113.8712 
 591   0.0000       4.189948       114.0143 
 592   0.0000       4.196817       114.2012 
 593   0.0000       4.200199       114.2932 
 594   0.0000       4.210116       114.5631 
 595   0.0000       4.215834       114.7187 
 596   0.0000       4.220509       114.8459 
 597   0.0000       4.224638       114.9582 
 598   0.0000       4.235582       115.2560 
 599   0.0000       4.253275       115.7375 
 600   0.0000       4.257498       115.8524 
 601   0.0000       4.262299       115.9830 
 602   0.0000       4.272723       116.2667 
 603   0.0000       4.280713       116.4841 
 604   0.0000       4.286379       116.6383 
 605   0.0000       4.294229       116.8519 
 606   0.0000       4.311101       117.3110 
 607   0.0000       4.314448       117.4021 
 608   0.0000       4.322626       117.6246 
 609   0.0000       4.335554       117.9764 
 610   0.0000       4.340134       118.1011 
 611   0.0000       4.344452       118.2186 
 612   0.0000       4.355783       118.5269 
 613   0.0000       4.360427       118.6533 
 614   0.0000       4.369067       118.8883 
 615   0.0000       4.370207       118.9194 
 616   0.0000       4.378411       119.1426 
 617   0.0000       4.386952       119.3750 
 618   0.0000       4.403000       119.8117 
 619   0.0000       4.406811       119.9154 
 620   0.0000       4.411472       120.0423 
 621   0.0000       4.422541       120.3435 
 622   0.0000       4.425327       120.4193 
 623   0.0000       4.434707       120.6745 
 624   0.0000       4.436991       120.7367 
 625   0.0000       4.443335       120.9093 
 626   0.0000       4.448900       121.0607 
 627   0.0000       4.468453       121.5928 
 628   0.0000       4.473247       121.7232 
 629   0.0000       4.480020       121.9075 
 630   0.0000       4.491076       122.2084 
 631   0.0000       4.504951       122.5860 
 632   0.0000       4.510866       122.7469 
 633   0.0000       4.526468       123.1715 
 634   0.0000       4.533519       123.3633 
 635   0.0000       4.546866       123.7265 
 636   0.0000       4.547908       123.7549 
 637   0.0000       4.557053       124.0037 
 638   0.0000       4.565077       124.2221 
 639   0.0000       4.577536       124.5611 
 640   0.0000       4.590516       124.9143 
 641   0.0000       4.597070       125.0926 
 642   0.0000       4.602780       125.2480 
 643   0.0000       4.613795       125.5477 
 644   0.0000       4.620880       125.7405 
 645   0.0000       4.623147       125.8022 
 646   0.0000       4.628625       125.9513 
 647   0.0000       4.635820       126.1471 
 648   0.0000       4.641038       126.2891 
 649   0.0000       4.649765       126.5265 
 650   0.0000       4.655332       126.6780 
 651   0.0000       4.660240       126.8116 
 652   0.0000       4.677460       127.2802 
 653   0.0000       4.685290       127.4932 
 654   0.0000       4.694250       127.7370 
 655   0.0000       4.704020       128.0029 
 656   0.0000       4.714759       128.2951 
 657   0.0000       4.717597       128.3723 
 658   0.0000       4.735592       128.8620 
 659   0.0000       4.745008       129.1182 
 660   0.0000       4.757461       129.4571 
 661   0.0000       4.764413       129.6463 
 662   0.0000       4.771754       129.8460 
 663   0.0000       4.789344       130.3247 
 664   0.0000       4.812702       130.9603 
 665   0.0000       4.819807       131.1536 
 666   0.0000       4.832803       131.5073 
 667   0.0000       4.854559       132.0993 
 668   0.0000       4.858673       132.2112 
 669   0.0000       4.880736       132.8116 
 670   0.0000       4.905415       133.4831 
 671   0.0000       4.928350       134.1072 
 672   0.0000       4.950008       134.6966 
 673   0.0000       4.958244       134.9207 
 674   0.0000       4.966215       135.1376 
 675   0.0000       4.982777       135.5882 
 676   0.0000       5.013097       136.4133 
 677   0.0000       5.027208       136.7973 
 678   0.0000       5.032687       136.9464 
 679   0.0000       5.047233       137.3422 
 680   0.0000       5.053239       137.5056 
 681   0.0000       5.077067       138.1540 
 682   0.0000       5.085010       138.3702 
 683   0.0000       5.091537       138.5478 
 684   0.0000       5.110283       139.0579 
 685   0.0000       5.117971       139.2671 
 686   0.0000       5.127893       139.5371 
 687   0.0000       5.145554       140.0177 
 688   0.0000       5.149307       140.1198 
 689   0.0000       5.162363       140.4750 
 690   0.0000       5.166788       140.5954 
 691   0.0000       5.175837       140.8417 
 692   0.0000       5.186073       141.1202 
 693   0.0000       5.194503       141.3496 
 694   0.0000       5.209725       141.7638 
 695   0.0000       5.212760       141.8464 
 696   0.0000       5.222025       142.0985 
 697   0.0000       5.225159       142.1838 
 698   0.0000       5.244517       142.7106 
 699   0.0000       5.253812       142.9635 
 700   0.0000       5.265451       143.2802 
 701   0.0000       5.273452       143.4979 
 702   0.0000       5.298897       144.1903 
 703   0.0000       5.312019       144.5474 
 704   0.0000       5.319012       144.7377 
 705   0.0000       5.333654       145.1361 
 706   0.0000       5.345094       145.4474 
 707   0.0000       5.350659       145.5988 
 708   0.0000       5.376652       146.3062 
 709   0.0000       5.379454       146.3824 
 710   0.0000       5.396783       146.8539 
 711   0.0000       5.407732       147.1519 
 712   0.0000       5.421680       147.5314 
 713   0.0000       5.446938       148.2187 
 714   0.0000       5.467956       148.7907 
 715   0.0000       5.488637       149.3534 
 716   0.0000       5.509669       149.9257 
 717   0.0000       5.515339       150.0800 
 718   0.0000       5.521322       150.2428 
 719   0.0000       5.532930       150.5587 
 720   0.0000       5.544945       150.8856 
 721   0.0000       5.549885       151.0201 
 722   0.0000       5.557634       151.2309 
 723   0.0000       5.573382       151.6594 
 724   0.0000       5.586880       152.0267 
 725   0.0000       5.600025       152.3844 
 726   0.0000       5.607958       152.6003 
 727   0.0000       5.626420       153.1027 
 728   0.0000       5.633105       153.2846 
 729   0.0000       5.635175       153.3409 
 730   0.0000       5.649432       153.7289 
 731   0.0000       5.659674       154.0076 
 732   0.0000       5.675691       154.4434 
 733   0.0000       5.688736       154.7984 
 734   0.0000       5.706864       155.2917 
 735   0.0000       5.714369       155.4959 
 736   0.0000       5.720468       155.6619 
 737   0.0000       5.737793       156.1333 
 738   0.0000       5.748633       156.4283 
 739   0.0000       5.756214       156.6345 
 740   0.0000       5.767661       156.9460 
 741   0.0000       5.782385       157.3467 
 742   0.0000       5.798572       157.7872 
 743   0.0000       5.807053       158.0179 
 744   0.0000       5.824749       158.4995 
 745   0.0000       5.841986       158.9685 
 746   0.0000       5.865661       159.6127 
 747   0.0000       5.876182       159.8990 
 748   0.0000       5.904008       160.6562 
 749   0.0000       5.936122       161.5301 
 750   0.0000       5.953474       162.0023 
 751   0.0000       5.971898       162.5036 
 752   0.0000       5.988613       162.9585 
 753   0.0000       6.005472       163.4172 
 754   0.0000       6.013870       163.6457 
 755   0.0000       6.020315       163.8211 
 756   0.0000       6.057871       164.8430 
 757   0.0000       6.065139       165.0408 
 758   0.0000       6.071201       165.2058 
 759   0.0000       6.096452       165.8929 
 760   0.0000       6.109870       166.2580 
 761   0.0000       6.167954       167.8386 
 762   0.0000       6.217077       169.1753 
 763   0.0000       6.227979       169.4719 
 764   0.0000       6.252857       170.1489 
 765   0.0000       6.260189       170.3484 
 766   0.0000       6.295911       171.3205 
 767   0.0000       6.314029       171.8135 
 768   0.0000       6.346886       172.7075 
 769   0.0000       6.366962       173.2538 
 770   0.0000       6.384167       173.7220 
 771   0.0000       6.388379       173.8366 
 772   0.0000       6.408370       174.3806 
 773   0.0000       6.447636       175.4491 
 774   0.0000       6.462288       175.8478 
 775   0.0000       6.486617       176.5098 
 776   0.0000       6.502205       176.9340 
 777   0.0000       6.554636       178.3607 
 778   0.0000       6.588783       179.2899 
 779   0.0000       6.622970       180.2202 
 780   0.0000       6.652785       181.0315 
 781   0.0000       6.678326       181.7265 
 782   0.0000       6.739790       183.3990 
 783   0.0000       6.782939       184.5732 
 784   0.0000       6.802499       185.1054 
 785   0.0000       6.891749       187.5340 
 786   0.0000       6.908198       187.9816 
 787   0.0000       6.919986       188.3024 
 788   0.0000       6.938445       188.8047 
 789   0.0000       7.035858       191.4554 
 790   0.0000       7.048884       191.8099 
 791   0.0000       7.066053       192.2771 
 792   0.0000       7.079584       192.6453 
 793   0.0000       7.141250       194.3233 
 794   0.0000       7.254771       197.4124 
 795   0.0000       7.262711       197.6284 
 796   0.0000       7.280085       198.1012 
 797   0.0000       7.290724       198.3907 
 798   0.0000       7.343360       199.8230 
 799   0.0000       7.380501       200.8336 
 800   0.0000       7.404754       201.4936 
 801   0.0000       7.569982       205.9897 
 802   0.0000       7.582389       206.3273 
 803   0.0000       7.585471       206.4112 
 804   0.0000       7.671948       208.7643 
 805   0.0000       7.815635       212.6742 
 806   0.0000       7.862029       213.9367 
 807   0.0000       7.924403       215.6340 
 808   0.0000       7.933350       215.8774 
 809   0.0000       9.337958       254.0988 
 810   0.0000       9.563539       260.2371 
 811   0.0000      10.805250       294.0258 
 812   0.0000      11.405246       310.3525 
 813   0.0000      11.923733       324.4613 
 814   0.0000      12.579143       342.2959 
 815   0.0000      12.918168       351.5212 
 816   0.0000      13.053061       355.1919 
 817   0.0000      13.137530       357.4904 
 818   0.0000      13.267309       361.0218 
 819   0.0000      13.389623       364.3502 
 820   0.0000      13.559082       368.9614 
 821   0.0000      13.682124       372.3095 
 822   0.0000      13.930186       379.0596 
 823   0.0000      13.991979       380.7411 
 824   0.0000      14.071310       382.8998 
 825   0.0000      14.580309       396.7504 
 826   0.0000      14.778212       402.1356 
 827   0.0000      16.007704       435.5918 

                    ********************************
                    * MULLIKEN POPULATION ANALYSIS *
                    ********************************

-----------------------
MULLIKEN ATOMIC CHARGES
-----------------------
   0 C :   -0.266016
   1 C :    0.010650
   2 O :   -0.370737
   3 C :    0.483713
   4 O :   -0.419936
   5 C :   -0.261725
   6 C :    0.160833
   7 C :   -0.269956
   8 N :   -0.123550
   9 C :    0.213642
  10 S :   -0.439504
  11 N :   -0.206834
  12 C :    0.068557
  13 C :    0.030387
  14 C :   -0.178978
  15 C :   -0.132068
  16 C :   -0.277119
  17 C :    0.310625
  18 O :   -0.355827
  19 C :   -0.252351
  20 H :    0.088880
  21 H :    0.101636
  22 H :    0.090342
  23 H :    0.129082
  24 H :    0.106598
  25 H :    0.132562
  26 H :    0.130348
  27 H :    0.095340
  28 H :    0.197698
  29 H :    0.195024
  30 H :    0.149173
  31 H :    0.154910
  32 H :    0.163571
  33 H :    0.132540
  34 H :    0.241275
  35 H :    0.167210
Sum of atomic charges:    0.0000000

--------------------------------
MULLIKEN REDUCED ORBITAL CHARGES
--------------------------------
  0 C s       :     3.257781  s :     3.257781
      pz      :     1.016653  p :     2.932273
      px      :     1.003270
      py      :     0.912350
      dz2     :     0.017525  d :     0.071507
      dxz     :     0.014444
      dyz     :     0.012799
      dx2y2   :     0.011180
      dxy     :     0.015558
      f0      :     0.000726  f :     0.004455
      f+1     :     0.000907
      f-1     :     0.000505
      f+2     :     0.000414
      f-2     :     0.000195
      f+3     :     0.000636
      f-3     :     0.001071
  1 C s       :     3.171813  s :     3.171813
      pz      :     1.018616  p :     2.647877
      px      :     0.782286
      py      :     0.846974
      dz2     :     0.025233  d :     0.157749
      dxz     :     0.038466
      dyz     :     0.020902
      dx2y2   :     0.033874
      dxy     :     0.039275
      f0      :     0.001708  f :     0.011912
      f+1     :     0.001566
      f-1     :     0.000980
      f+2     :     0.000724
      f-2     :     0.001859
      f+3     :     0.002701
      f-3     :     0.002374
  2 O s       :     3.721772  s :     3.721772
      pz      :     1.823793  p :     4.612592
      px      :     1.533511
      py      :     1.255287
      dz2     :     0.004232  d :     0.034093
      dxz     :     0.002928
      dyz     :     0.004413
      dx2y2   :     0.014448
      dxy     :     0.008071
      f0      :     0.000270  f :     0.002280
      f+1     :     0.000225
      f-1     :     0.000499
      f+2     :     0.000187
      f-2     :     0.000118
[...]
 15 C s       :     2.705586  s :     2.705586
      pz      :     0.904931  p :     2.794996
      px      :     0.919772
      py      :     0.970293
      dz2     :     0.099125  d :     0.417754
      dxz     :     0.068313
      dyz     :     0.062609
      dx2y2   :     0.113926
      dxy     :     0.073781
      f0      :     0.003382  f :     0.041133
      f+1     :     0.005270
      f-1     :     0.006591
      f+2     :     0.007289
      f-2     :     0.006323
      f+3     :     0.006271
      f-3     :     0.006006
 16 C s       :     2.701551  s :     2.701551
      pz      :     0.940534  p :     2.870381
      px      :     0.952403
      py      :     0.977444
      dz2     :     0.047453  d :     0.390197
      dxz     :     0.053697
      dyz     :     0.093728
      dx2y2   :     0.092848
      dxy     :     0.102471
      f0      :     0.004494  f :     0.040280
      f+1     :     0.004243
      f-1     :     0.004520
      f+2     :     0.006591
      f-2     :     0.004885
      f+3     :     0.009217
      f-3     :     0.006329
 17 C s       :     2.701508  s :     2.701508
      pz      :     0.845779  p :     2.680252
      px      :     0.823426
      py      :     1.011047
      dz2     :     0.132310  d :     0.709195
      dxz     :     0.099643
      dyz     :     0.154188
      dx2y2   :     0.156197
      dxy     :     0.166856
      f0      :     0.010407  f :     0.099268
      f+1     :     0.014388
      f-1     :     0.011302
      f+2     :     0.017341
      f-2     :     0.014040
      f+3     :     0.017797
      f-3     :     0.013995
 18 O s       :     3.177126  s :     3.177126
      pz      :     1.414604  p :     4.346070
      px      :     1.426779
      py      :     1.504688
      dz2     :     0.008744  d :     0.075446
      dxz     :     0.016879
      dyz     :     0.019924
      dx2y2   :     0.012453
      dxy     :     0.017447
      f0      :     0.000622  f :     0.005059
      f+1     :     0.000659
      f-1     :     0.000479
      f+2     :     0.000729
      f-2     :     0.001076
      f+3     :     0.000742
      f-3     :     0.000753
 19 C s       :     2.694959  s :     2.694959
      pz      :     0.935475  p :     2.845866
      px      :     0.943491
      py      :     0.966900
      dz2     :     0.079328  d :     0.387639
      dxz     :     0.067733
      dyz     :     0.065602
      dx2y2   :     0.098960
      dxy     :     0.076018
      f0      :     0.003408  f :     0.040771
      f+1     :     0.005558
      f-1     :     0.006006
      f+2     :     0.007283
      f-2     :     0.006926
      f+3     :     0.006036
      f-3     :     0.005555
 20 H s       :     0.852441  s :     0.852441
      pz      :     0.052777  p :     0.152192
      px      :     0.057135
      py      :     0.042280
      dz2     :     0.007083  d :     0.027569
      dxz     :     0.006025
      dyz     :     0.003724
      dx2y2   :     0.005239
      dxy     :     0.005497
 21 H s       :     0.848079  s :     0.848079
      pz      :     0.069351  p :     0.150286
      px      :     0.043339
      py      :     0.037596
      dz2     :     0.009041  d :     0.027487
      dxz     :     0.008427
      dyz     :     0.007686
      dx2y2   :     0.001054
      dxy     :     0.001280
 22 H s       :     0.846998  s :     0.846998
      pz      :     0.040328  p :     0.150718
      px      :     0.059744
      py      :     0.050646
      dz2     :     0.002590  d :     0.027399
      dxz     :     0.006293
      dyz     :     0.002853
      dx2y2   :     0.008737
      dxy     :     0.006926
 23 H s       :     0.852774  s :     0.852774
      pz      :     0.055204  p :     0.148095
      px      :     0.053121
      py      :     0.039770
      dz2     :     0.007124  d :     0.027158
      dxz     :     0.007115
      dyz     :     0.002803
      dx2y2   :     0.004668
      dxy     :     0.005448
 24 H s       :     0.857103  s :     0.857103
      pz      :     0.076667  p :     0.146828
      px      :     0.035282
      py      :     0.034878
      dz2     :     0.009418  d :     0.026893
      dxz     :     0.008262
      dyz     :     0.007042
      dx2y2   :     0.000860
      dxy     :     0.001311
 25 H s       :     0.825549  s :     0.825549
      pz      :     0.039837  p :     0.151247
      px      :     0.073530
      py      :     0.037880
      dz2     :     0.002961  d :     0.027742
      dxz     :     0.008823
      dyz     :     0.000243
      dx2y2   :     0.007370
      dxy     :     0.008346
 26 H s       :     0.825289  s :     0.825289
      pz      :     0.073657  p :     0.150836
      px      :     0.039769
      py      :     0.037410
      dz2     :     0.009530  d :     0.027756
      dxz     :     0.008870
      dyz     :     0.008415
      dx2y2   :     0.000737
      dxy     :     0.000205
 27 H s       :     0.845182  s :     0.845182
      pz      :     0.040730  p :     0.150335
      px      :     0.040541
      py      :     0.069064
      dz2     :     0.003306  d :     0.027702
      dxz     :     0.000533
      dyz     :     0.008275
      dx2y2   :     0.007305
      dxy     :     0.008283
 28 H s       :     0.741982  s :     0.741982
      pz      :     0.068411  p :     0.253601
      px      :     0.063989
      py      :     0.121201
      dz2     :     0.005618  d :     0.061808
      dxz     :     0.000558
      dyz     :     0.020283
      dx2y2   :     0.015870
      dxy     :     0.019479
 29 H s       :     0.749145  s :     0.749145
      pz      :     0.100719  p :     0.254256
      px      :     0.099684
      py      :     0.053853
      dz2     :     0.015694  d :     0.061416
      dxz     :     0.012599
      dyz     :     0.009688
      dx2y2   :     0.012357
      dxy     :     0.011077
 30 H s       :     0.832668  s :     0.832668
      pz      :     0.051628  p :     0.148628
      px      :     0.045314
      py      :     0.051686
      dz2     :     0.005568  d :     0.028443
      dxz     :     0.005820
      dyz     :     0.006153
      dx2y2   :     0.004733
      dxy     :     0.006169
 31 H s       :     0.845265  s :     0.845265
      pz      :     0.055135  p :     0.157613
      px      :     0.062621
      py      :     0.039857
      dz2     :     0.005574  d :     0.027577
      dxz     :     0.006331
      dyz     :     0.004225
      dx2y2   :     0.005761
      dxy     :     0.005685
 32 H s       :     0.842817  s :     0.842817
      pz      :     0.036730  p :     0.151346
      px      :     0.037512
      py      :     0.077105
      dz2     :     0.002642  d :     0.026456
      dxz     :     0.000347
      dyz     :     0.007707
      dx2y2   :     0.007759
      dxy     :     0.008000
 33 H s       :     0.848151  s :     0.848151
      pz      :     0.058536  p :     0.159033
      px      :     0.052289
      py      :     0.048208
      dz2     :     0.006352  d :     0.027754
      dxz     :     0.005284
      dyz     :     0.005745
      dx2y2   :     0.005402
      dxy     :     0.004971
 34 H s       :     0.706124  s :     0.706124
      pz      :     0.112922  p :     0.347595
      px      :     0.092656
      py      :     0.142017
      dz2     :     0.023591  d :     0.099517
      dxz     :     0.012892
      dyz     :     0.023400
      dx2y2   :     0.019928
      dxy     :     0.019706
 35 H s       :     0.838171  s :     0.838171
      pz      :     0.038960  p :     0.157399
      px      :     0.039868
      py      :     0.078572
      dz2     :     0.002718  d :     0.028056
      dxz     :     0.000361
      dyz     :     0.008491
      dx2y2   :     0.007927
      dxy     :     0.008559


                      *****************************
                      * MAYER POPULATION ANALYSIS *
                      *****************************

  NA   - Mulliken gross atomic population
  ZA   - Total nuclear charge
  QA   - Mulliken gross atomic charge
  VA   - Mayer's total valence
  BVA  - Mayer's bonded valence
  FA   - Mayer's free valence

  ATOM       NA         ZA         QA         VA         BVA        FA
  0 C      6.2660     6.0000    -0.2660     3.8968     3.8968     0.0000
  1 C      5.9894     6.0000     0.0106     3.8390     3.8390    -0.0000
  2 O      8.3707     8.0000    -0.3707     2.0258     2.0258     0.0000
  3 C      5.5163     6.0000     0.4837     4.2411     4.2411     0.0000
  4 O      8.4199     8.0000    -0.4199     2.0935     2.0935    -0.0000
  5 C      6.2617     6.0000    -0.2617     3.6568     3.6568     0.0000
  6 C      5.8392     6.0000     0.1608     3.8743     3.8743    -0.0000
  7 C      6.2700     6.0000    -0.2700     3.9041     3.9041    -0.0000
  8 N      7.1235     7.0000    -0.1235     3.3101     3.3101     0.0000
  9 C      5.7864     6.0000     0.2136     4.1507     4.1507    -0.0000
 10 S     16.4395    16.0000    -0.4395     1.7549     1.7549    -0.0000
 11 N      7.2068     7.0000    -0.2068     3.2487     3.2487     0.0000
 12 C      5.9314     6.0000     0.0686     3.9376     3.9376     0.0000
 13 C      5.9696     6.0000     0.0304     3.7244     3.7244     0.0000
 14 C      6.1790     6.0000    -0.1790     3.8384     3.8384    -0.0000
 15 C      6.1321     6.0000    -0.1321     3.7977     3.7977    -0.0000
 16 C      6.2771     6.0000    -0.2771     3.7898     3.7898     0.0000
 17 C      5.6894     6.0000     0.3106     3.8827     3.8827    -0.0000
 18 O      8.3558     8.0000    -0.3558     2.1207     2.1207     0.0000
 19 C      6.2524     6.0000    -0.2524     3.8433     3.8433    -0.0000
 20 H      0.9111     1.0000     0.0889     0.9877     0.9877    -0.0000
 21 H      0.8984     1.0000     0.1016     0.9857     0.9857    -0.0000
 22 H      0.9097     1.0000     0.0903     0.9838     0.9838    -0.0000
 23 H      0.8709     1.0000     0.1291     0.9849     0.9849    -0.0000
 24 H      0.8934     1.0000     0.1066     0.9665     0.9665     0.0000
 25 H      0.8674     1.0000     0.1326     0.9794     0.9794    -0.0000
 26 H      0.8697     1.0000     0.1303     0.9809     0.9809     0.0000
 27 H      0.9047     1.0000     0.0953     0.9859     0.9859    -0.0000
 28 H      0.8023     1.0000     0.1977     1.0224     1.0224     0.0000
 29 H      0.8050     1.0000     0.1950     1.0188     1.0188    -0.0000
 30 H      0.8508     1.0000     0.1492     0.9933     0.9933     0.0000
 31 H      0.8451     1.0000     0.1549     0.9823     0.9823     0.0000
 32 H      0.8364     1.0000     0.1636     0.9761     0.9761     0.0000
 33 H      0.8675     1.0000     0.1325     0.9911     0.9911     0.0000
 34 H      0.7587     1.0000     0.2413     1.0103     1.0103    -0.0000
 35 H      0.8328     1.0000     0.1672     0.9856     0.9856     0.0000

  Mayer bond orders larger than 0.100000
B(  0-C ,  1-C ) :   0.9756 B(  0-C , 20-H ) :   0.9780 B(  0-C , 21-H ) :   0.9780 
B(  0-C , 22-H ) :   0.9770 B(  1-C ,  2-O ) :   0.8759 B(  1-C , 23-H ) :   0.9794 
B(  1-C , 24-H ) :   0.9669 B(  2-O ,  3-C ) :   1.1345 B(  3-C ,  4-O ) :   2.0008 
B(  3-C ,  5-C ) :   1.0619 B(  5-C ,  6-C ) :   1.6504 B(  5-C , 12-C ) :   0.9722 
B(  6-C ,  7-C ) :   0.9660 B(  6-C ,  8-N ) :   1.1614 B(  7-C , 25-H ) :   0.9592 
B(  7-C , 26-H ) :   0.9612 B(  7-C , 27-H ) :   0.9905 B(  8-N ,  9-C ) :   1.1832 
B(  8-N , 28-H ) :   0.9478 B(  9-C , 10-S ) :   1.6066 B(  9-C , 11-N ) :   1.3065 
B( 11-N , 12-C ) :   0.9791 B( 11-N , 29-H ) :   0.9519 B( 12-C , 13-C ) :   0.9379 
B( 12-C , 30-H ) :   1.0015 B( 13-C , 14-C ) :   1.3578 B( 13-C , 19-C ) :   1.3811 
B( 14-C , 15-C ) :   1.3869 B( 14-C , 31-H ) :   0.9716 B( 15-C , 16-C ) :   1.3637 
B( 15-C , 32-H ) :   0.9696 B( 16-C , 17-C ) :   1.3297 B( 16-C , 33-H ) :   0.9843 
B( 17-C , 18-O ) :   1.1131 B( 17-C , 19-C ) :   1.3723 B( 18-O , 34-H ) :   0.9793 
B( 19-C , 35-H ) :   0.9578 

-------
TIMINGS
-------

Total SCF time: 0 days 2 hours 0 min 37 sec 

Total time                  ....    7237.944 sec
Sum of individual times     ....    7228.575 sec  ( 99.9%)

Fock matrix formation       ....    7206.568 sec  ( 99.6%)
Diagonalization             ....       1.593 sec  (  0.0%)
Density matrix formation    ....       0.216 sec  (  0.0%)
Population analysis         ....       0.350 sec  (  0.0%)
Initial guess               ....       6.683 sec  (  0.1%)
Orbital Transformation      ....       0.000 sec  (  0.0%)
Orbital Orthonormalization  ....       0.000 sec  (  0.0%)
DIIS solution               ....       7.236 sec  (  0.1%)
SOSCF solution              ....       4.314 sec  (  0.1%)

Maximum memory used throughout the entire SCF-calculation: 743.0 MB

------------------------------------------------------------------------------
                                ORCA  MP2 
------------------------------------------------------------------------------

Freezing NCore=48 chemical core electrons

-------------
RI-MP2 ENERGY
-------------
Dimension of the basis                    ...  828
Memory devoted to MP2                     ...  256 MB   
Data format for buffers                   ... DOUBLE
Compression type for matrix containers    ... UNCOMPRESSED
Overall scaling of the MP2 energy         ...   1.000e+00
Calculating two index integrals           ... done (    0.046 sec)
Cholesky decomposition of V**-1           ... done (    0.590 sec)

-----------------
RI-TRANSFORMATION (AUX index driven)
-----------------

Dimension of the orbital-basis         ... 828
Dimension of the aux-basis             ... 2141
Transformation of internal/external MOs...   24-  76 to   77- 827
Number Format for Storage              ... Double (8 Byte)
Integral mode                          ... Direct

First Phase: integral generation and transformation of MO indices
  Aux angular momentum 0               ... done (    5.567 sec)
  Aux angular momentum 1               ... done (    9.477 sec)
  Aux angular momentum 2               ... done (   11.884 sec)
  Aux angular momentum 3               ... done (    9.245 sec)
  Aux angular momentum 4               ... done (    3.201 sec)
Closing buffer VIA ( 0.63 GB; CompressionRatio= 1.00)
  Phase 1 completed in    39.824 sec
Second Phase: sorting and transformation of aux index

IA-Transformation
Memory available                       ... 157 MB 
Max. # MO pairs treated in a batch     ... 11    
# of internal orbitals                 ... 53
# batches for internal orbitals        ... 5
Closing buffer IAV ( 0.63 GB; CompressionRatio= 1.00)
(ia|v) transformation done in    27.503 sec

  Phase 2 completed in    27.512 sec
RI-Integral transformation completed in    67.350 sec
Opening buffers                              ... done

Starting loop over batches of integrals:

Operator 0  - window                       ... ( 24- 76)x( 77-827)
Operator 0  - Memory available             ...   256 MB
Operator 0  - Memory needed per MO         ...  12.3 MB
Operator 0  - Number of orbitals per batch ... 13
Operator 0  - Number of batches            ... 5

OPERATOR  0   PASS   0:  MOs    24 ...   36
  Reading integrals       ... ok
  Internal MO  26
  Internal MO  29
  Internal MO  32
  Internal MO  35
OPERATOR  0   PASS   1:  MOs    37 ...   49
  Reading integrals       ... ok
  Internal MO  38
  Internal MO  41
  Internal MO  44
  Internal MO  47
OPERATOR  0   PASS   2:  MOs    50 ...   62
  Reading integrals       ... ok
  Internal MO  50
  Internal MO  53
  Internal MO  56
  Internal MO  59
  Internal MO  62
OPERATOR  0   PASS   3:  MOs    63 ...   75
  Reading integrals       ... ok
  Internal MO  65
  Internal MO  68
  Internal MO  71
  Internal MO  74
OPERATOR  0   PASS   4:  MOs    76 ...   76
  Reading integrals       ... ok
Time spent in pair loops =    86.856 sec
Deleting buffer (Ka|jb)[aa] ...done

-----------------------------------------------
 RI-MP2 CORRELATION ENERGY:     -3.532605078 Eh
-----------------------------------------------


-------
TIMINGS
-------

Total time                :  155.017 sec
Integral trafo            :   67.369 sec ( 43.5%)
I/O of integrals          :    2.696 sec (  1.7%)
K(i,j) Operators          :   57.288 sec ( 37.0%)
T(i,j) pair energies      :    8.160 sec (  5.3%)
V-calculation             :    0.046 sec (  0.0%)
V**(-1/2)                 :    0.590 sec (  0.4%)
Gamma(ia|P)               :    0.000 sec (  0.0%)
Gamma-Trafo               :    0.000 sec (  0.0%)
D(virtual)                :    0.000 sec (  0.0%)
D(internal)               :    0.000 sec (  0.0%)
W(virtual)                :    0.000 sec (  0.0%)
W(internal)               :    0.000 sec (  0.0%)
L(virtual)                :    0.000 sec (  0.0%)
L(internal)               :    0.000 sec (  0.0%)
G(D)                      :    0.000 sec (  0.0%)
G(Z)                      :    0.000 sec (  0.0%)
Z-Vector Solution         :    0.000 sec (  0.0%)
3-Index Derivative        :    0.000 sec (  0.0%)
2-Index Derivative        :    0.000 sec (  0.0%)
Separable Gradient        :    0.000 sec (  0.0%)


---------------------------------------
MP2 TOTAL ENERGY:    -1274.341721797 Eh
---------------------------------------

Maximum memory used throughout the entire MP2-calculation: 304.7 MB

-------------------------   --------------------
FINAL SINGLE POINT ENERGY     -1274.341721796701
-------------------------   --------------------


                            ***************************************
                            *     ORCA property calculations      *
                            ***************************************


  WARNING: The energy has been calculated at the MP2 level but the densities
           used in the property calculations are still SCF densities
           MP2 response densities have not been calculated 
           use %mp2 Density relaxed end
           or  %mp2 Density unrelaxed end

                                    ---------------------
                                    Active property flags
                                    ---------------------
   (+) Dipole Moment


------------------------------------------------------------------------------
                       ORCA ELECTRIC PROPERTIES CALCULATION
------------------------------------------------------------------------------

Dipole Moment Calculation                       ... on
Quadrupole Moment Calculation                   ... off
Polarizability Calculation                      ... off
GBWName                                         ... CONFS/Conf925.orca.gbw
Electron density file                           ... CONFS/Conf925.orca.scfp
The origin for moment calculation is the CENTER OF MASS  = (32.831913, 31.558070 35.247119)

-------------
DIPOLE MOMENT
-------------
                                X             Y             Z
Electronic contribution:      8.75776      11.33571       6.71410
Nuclear contribution   :     -9.82661     -12.88062      -6.84936
                        -----------------------------------------
Total Dipole Moment    :     -1.06885      -1.54491      -0.13527
                        -----------------------------------------
Magnitude (a.u.)       :      1.88348
Magnitude (Debye)      :      4.78743



--------------------
Rotational spectrum 
--------------------
 
Rotational constants in cm-1:     0.012590     0.008460     0.006349 
Rotational constants in MHz :   377.435466   253.612330   190.334934 

 Dipole components along the rotational axes: 
x,y,z [a.u.] :    -1.880614    -0.039313     0.096160 
x,y,z [Debye]:    -4.780142    -0.099925     0.244420 

 

Timings for individual modules:

Sum of individual times         ...     7398.220 sec (= 123.304 min)
GTO integral calculation        ...        3.792 sec (=   0.063 min)   0.1 %
SCF iterations                  ...     7238.335 sec (= 120.639 min)  97.8 %
MP2 module                      ...      156.093 sec (=   2.602 min)   2.1 %
                             ****ORCA TERMINATED NORMALLY****
TOTAL RUN TIME: 0 days 2 hours 3 minutes 19 seconds 647 msec
