
                                        *****************
                                        * O   R   C   A *
                                        *****************

                                            #,                                       
                                            ###                                      
                                            ####                                     
                                            #####                                    
                                            ######                                   
                                           ########,                                 
                                     ,,################,,,,,                         
                               ,,#################################,,                 
                          ,,##########################################,,             
                       ,#########################################, ''#####,          
                    ,#############################################,,   '####,        
                  ,##################################################,,,,####,       
                ,###########''''           ''''###############################       
              ,#####''   ,,,,##########,,,,          '''####'''          '####       
            ,##' ,,,,###########################,,,                        '##       
           ' ,,###''''                  '''############,,,                           
         ,,##''                                '''############,,,,        ,,,,,,###''
      ,#''                                            '''#######################'''  
     '                                                          ''''####''''         
             ,#######,   #######,   ,#######,      ##                                
            ,#'     '#,  ##    ##  ,#'     '#,    #''#        ######   ,####,        
            ##       ##  ##   ,#'  ##            #'  '#       #        #'  '#        
            ##       ##  #######   ##           ,######,      #####,   #    #        
            '#,     ,#'  ##    ##  '#,     ,#' ,#      #,         ##   #,  ,#        
             '#######'   ##     ##  '#######'  #'      '#     #####' # '####'        



                  #######################################################
                  #                        -***-                        #
                  #          Department of theory and spectroscopy      #
                  #    Directorship and core code : Frank Neese         #
                  #        Max Planck Institute fuer Kohlenforschung    #
                  #                Kaiser Wilhelm Platz 1               #
                  #                 D-45470 Muelheim/Ruhr               #
                  #                      Germany                        #
                  #                                                     #
                  #                  All rights reserved                #
                  #                        -***-                        #
                  #######################################################


                         Program Version 5.0.0 -  RELEASE  -
                                (SVN: $Rev: 19529$)
                ($Date: 2021-06-28 11:36:33 +0200 (Mo, 28 Jun 2021) $)


 With contributions from (in alphabetic order):
   Daniel Aravena         : Magnetic Suceptibility
   Michael Atanasov       : Ab Initio Ligand Field Theory (pilot matlab implementation)
   Alexander A. Auer      : GIAO ZORA, VPT2 properties, NMR spectrum
   Ute Becker             : Parallelization
   Giovanni Bistoni       : ED, misc. LED, open-shell LED, HFLD
   Martin Brehm           : Molecular dynamics
   Dmytro Bykov           : SCF Hessian
   Vijay G. Chilkuri      : MRCI spin determinant printing, contributions to CSF-ICE
   Dipayan Datta          : RHF DLPNO-CCSD density
   Achintya Kumar Dutta   : EOM-CC, STEOM-CC
   Dmitry Ganyushin       : Spin-Orbit,Spin-Spin,Magnetic field MRCI
   Miquel Garcia          : C-PCM Hessian, Gaussian charge scheme
   Yang Guo               : DLPNO-NEVPT2, F12-NEVPT2, CIM, IAO-localization
   Andreas Hansen         : Spin unrestricted coupled pair/coupled cluster methods
   Benjamin Helmich-Paris : MC-RPA, TRAH-SCF, COSX integrals
   Lee Huntington         : MR-EOM, pCC
   Robert Izsak           : Overlap fitted RIJCOSX, COSX-SCS-MP3, EOM
   Marcus Kettner         : VPT2
   Christian Kollmar      : KDIIS, OOCD, Brueckner-CCSD(T), CCSD density, CASPT2, CASPT2-K
   Simone Kossmann        : Meta GGA functionals, TD-DFT gradient, OOMP2, MP2 Hessian
   Martin Krupicka        : Initial AUTO-CI
   Lucas Lang             : DCDCAS
   Marvin Lechner         : AUTO-CI (C++ implementation), FIC-MRCC
   Dagmar Lenk            : GEPOL surface, SMD
   Dimitrios Liakos       : Extrapolation schemes; Compound Job, initial MDCI parallelization
   Dimitrios Manganas     : Further ROCIS development; embedding schemes
   Dimitrios Pantazis     : SARC Basis sets
   Anastasios Papadopoulos: AUTO-CI, single reference methods and gradients
   Taras Petrenko         : DFT Hessian,TD-DFT gradient, ASA, ECA, R-Raman, ABS, FL, XAS/XES, NRVS
   Peter Pinski           : DLPNO-MP2, DLPNO-MP2 Gradient
   Christoph Reimann      : Effective Core Potentials
   Marius Retegan         : Local ZFS, SOC
   Christoph Riplinger    : Optimizer, TS searches, QM/MM, DLPNO-CCSD(T), (RO)-DLPNO pert. Triples
   Tobias Risthaus        : Range-separated hybrids, TD-DFT gradient, RPA, STAB
   Michael Roemelt        : Original ROCIS implementation
   Masaaki Saitow         : Open-shell DLPNO-CCSD energy and density
   Barbara Sandhoefer     : DKH picture change effects
   Avijit Sen             : IP-ROCIS
   Kantharuban Sivalingam : CASSCF convergence, NEVPT2, FIC-MRCI
   Bernardo de Souza      : ESD, SOC TD-DFT
   Georgi Stoychev        : AutoAux, RI-MP2 NMR
   Willem Van den Heuvel  : Paramagnetic NMR
   Boris Wezisla          : Elementary symmetry handling
   Frank Wennmohs         : Technical directorship


 We gratefully acknowledge several colleagues who have allowed us to
 interface, adapt or use parts of their codes:
   Stefan Grimme, W. Hujo, H. Kruse, P. Pracht,  : VdW corrections, initial TS optimization,
                  C. Bannwarth, S. Ehlert          DFT functionals, gCP, sTDA/sTD-DF
   Ed Valeev, F. Pavosevic, A. Kumar             : LibInt (2-el integral package), F12 methods
   Garnet Chan, S. Sharma, J. Yang, R. Olivares  : DMRG
   Ulf Ekstrom                                   : XCFun DFT Library
   Mihaly Kallay                                 : mrcc  (arbitrary order and MRCC methods)
   Jiri Pittner, Ondrej Demel                    : Mk-CCSD
   Frank Weinhold                                : gennbo (NPA and NBO analysis)
   Christopher J. Cramer and Donald G. Truhlar   : smd solvation model
   Lars Goerigk                                  : TD-DFT with DH, B97 family of functionals
   V. Asgeirsson, H. Jonsson                     : NEB implementation
   FAccTs GmbH                                   : IRC, NEB, NEB-TS, DLPNO-Multilevel, CI-OPT
                                                   MM, QMMM, 2- and 3-layer-ONIOM, Crystal-QMMM,
                                                   LR-CPCM, SF, NACMEs, symmetry and pop. for TD-DFT,
                                                   nearIR, NL-DFT gradient (VV10), updates on ESD,
                                                   ML-optimized integration grids
   S Lehtola, MJT Oliveira, MAL Marques          : LibXC Library
   Liviu Ungur et al                             : ANISO software


 Your calculation uses the libint2 library for the computation of 2-el integrals
 For citations please refer to: http://libint.valeyev.net

 Your ORCA version has been built with support for libXC version: 5.1.0
 For citations please refer to: https://tddft.org/programs/libxc/

 This ORCA versions uses:
   CBLAS   interface :  Fast vector & matrix operations
   LAPACKE interface :  Fast linear algebra routines
   SCALAPACK package :  Parallel linear algebra routines
   Shared memory     :  Shared parallel matrices
   BLAS/LAPACK       :  OpenBLAS 0.3.15  USE64BITINT DYNAMIC_ARCH NO_AFFINITY SkylakeX SINGLE_THREADED
        Core in use  :  SkylakeX
   Copyright (c) 2011-2014, The OpenBLAS Project


================================================================================

----- Orbital basis set information -----
Your calculation utilizes the basis: cc-pVTZ 
       H, B-Ne : Obtained from the ccRepo (grant-hill.group.shef.ac.uk/ccrepo) Feb. 2017
                 T. H. Dunning, Jr., J. Chem. Phys. 90, 1007 (1989)
            He : Obtained from the ccRepo (grant-hill.group.shef.ac.uk/ccrepo) Feb. 2017
                 D. E. Woon, T. H. Dunning, Jr., J. Chem. Phys. 100, 2975 (1994)
  Li-Be, Na-Mg : Obtained from the ccRepo (grant-hill.group.shef.ac.uk/ccrepo) Feb. 2017
                 B. P. Prascher, D. E. Woon, K. A. Peterson, T. H. Dunning, Jr., A. K. Wilson, Theor. Chem. Acc. 128, 69 (2011)
         Al-Ar : Obtained from the ccRepo (grant-hill.group.shef.ac.uk/ccrepo) Feb. 2017
                 D. E. Woon, T. H. Dunning, Jr., J. Chem. Phys. 98, 1358 (1993)
            Ca : Obtained from the Peterson Research Group Website (tyr0.chem.wsu.edu/~kipeters) Feb. 2017
                 J. Koput, K. A. Peterson, J. Phys. Chem. 106, 9595 (2002)
         Sc-Zn : Obtained from the ccRepo (grant-hill.group.shef.ac.uk/ccrepo) Feb. 2017
                 N. B. Balabanov, K. A. Peterson, J. Chem. Phys. 123, 064107 (2005)
                 N. B. Balabanov, K. A. Peterson, J. Chem. Phys. 125, 074110 (2006)
         Ga-Kr : Obtained from the ccRepo (grant-hill.group.shef.ac.uk/ccrepo) Feb. 2017
                 A. K. Wilson, D. E. Woon, K. A. Peterson, T. H. Dunning, Jr., J. Chem. Phys. 110, 7667 (1999)
             Y : Obtained from the ccRepo (grant-hill.group.shef.ac.uk/ccrepo) Feb. 2017
                 K. A. Peterson, D. Figgen, M. Dolg, H. Stoll, J. Chem. Phys. 126, 124101 (2007)
        Ag, Au : Obtained from the Peterson Research Group Website (tyr0.chem.wsu.edu/~kipeters) Feb. 2017
                 K. A. Peterson, C. Puzzarini, Theor. Chem. Acc. 114, 283 (2005)

----- AuxC basis set information -----
Your calculation utilizes the auxiliary basis: cc-pVTZ/C 
  Obtained from the EMSL Basis Set Exchange (bse.pnl.gov) Feb. 2017
  H-He, B-F, Al-Ar, Ga-Kr : F. Weigend, A. Kohn, C. Hattig, J. Chem. Phys. 116, 3175 (2002)
             Li-Be, Na-Mg : C. Haettig, Phys. Chem. Chem. Phys. 7, 59 (2005)
                       Ne : C. Haettig, Phys. Chem. Chem. Phys. 7, 59 (2005)
                            F. Weigend, A. Kohn, C. Hattig, J. Chem. Phys. 116, 3175 (2002)
                    Sc-Zn : J. G. Hill, J. A. Platts, J. Chem. Phys. 128, 044104 (2008)

================================================================================
                                        WARNINGS
                       Please study these warnings very carefully!
================================================================================


WARNING: No MP2 level density has been requested!
         To caclulate MP2 level properties use
         %mp2 Density relaxed end
         or
         %mp2 Density unrelaxed end

WARNING: Post HF methods need fully converged wavefunctions
  ===> : Setting SCFConvForced true
         You can overwrite this default with %scf ConvForced false 


INFO   : the flag for use of the SHARK integral package has been found!

================================================================================
                                       INPUT FILE
================================================================================
NAME = CONFS/Conf905.orca
|  1> ! ri-mp2 cc-pvtz cc-pvtz/c TightSCF NoKeepInts
|  2> 
|  3> %scf
|  4>   MaxCore 4096
|  5> end
|  6> *xyz  0  1
|  7>     C       14.1694580   15.0196419   15.8118269
|  8>     C       15.6189261   14.6503456   16.1686683
|  9>     O       16.4175658   15.8330151   16.0088453
| 10>     C       17.6596074   15.8386097   16.5704165
| 11>     O       18.3187708   14.8153430   16.6553456
| 12>     C       17.8680293   16.9907380   17.5077794
| 13>     C       17.2902212   18.2102560   17.3591170
| 14>     C       16.3736568   18.6698054   16.2440838
| 15>     N       17.5871975   19.2345489   18.2637000
| 16>     C       18.5452332   19.1625895   19.2406153
| 17>     S       18.9175565   20.4623858   20.1931940
| 18>     N       19.1807011   17.9552707   19.3872873
| 19>     C       18.8046977   16.7121110   18.6876618
| 20>     C       18.1707730   15.7218727   19.6611543
| 21>     C       18.6953617   14.4236750   19.8004286
| 22>     C       18.1097792   13.5056565   20.6882615
| 23>     C       16.9885662   13.8877461   21.4442661
| 24>     C       16.4603784   15.1784143   21.3056484
| 25>     O       15.3731456   15.5480647   22.0285032
| 26>     C       17.0450522   16.0896957   20.4207319
| 27>     H       13.7972056   15.8105125   16.4747256
| 28>     H       13.5139297   14.1466231   15.9173110
| 29>     H       14.1049114   15.3745778   14.7757320
| 30>     H       15.6596626   14.2999053   17.2096033
| 31>     H       15.9870485   13.8479814   15.5151529
| 32>     H       16.7474275   18.3375965   15.2674760
| 33>     H       16.2824071   19.7617615   16.1970324
| 34>     H       15.3663237   18.2556550   16.3763484
| 35>     H       17.1318707   20.1286258   18.1718805
| 36>     H       19.8607872   17.9202798   20.1357772
| 37>     H       19.7248230   16.2625153   18.2871140
| 38>     H       19.5513507   14.1198452   19.2027292
| 39>     H       18.5221386   12.5026376   20.7822541
| 40>     H       16.5322254   13.1812768   22.1295754
| 41>     H       15.1480135   14.8080270   22.6120838
| 42>     H       16.6221973   17.0843936   20.3316689
| 43> *
| 44> 
| 45>                          ****END OF INPUT****
================================================================================

                       ****************************
                       * Single Point Calculation *
                       ****************************

---------------------------------
CARTESIAN COORDINATES (ANGSTROEM)
---------------------------------
  C     14.169458   15.019642   15.811827
  C     15.618926   14.650346   16.168668
  O     16.417566   15.833015   16.008845
  C     17.659607   15.838610   16.570417
  O     18.318771   14.815343   16.655346
  C     17.868029   16.990738   17.507779
  C     17.290221   18.210256   17.359117
  C     16.373657   18.669805   16.244084
  N     17.587197   19.234549   18.263700
  C     18.545233   19.162589   19.240615
  S     18.917556   20.462386   20.193194
  N     19.180701   17.955271   19.387287
  C     18.804698   16.712111   18.687662
  C     18.170773   15.721873   19.661154
  C     18.695362   14.423675   19.800429
  C     18.109779   13.505656   20.688261
  C     16.988566   13.887746   21.444266
  C     16.460378   15.178414   21.305648
  O     15.373146   15.548065   22.028503
  C     17.045052   16.089696   20.420732
  H     13.797206   15.810512   16.474726
  H     13.513930   14.146623   15.917311
  H     14.104911   15.374578   14.775732
  H     15.659663   14.299905   17.209603
  H     15.987049   13.847981   15.515153
  H     16.747428   18.337597   15.267476
  H     16.282407   19.761761   16.197032
  H     15.366324   18.255655   16.376348
  H     17.131871   20.128626   18.171881
  H     19.860787   17.920280   20.135777
  H     19.724823   16.262515   18.287114
  H     19.551351   14.119845   19.202729
  H     18.522139   12.502638   20.782254
  H     16.532225   13.181277   22.129575
  H     15.148013   14.808027   22.612084
  H     16.622197   17.084394   20.331669

----------------------------
CARTESIAN COORDINATES (A.U.)
----------------------------
  NO LB      ZA    FRAG     MASS         X           Y           Z
   0 C     6.0000    0    12.011   26.776395   28.383010   29.880023
   1 C     6.0000    0    12.011   29.515493   27.685141   30.554355
   2 O     8.0000    0    15.999   31.024703   29.920062   30.252333
   3 C     6.0000    0    12.011   33.371822   29.930635   31.313549
   4 O     8.0000    0    15.999   34.617460   27.996941   31.474042
   5 C     6.0000    0    12.011   33.765682   32.107842   33.084908
   6 C     6.0000    0    12.011   32.673783   34.412397   32.803977
   7 C     6.0000    0    12.011   30.941727   35.280819   30.696870
   8 N     7.0000    0    14.007   33.234987   36.348030   34.513391
   9 C     6.0000    0    12.011   35.045412   36.212046   36.359494
  10 S    16.0000    0    32.060   35.749001   38.668305   38.159606
  11 N     7.0000    0    14.007   36.246272   33.930544   36.636663
  12 C     6.0000    0    12.011   35.535729   31.581313   35.314563
  13 C     6.0000    0    12.011   34.337785   29.710034   37.154197
  14 C     6.0000    0    12.011   35.329114   27.256796   37.417387
  15 C     6.0000    0    12.011   34.222523   25.521992   39.095148
  16 C     6.0000    0    12.011   32.103738   26.244037   40.523790
  17 C     6.0000    0    12.011   31.105607   28.683046   40.261841
  18 O     8.0000    0    15.999   29.051035   29.381584   41.627838
  19 C     6.0000    0    12.011   32.210481   30.405118   38.589591
  20 H     1.0000    0     1.008   26.072940   29.877539   31.132720
  21 H     1.0000    0     1.008   25.537626   26.733243   30.079359
  22 H     1.0000    0     1.008   26.654420   29.053741   27.922087
  23 H     1.0000    0     1.008   29.592474   27.022905   32.521437
  24 H     1.0000    0     1.008   30.211143   26.168892   29.319390
  25 H     1.0000    0     1.008   31.648051   34.653035   28.851348
  26 H     1.0000    0     1.008   30.769290   37.344317   30.607955
  27 H     1.0000    0     1.008   29.038143   34.498188   30.946814
  28 H     1.0000    0     1.008   32.374544   38.037590   34.339877
  29 H     1.0000    0     1.008   37.531449   33.864421   38.051104
  30 H     1.0000    0     1.008   37.274514   30.731700   34.557637
  31 H     1.0000    0     1.008   36.946698   26.682640   36.287899
  32 H     1.0000    0     1.008   35.001769   23.626561   39.272769
  33 H     1.0000    0     1.008   31.241378   24.909003   41.818837
  34 H     1.0000    0     1.008   28.625597   27.983116   42.730646
  35 H     1.0000    0     1.008   31.411401   32.284825   38.421286

--------------------------------
INTERNAL COORDINATES (ANGSTROEM)
--------------------------------
 C      0   0   0     0.000000000000     0.00000000     0.00000000
 C      1   0   0     1.537749431756     0.00000000     0.00000000
 O      2   1   0     1.435993004153   107.49450616     0.00000000
 C      3   2   1     1.363107056819   117.66432770   164.48037157
 O      4   3   2     1.220157399377   121.16344370    32.63159915
 C      4   3   2     1.499829495095   112.78366346   235.66375707
 C      6   4   3     1.357640181316   124.22491953   328.07745515
 C      7   6   4     1.514785459228   127.63540409   358.42189498
 N      7   6   4     1.398442444880   119.78348902   182.27940900
 C      9   7   6     1.370173004075   124.83491068     7.32645589
 S     10   9   7     1.653935077598   121.78750506   175.04426320
 N     10   9   7     1.372206548719   116.50141474   355.07403648
 C     12  10   9     1.475228943848   124.93903555   352.67765624
 C     13  12  10     1.526473079885   110.49106258   251.30562628
 C     14  13  12     1.407092002356   120.45116611   235.43840520
 C     15  14  13     1.404959817565   120.66412995   180.44314995
 C     16  15  14     1.405223828797   119.66083474     0.02822582
 C     17  16  15     1.401435557317   119.86238929     0.16583804
 O     18  17  16     1.356921383684   120.01181946   179.62236963
 C     18  17  16     1.398339892288   120.34386643   359.86114616
 H      1   2   3     1.097033655688   110.65588976   299.82174070
 H      1   2   3     1.096816334947   110.48019331   179.96964242
 H      1   2   3     1.097104552213   110.62808986    60.11528928
 H      2   1   3     1.099096692981   109.34660107   119.78225604
 H      2   1   3     1.098355492935   110.68814295   239.32289248
 H      8   7   6     1.097191908664   110.92939717   316.62300981
 H      8   7   6     1.096771838770   112.57944106   196.81046118
 H      8   7   6     1.097148327524   110.62734646    76.21187021
 H      9   7   6     1.007535020975   119.67312113   182.23259519
 H     12  10   9     1.011918275800   114.88029043   181.98024271
 H     13  12  10     1.099638759431   107.69904658   133.15751296
 H     15  14  13     1.087324371220   119.79465575   359.32376198
 H     16  15  14     1.088541132608   119.91744747   179.65423551
 H     17  16  15     1.084893835476   119.89409470   179.88293368
 H     19  18  17     0.968971917327   107.39430908     3.36290397
 H     20  18  17     1.084510210504   119.12146930   180.21173565

---------------------------
INTERNAL COORDINATES (A.U.)
---------------------------
 C      0   0   0     0.000000000000     0.00000000     0.00000000
 C      1   0   0     2.905925288611     0.00000000     0.00000000
 O      2   1   0     2.713633508075   107.49450616     0.00000000
 C      3   2   1     2.575899028603   117.66432770   164.48037157
 O      4   3   2     2.305763325101   121.16344370    32.63159915
 C      4   3   2     2.834266993307   112.78366346   235.66375707
 C      6   4   3     2.565568131094   124.22491953   328.07745515
 C      7   6   4     2.862529669588   127.63540409   358.42189498
 N      7   6   4     2.642673234874   119.78348902   182.27940900
 C      9   7   6     2.589251733795   124.83491068     7.32645589
 S     10   9   7     3.125484339947   121.78750506   175.04426320
 N     10   9   7     2.593094576253   116.50141474   355.07403648
 C     12  10   9     2.787778688706   124.93903555   352.67765624
 C     13  12  10     2.884616071786   110.49106258   251.30562628
 C     14  13  12     2.659018529683   120.45116611   235.43840520
 C     15  14  13     2.654989284361   120.66412995   180.44314995
 C     16  15  14     2.655488193286   119.66083474     0.02822582
 C     17  16  15     2.648329397669   119.86238929     0.16583804
 O     18  17  16     2.564209800424   120.01181946   179.62236963
 C     18  17  16     2.642479438562   120.34386643   359.86114616
 H      1   2   3     2.073093168944   110.65588976   299.82174070
 H      1   2   3     2.072682492262   110.48019331   179.96964242
 H      1   2   3     2.073227143961   110.62808986    60.11528928
 H      2   1   3     2.076991744432   109.34660107   119.78225604
 H      2   1   3     2.075591079335   110.68814295   239.32289248
 H      8   7   6     2.073392223730   110.92939717   316.62300981
 H      8   7   6     2.072598406673   112.57944106   196.81046118
 H      8   7   6     2.073309867310   110.62734646    76.21187021
 H      9   7   6     1.903965259978   119.67312113   182.23259519
 H     12  10   9     1.912248411172   114.88029043   181.98024271
 H     13  12  10     2.078016101570   107.69904658   133.15751296
 H     15  14  13     2.054745280344   119.79465575   359.32376198
 H     16  15  14     2.057044626138   119.91744747   179.65423551
 H     17  16  15     2.050152233429   119.89409470   179.88293368
 H     19  18  17     1.831091555208   107.39430908     3.36290397
 H     20  18  17     2.049427287294   119.12146930   180.21173565

---------------------
BASIS SET INFORMATION
---------------------
There are 5 groups of distinct atoms

 Group   1 Type C   : 18s5p2d1f contracted to 4s3p2d1f pattern {8811/311/11/1}
 Group   2 Type O   : 18s5p2d1f contracted to 4s3p2d1f pattern {8811/311/11/1}
 Group   3 Type N   : 18s5p2d1f contracted to 4s3p2d1f pattern {8811/311/11/1}
 Group   4 Type S   : 41s16p2d1f contracted to 5s4p2d1f pattern {13131311/7711/11/1}
 Group   5 Type H   : 5s2p1d contracted to 3s2p1d pattern {311/11/1}

Atom   0C    basis set group =>   1
Atom   1C    basis set group =>   1
Atom   2O    basis set group =>   2
Atom   3C    basis set group =>   1
Atom   4O    basis set group =>   2
Atom   5C    basis set group =>   1
Atom   6C    basis set group =>   1
Atom   7C    basis set group =>   1
Atom   8N    basis set group =>   3
Atom   9C    basis set group =>   1
Atom  10S    basis set group =>   4
Atom  11N    basis set group =>   3
Atom  12C    basis set group =>   1
Atom  13C    basis set group =>   1
Atom  14C    basis set group =>   1
Atom  15C    basis set group =>   1
Atom  16C    basis set group =>   1
Atom  17C    basis set group =>   1
Atom  18O    basis set group =>   2
Atom  19C    basis set group =>   1
Atom  20H    basis set group =>   5
Atom  21H    basis set group =>   5
Atom  22H    basis set group =>   5
Atom  23H    basis set group =>   5
Atom  24H    basis set group =>   5
Atom  25H    basis set group =>   5
Atom  26H    basis set group =>   5
Atom  27H    basis set group =>   5
Atom  28H    basis set group =>   5
Atom  29H    basis set group =>   5
Atom  30H    basis set group =>   5
Atom  31H    basis set group =>   5
Atom  32H    basis set group =>   5
Atom  33H    basis set group =>   5
Atom  34H    basis set group =>   5
Atom  35H    basis set group =>   5
---------------------------------
AUXILIARY/C BASIS SET INFORMATION
---------------------------------
There are 5 groups of distinct atoms

 Group   1 Type C   : 8s6p5d3f1g contracted to 8s6p5d3f1g pattern {11111111/111111/11111/111/1}
 Group   2 Type O   : 8s6p5d3f1g contracted to 8s6p5d3f1g pattern {11111111/111111/11111/111/1}
 Group   3 Type N   : 8s6p5d3f1g contracted to 8s6p5d3f1g pattern {11111111/111111/11111/111/1}
 Group   4 Type S   : 10s8p7d5f2g contracted to 10s8p7d5f2g pattern {1111111111/11111111/1111111/11111/11}
 Group   5 Type H   : 4s3p2d1f contracted to 4s3p2d1f pattern {1111/111/11/1}

Atom   0C    basis set group =>   1
Atom   1C    basis set group =>   1
Atom   2O    basis set group =>   2
Atom   3C    basis set group =>   1
Atom   4O    basis set group =>   2
Atom   5C    basis set group =>   1
Atom   6C    basis set group =>   1
Atom   7C    basis set group =>   1
Atom   8N    basis set group =>   3
Atom   9C    basis set group =>   1
Atom  10S    basis set group =>   4
Atom  11N    basis set group =>   3
Atom  12C    basis set group =>   1
Atom  13C    basis set group =>   1
Atom  14C    basis set group =>   1
Atom  15C    basis set group =>   1
Atom  16C    basis set group =>   1
Atom  17C    basis set group =>   1
Atom  18O    basis set group =>   2
Atom  19C    basis set group =>   1
Atom  20H    basis set group =>   5
Atom  21H    basis set group =>   5
Atom  22H    basis set group =>   5
Atom  23H    basis set group =>   5
Atom  24H    basis set group =>   5
Atom  25H    basis set group =>   5
Atom  26H    basis set group =>   5
Atom  27H    basis set group =>   5
Atom  28H    basis set group =>   5
Atom  29H    basis set group =>   5
Atom  30H    basis set group =>   5
Atom  31H    basis set group =>   5
Atom  32H    basis set group =>   5
Atom  33H    basis set group =>   5
Atom  34H    basis set group =>   5
Atom  35H    basis set group =>   5
------------------------------------------------------------------------------
                           ORCA GTO INTEGRAL CALCULATION
------------------------------------------------------------------------------
------------------------------------------------------------------------------
                   ___                                                        
                  /   \      - P O W E R E D   B Y -                         
                 /     \                                                     
                 |  |  |   _    _      __       _____    __    __             
                 |  |  |  | |  | |    /  \     |  _  \  |  |  /  |          
                  \  \/   | |  | |   /    \    | | | |  |  | /  /          
                 / \  \   | |__| |  /  /\  \   | |_| |  |  |/  /          
                |  |  |   |  __  | /  /__\  \  |    /   |      \           
                |  |  |   | |  | | |   __   |  |    \   |  |\   \          
                \     /   | |  | | |  |  |  |  | |\  \  |  | \   \       
                 \___/    |_|  |_| |__|  |__|  |_| \__\ |__|  \__/        
                                                                              
                      - O R C A' S   B I G   F R I E N D -                    
                                      &                                       
                       - I N T E G R A L  F E E D E R -                       
                                                                              
 v1 FN, 2020, v2 2021                                                         
------------------------------------------------------------------------------


Reading SHARK input file CONFS/Conf905.orca.SHARKINP.tmp ... ok
----------------------
SHARK INTEGRAL PACKAGE
----------------------

Number of atoms                             ...     36
Number of basis functions                   ...    828
Number of shells                            ...    298
Maximum angular momentum                    ...      3
Integral batch strategy                     ... SHARK/LIBINT Hybrid
RI-J (if used) integral strategy            ... SPLIT-RIJ (Revised 2003 algorithm where possible)
Printlevel                                  ...      1
Contraction scheme used                     ... SEGMENTED contraction
Coulomb Range Separation                    ... NOT USED
Exchange Range Separation                   ... NOT USED
Finite Nucleus Model                        ... NOT USED
Auxiliary Coulomb fitting basis             ... NOT available
Auxiliary J/K fitting basis                 ... NOT available
Auxiliary Correlation fitting basis         ... AVAILABLE
   # of basis functions in Aux-C            ...   2141
   # of shells in Aux-C                     ...    629
   Maximum angular momentum in Aux-C        ...      4
Auxiliary 'external' fitting basis          ... NOT available
Integral threshold                          ...     2.500000e-11
Primitive cut-off                           ...     2.500000e-12
Primitive pair pre-selection threshold      ...     2.500000e-12

Calculating pre-screening integrals         ... done (  0.9 sec) Dimension = 298
Organizing shell pair data                  ... done (  1.3 sec)
Shell pair information
Total number of shell pairs                 ...     44551
Shell pairs after pre-screening             ...     33085
Total number of primitive shell pairs       ...    234348
Primitive shell pairs kept                  ...     95000
          la=0 lb=0:   6626 shell pairs
          la=1 lb=0:   9221 shell pairs
          la=1 lb=1:   3253 shell pairs
          la=2 lb=0:   5267 shell pairs
          la=2 lb=1:   3609 shell pairs
          la=2 lb=2:   1021 shell pairs
          la=3 lb=0:   1909 shell pairs
          la=3 lb=1:   1305 shell pairs
          la=3 lb=2:    729 shell pairs
          la=3 lb=3:    145 shell pairs

Calculating one electron integrals          ... done (  0.4 sec)
Calculating RI/C V-Matrix + Cholesky decomp.... done (  1.5 sec)
Calculating Nuclear repulsion               ... done (  0.1 sec) ENN=   1702.574376338823 Eh

SHARK setup successfully completed in   4.6 seconds

Maximum memory used throughout the entire GTOINT-calculation: 489.7 MB
-------------------------------------------------------------------------------
                                 ORCA SCF
-------------------------------------------------------------------------------

------------
SCF SETTINGS
------------
Hamiltonian:
 Ab initio Hamiltonian  Method          .... Hartree-Fock(GTOs)


General Settings:
 Integral files         IntName         .... CONFS/Conf905.orca
 Hartree-Fock type      HFTyp           .... RHF
 Total Charge           Charge          ....    0
 Multiplicity           Mult            ....    1
 Number of Electrons    NEL             ....  154
 Basis Dimension        Dim             ....  828
 Nuclear Repulsion      ENuc            ....   1702.5743763388 Eh

Convergence Acceleration:
 DIIS                   CNVDIIS         .... on
   Start iteration      DIISMaxIt       ....    12
   Startup error        DIISStart       ....  0.200000
   # of expansion vecs  DIISMaxEq       ....     5
   Bias factor          DIISBfac        ....   1.050
   Max. coefficient     DIISMaxC        ....  10.000
 Trust-Rad. Augm. Hess. CNVTRAH         .... auto
   Auto Start mean grad. ratio tolernc. ....  1.125000
   Auto Start start iteration           ....    20
   Auto Start num. interpolation iter.  ....    10
   Max. Number of Micro iterations      ....    16
   Max. Number of Macro iterations      .... Maxiter - #DIIS iter
   Number of Davidson start vectors     ....     2
   Converg. threshold I  (grad. norm)   ....   1.000e-05
   Converg. threshold II (energy diff.) ....   1.000e-08
   Grad. Scal. Fac. for Micro threshold ....   0.100
   Minimum threshold for Micro iter.    ....   0.010
   NR start threshold (gradient norm)   ....   0.001
   Initial trust radius                 ....   0.400
   Minimum AH scaling param. (alpha)    ....   1.000
   Maximum AH scaling param. (alpha)    .... 1000.000
   Orbital update algorithm             .... Taylor
   White noise on init. David. guess    .... on
   Maximum white noise                  ....   0.010
   Quad. conv. algorithm                .... NR
 SOSCF                  CNVSOSCF        .... on
   Start iteration      SOSCFMaxIt      ....   150
   Startup grad/error   SOSCFStart      ....  0.003300
 Level Shifting         CNVShift        .... on
   Level shift para.    LevelShift      ....    0.2500
   Turn off err/grad.   ShiftErr        ....    0.0010
 Zerner damping         CNVZerner       .... off
 Static damping         CNVDamp         .... on
   Fraction old density DampFac         ....    0.7000
   Max. Damping (<1)    DampMax         ....    0.9800
   Min. Damping (>=0)   DampMin         ....    0.0000
   Turn off err/grad.   DampErr         ....    0.1000
 Fernandez-Rico         CNVRico         .... off

SCF Procedure:
 Maximum # iterations   MaxIter         ....   125
 SCF integral mode      SCFMode         .... Direct
   Integral package                     .... SHARK and LIBINT hybrid scheme
 Reset frequency        DirectResetFreq ....    20
 Integral Threshold     Thresh          ....  2.500e-11 Eh
 Primitive CutOff       TCut            ....  2.500e-12 Eh

Convergence Tolerance:
 Convergence Check Mode ConvCheckMode   .... Total+1el-Energy
 Convergence forced     ConvForced      .... 1
 Energy Change          TolE            ....  1.000e-08 Eh
 1-El. energy change                    ....  1.000e-05 Eh
 Orbital Gradient       TolG            ....  1.000e-05
 Orbital Rotation angle TolX            ....  1.000e-05
 DIIS Error             TolErr          ....  5.000e-07


Diagonalization of the overlap matrix:
Smallest eigenvalue                        ... 3.464e-05
Time for diagonalization                   ...    0.160 sec
Threshold for overlap eigenvalues          ... 1.000e-08
Number of eigenvalues below threshold      ... 0
Time for construction of square roots      ...    0.164 sec
Total time needed                          ...    0.326 sec

Time for model grid setup =    1.514 sec

------------------------------
INITIAL GUESS: MODEL POTENTIAL
------------------------------
Loading Hartree-Fock densities                     ... done
Calculating cut-offs                               ... done
Initializing the effective Hamiltonian             ... done
Setting up the integral package (SHARK)            ... done
Starting the Coulomb interaction                   ... done (   4.8 sec)
Reading the grid                                   ... done
Mapping shells                                     ... done
Starting the XC term evaluation                    ... done (   1.5 sec)
Transforming the Hamiltonian                       ... done (   0.1 sec)
Diagonalizing the Hamiltonian                      ... done (   0.2 sec)
Back transforming the eigenvectors                 ... done (   0.0 sec)
Now organizing SCF variables                       ... done
                      ------------------
                      INITIAL GUESS DONE (   8.1 sec)
                      ------------------
--------------
SCF ITERATIONS
--------------
ITER       Energy         Delta-E        Max-DP      RMS-DP      [F,P]     Damp
               ***  Starting incremental Fock matrix formation  ***
  0  -1270.0045104593   0.000000000000 0.04930300  0.00043642  0.3105268 0.7000
  1  -1270.2732999217  -0.268789462375 0.03607368  0.00035207  0.1824621 0.7000
                               ***Turning on DIIS***
  2  -1270.4406674172  -0.167367495510 0.02583402  0.00023525  0.1097520 0.7000
  3  -1272.5935469304  -2.152879513233 0.06313221  0.00050808  0.0829095 0.0000
  4  -1270.7490675857   1.844479344701 0.01150565  0.00010024  0.0070415 0.0000
  5  -1270.8121309573  -0.063063371615 0.00485821  0.00005343  0.0036711 0.0000
                      *** Initiating the SOSCF procedure ***
                           *** Shutting down DIIS ***
                      *** Re-Reading the Fockian *** 
                      *** Removing any level shift *** 
ITER      Energy       Delta-E        Grad      Rot      Max-DP    RMS-DP
  6  -1270.78970982   0.0224211394  0.001910  0.001910  0.002512  0.000027
               *** Restarting incremental Fock matrix formation ***
  7  -1270.80412308  -0.0144132621  0.000916  0.002362  0.001651  0.000017
  8  -1270.80417270  -0.0000496244  0.000476  0.002796  0.001826  0.000018
  9  -1270.80419174  -0.0000190311  0.000199  0.000377  0.000372  0.000004
 10  -1270.80419419  -0.0000024509  0.000055  0.000148  0.000121  0.000001
 11  -1270.80419442  -0.0000002331  0.000022  0.000124  0.000071  0.000001
 12  -1270.80419448  -0.0000000652  0.000011  0.000039  0.000029  0.000000
                  ***Gradient check signals convergence***
              ***Rediagonalizing the Fockian in SOSCF/NRSCF***

               *****************************************************
               *                     SUCCESS                       *
               *           SCF CONVERGED AFTER  13 CYCLES          *
               *****************************************************


----------------
TOTAL SCF ENERGY
----------------

Total Energy       :        -1270.80419449 Eh          -34580.34016 eV

Components:
Nuclear Repulsion  :         1702.57437634 Eh           46329.40412 eV
Electronic Energy  :        -2973.37857082 Eh          -80909.74428 eV
One Electron Energy:        -5126.43957163 Eh         -139497.51266 eV
Two Electron Energy:         2153.06100081 Eh           58587.76838 eV

Virial components:
Potential Energy   :        -2539.79913174 Eh          -69111.44793 eV
Kinetic Energy     :         1268.99493725 Eh           34531.10777 eV
Virial Ratio       :            2.00142574


---------------
SCF CONVERGENCE
---------------

  Last Energy change         ...   -1.3465e-09  Tolerance :   1.0000e-08
  Last MAX-Density change    ...    5.0660e-06  Tolerance :   1.0000e-07
  Last RMS-Density change    ...    9.3918e-08  Tolerance :   5.0000e-09
  Last Orbital Gradient      ...    2.3656e-06  Tolerance :   1.0000e-05
  Last Orbital Rotation      ...    8.2119e-06  Tolerance :   1.0000e-05

             **** THE GBW FILE WAS UPDATED (CONFS/Conf905.orca.gbw) ****
             **** DENSITY CONFS/Conf905.orca.scfp WAS UPDATED ****
             **** ENERGY FILE WAS UPDATED (CONFS/Conf905.orca.en.tmp) ****
             **** THE GBW FILE WAS UPDATED (CONFS/Conf905.orca.gbw) ****
             **** DENSITY CONFS/Conf905.orca.scfp WAS UPDATED ****
----------------
ORBITAL ENERGIES
----------------

  NO   OCC          E(Eh)            E(eV) 
   0   2.0000     -91.888340     -2500.4089 
   1   2.0000     -20.593943      -560.3897 
   2   2.0000     -20.593835      -560.3867 
   3   2.0000     -20.550879      -559.2178 
   4   2.0000     -15.628231      -425.2658 
   5   2.0000     -15.607488      -424.7014 
   6   2.0000     -11.394297      -310.0546 
   7   2.0000     -11.383583      -309.7630 
   8   2.0000     -11.334196      -308.4192 
   9   2.0000     -11.309929      -307.7588 
  10   2.0000     -11.307277      -307.6866 
  11   2.0000     -11.298842      -307.4571 
  12   2.0000     -11.260051      -306.4016 
  13   2.0000     -11.259514      -306.3870 
  14   2.0000     -11.255595      -306.2803 
  15   2.0000     -11.249984      -306.1276 
  16   2.0000     -11.239673      -305.8470 
  17   2.0000     -11.235687      -305.7386 
  18   2.0000     -11.234127      -305.6961 
  19   2.0000     -11.232742      -305.6584 
  20   2.0000      -8.893410      -242.0020 
  21   2.0000      -6.574988      -178.9145 
  22   2.0000      -6.572980      -178.8599 
  23   2.0000      -6.572395      -178.8440 
  24   2.0000      -1.454840       -39.5882 
  25   2.0000      -1.413698       -38.4687 
  26   2.0000      -1.357034       -36.9268 
  27   2.0000      -1.339284       -36.4438 
  28   2.0000      -1.237303       -33.6687 
  29   2.0000      -1.154213       -31.4077 
  30   2.0000      -1.120498       -30.4903 
  31   2.0000      -1.044477       -28.4217 
  32   2.0000      -1.036958       -28.2171 
  33   2.0000      -1.011614       -27.5274 
  34   2.0000      -0.998471       -27.1698 
  35   2.0000      -0.984150       -26.7801 
  36   2.0000      -0.922163       -25.0933 
  37   2.0000      -0.885725       -24.1018 
  38   2.0000      -0.847287       -23.0558 
  39   2.0000      -0.836640       -22.7661 
  40   2.0000      -0.830097       -22.5881 
  41   2.0000      -0.821174       -22.3453 
  42   2.0000      -0.759645       -20.6710 
  43   2.0000      -0.735947       -20.0261 
  44   2.0000      -0.726589       -19.7715 
  45   2.0000      -0.692270       -18.8376 
  46   2.0000      -0.683885       -18.6094 
  47   2.0000      -0.681939       -18.5565 
  48   2.0000      -0.676375       -18.4051 
  49   2.0000      -0.657204       -17.8834 
  50   2.0000      -0.651959       -17.7407 
  51   2.0000      -0.643836       -17.5197 
  52   2.0000      -0.635484       -17.2924 
  53   2.0000      -0.604971       -16.4621 
  54   2.0000      -0.602258       -16.3883 
  55   2.0000      -0.601619       -16.3709 
  56   2.0000      -0.597354       -16.2548 
  57   2.0000      -0.576044       -15.6749 
  58   2.0000      -0.574938       -15.6449 
  59   2.0000      -0.564639       -15.3646 
  60   2.0000      -0.559683       -15.2298 
  61   2.0000      -0.551488       -15.0067 
  62   2.0000      -0.543365       -14.7857 
  63   2.0000      -0.519708       -14.1420 
  64   2.0000      -0.515980       -14.0405 
  65   2.0000      -0.510866       -13.9014 
  66   2.0000      -0.506931       -13.7943 
  67   2.0000      -0.496962       -13.5230 
  68   2.0000      -0.481845       -13.1117 
  69   2.0000      -0.463709       -12.6182 
  70   2.0000      -0.459830       -12.5126 
  71   2.0000      -0.454185       -12.3590 
  72   2.0000      -0.353931        -9.6310 
  73   2.0000      -0.346024        -9.4158 
  74   2.0000      -0.327573        -8.9137 
  75   2.0000      -0.317042        -8.6272 
  76   2.0000      -0.315113        -8.5747 
  77   0.0000       0.073668         2.0046 
  78   0.0000       0.108640         2.9562 
  79   0.0000       0.119467         3.2509 
  80   0.0000       0.134102         3.6491 
  81   0.0000       0.138573         3.7708 
  82   0.0000       0.143725         3.9110 
  83   0.0000       0.151877         4.1328 
  84   0.0000       0.157144         4.2761 
  85   0.0000       0.162906         4.4329 
  86   0.0000       0.170171         4.6306 
  87   0.0000       0.179905         4.8955 
  88   0.0000       0.185487         5.0474 
  89   0.0000       0.194322         5.2878 
  90   0.0000       0.199643         5.4326 
  91   0.0000       0.208194         5.6653 
  92   0.0000       0.212109         5.7718 
  93   0.0000       0.215743         5.8707 
  94   0.0000       0.219412         5.9705 
  95   0.0000       0.229000         6.2314 
  96   0.0000       0.238556         6.4914 
  97   0.0000       0.246599         6.7103 
  98   0.0000       0.260061         7.0766 
  99   0.0000       0.282551         7.6886 
 100   0.0000       0.296931         8.0799 
 101   0.0000       0.308736         8.4011 
 102   0.0000       0.315067         8.5734 
 103   0.0000       0.322884         8.7861 
 104   0.0000       0.327544         8.9129 
 105   0.0000       0.336621         9.1599 
 106   0.0000       0.339282         9.2323 
 107   0.0000       0.350544         9.5388 
 108   0.0000       0.355877         9.6839 
 109   0.0000       0.360618         9.8129 
 110   0.0000       0.375456        10.2167 
 111   0.0000       0.376084        10.2338 
 112   0.0000       0.383325        10.4308 
 113   0.0000       0.393898        10.7185 
 114   0.0000       0.396865        10.7993 
 115   0.0000       0.411367        11.1939 
 116   0.0000       0.414242        11.2721 
 117   0.0000       0.427095        11.6218 
 118   0.0000       0.433723        11.8022 
 119   0.0000       0.437328        11.9003 
 120   0.0000       0.441711        12.0196 
 121   0.0000       0.452745        12.3198 
 122   0.0000       0.457029        12.4364 
 123   0.0000       0.459247        12.4967 
 124   0.0000       0.461388        12.5550 
 125   0.0000       0.473880        12.8949 
 126   0.0000       0.478390        13.0177 
 127   0.0000       0.489649        13.3240 
 128   0.0000       0.492287        13.3958 
 129   0.0000       0.497485        13.5373 
 130   0.0000       0.502508        13.6739 
 131   0.0000       0.505223        13.7478 
 132   0.0000       0.513275        13.9669 
 133   0.0000       0.517153        14.0724 
 134   0.0000       0.523698        14.2505 
 135   0.0000       0.526435        14.3250 
 136   0.0000       0.532395        14.4872 
 137   0.0000       0.538953        14.6656 
 138   0.0000       0.540501        14.7078 
 139   0.0000       0.545580        14.8460 
 140   0.0000       0.552073        15.0227 
 141   0.0000       0.556274        15.1370 
 142   0.0000       0.563418        15.3314 
 143   0.0000       0.567235        15.4353 
 144   0.0000       0.573083        15.5944 
 145   0.0000       0.576225        15.6799 
 146   0.0000       0.581918        15.8348 
 147   0.0000       0.590544        16.0695 
 148   0.0000       0.593647        16.1540 
 149   0.0000       0.599355        16.3093 
 150   0.0000       0.602180        16.3862 
 151   0.0000       0.607179        16.5222 
 152   0.0000       0.611644        16.6437 
 153   0.0000       0.617040        16.7905 
 154   0.0000       0.625200        17.0126 
 155   0.0000       0.626137        17.0381 
 156   0.0000       0.630889        17.1674 
 157   0.0000       0.634825        17.2745 
 158   0.0000       0.638716        17.3803 
 159   0.0000       0.641181        17.4474 
 160   0.0000       0.647313        17.6143 
 161   0.0000       0.650269        17.6947 
 162   0.0000       0.655682        17.8420 
 163   0.0000       0.662486        18.0271 
 164   0.0000       0.665690        18.1143 
 165   0.0000       0.672017        18.2865 
 166   0.0000       0.678082        18.4516 
 167   0.0000       0.683310        18.5938 
 168   0.0000       0.689740        18.7688 
 169   0.0000       0.690540        18.7906 
 170   0.0000       0.692670        18.8485 
 171   0.0000       0.704675        19.1752 
 172   0.0000       0.707413        19.2497 
 173   0.0000       0.717731        19.5305 
 174   0.0000       0.721832        19.6420 
 175   0.0000       0.729925        19.8623 
 176   0.0000       0.733147        19.9499 
 177   0.0000       0.741339        20.1729 
 178   0.0000       0.746988        20.3266 
 179   0.0000       0.753615        20.5069 
 180   0.0000       0.755605        20.5611 
 181   0.0000       0.769458        20.9380 
 182   0.0000       0.771076        20.9820 
 183   0.0000       0.785762        21.3817 
 184   0.0000       0.792223        21.5575 
 185   0.0000       0.804263        21.8851 
 186   0.0000       0.809382        22.0244 
 187   0.0000       0.816463        22.2171 
 188   0.0000       0.826534        22.4911 
 189   0.0000       0.829288        22.5661 
 190   0.0000       0.839052        22.8318 
 191   0.0000       0.844956        22.9924 
 192   0.0000       0.851111        23.1599 
 193   0.0000       0.859415        23.3859 
 194   0.0000       0.866270        23.5724 
 195   0.0000       0.874017        23.7832 
 196   0.0000       0.883125        24.0310 
 197   0.0000       0.889365        24.2009 
 198   0.0000       0.897441        24.4206 
 199   0.0000       0.899940        24.4886 
 200   0.0000       0.909343        24.7445 
 201   0.0000       0.921690        25.0804 
 202   0.0000       0.926931        25.2231 
 203   0.0000       0.937070        25.4990 
 204   0.0000       0.939326        25.5604 
 205   0.0000       0.951441        25.8900 
 206   0.0000       0.953952        25.9583 
 207   0.0000       0.965434        26.2708 
 208   0.0000       0.968625        26.3576 
 209   0.0000       0.976031        26.5592 
 210   0.0000       0.982259        26.7286 
 211   0.0000       0.985144        26.8071 
 212   0.0000       0.996767        27.1234 
 213   0.0000       1.006407        27.3857 
 214   0.0000       1.010850        27.5066 
 215   0.0000       1.019631        27.7456 
 216   0.0000       1.027429        27.9578 
 217   0.0000       1.031793        28.0765 
 218   0.0000       1.040904        28.3244 
 219   0.0000       1.043620        28.3983 
 220   0.0000       1.049648        28.5624 
 221   0.0000       1.054342        28.6901 
 222   0.0000       1.056827        28.7577 
 223   0.0000       1.069748        29.1093 
 224   0.0000       1.076915        29.3043 
 225   0.0000       1.090343        29.6697 
 226   0.0000       1.099021        29.9059 
 227   0.0000       1.102169        29.9916 
 228   0.0000       1.106818        30.1180 
 229   0.0000       1.123117        30.5616 
 230   0.0000       1.127684        30.6858 
 231   0.0000       1.130026        30.7496 
 232   0.0000       1.141663        31.0662 
 233   0.0000       1.143060        31.1042 
 234   0.0000       1.147495        31.2249 
 235   0.0000       1.159121        31.5413 
 236   0.0000       1.175888        31.9975 
 237   0.0000       1.177031        32.0286 
 238   0.0000       1.180984        32.1362 
 239   0.0000       1.182504        32.1776 
 240   0.0000       1.196400        32.5557 
 241   0.0000       1.203842        32.7582 
 242   0.0000       1.210796        32.9474 
 243   0.0000       1.215494        33.0753 
 244   0.0000       1.217514        33.1302 
 245   0.0000       1.227756        33.4089 
 246   0.0000       1.234244        33.5855 
 247   0.0000       1.240139        33.7459 
 248   0.0000       1.242132        33.8001 
 249   0.0000       1.247300        33.9408 
 250   0.0000       1.258330        34.2409 
 251   0.0000       1.264462        34.4078 
 252   0.0000       1.273448        34.6523 
 253   0.0000       1.277507        34.7627 
 254   0.0000       1.281278        34.8654 
 255   0.0000       1.290359        35.1125 
 256   0.0000       1.306573        35.5537 
 257   0.0000       1.312018        35.7018 
 258   0.0000       1.319745        35.9121 
 259   0.0000       1.328803        36.1586 
 260   0.0000       1.333684        36.2914 
 261   0.0000       1.341084        36.4928 
 262   0.0000       1.347507        36.6675 
 263   0.0000       1.357768        36.9468 
 264   0.0000       1.372812        37.3561 
 265   0.0000       1.377719        37.4896 
 266   0.0000       1.389727        37.8164 
 267   0.0000       1.393008        37.9057 
 268   0.0000       1.398712        38.0609 
 269   0.0000       1.403655        38.1954 
 270   0.0000       1.405608        38.2486 
 271   0.0000       1.424191        38.7542 
 272   0.0000       1.429970        38.9115 
 273   0.0000       1.439588        39.1732 
 274   0.0000       1.447020        39.3754 
 275   0.0000       1.453536        39.5527 
 276   0.0000       1.465941        39.8903 
 277   0.0000       1.480612        40.2895 
 278   0.0000       1.482333        40.3363 
 279   0.0000       1.488702        40.5096 
 280   0.0000       1.494563        40.6691 
 281   0.0000       1.496577        40.7239 
 282   0.0000       1.499178        40.7947 
 283   0.0000       1.509225        41.0681 
 284   0.0000       1.511075        41.1185 
 285   0.0000       1.523316        41.4515 
 286   0.0000       1.538108        41.8540 
 287   0.0000       1.540097        41.9082 
 288   0.0000       1.542286        41.9677 
 289   0.0000       1.550240        42.1842 
 290   0.0000       1.553673        42.2776 
 291   0.0000       1.560515        42.4638 
 292   0.0000       1.563695        42.5503 
 293   0.0000       1.579096        42.9694 
 294   0.0000       1.583897        43.1000 
 295   0.0000       1.594866        43.3985 
 296   0.0000       1.605272        43.6817 
 297   0.0000       1.606272        43.7089 
 298   0.0000       1.618658        44.0459 
 299   0.0000       1.621810        44.1317 
 300   0.0000       1.630623        44.3715 
 301   0.0000       1.641300        44.6620 
 302   0.0000       1.645066        44.7645 
 303   0.0000       1.647311        44.8256 
 304   0.0000       1.663577        45.2682 
 305   0.0000       1.665244        45.3136 
 306   0.0000       1.674577        45.5676 
 307   0.0000       1.685250        45.8580 
 308   0.0000       1.698417        46.2163 
 309   0.0000       1.702432        46.3255 
 310   0.0000       1.713045        46.6143 
 311   0.0000       1.725646        46.9572 
 312   0.0000       1.729529        47.0629 
 313   0.0000       1.730626        47.0927 
 314   0.0000       1.739107        47.3235 
 315   0.0000       1.754720        47.7484 
 316   0.0000       1.758811        47.8597 
 317   0.0000       1.771132        48.1950 
 318   0.0000       1.778398        48.3927 
 319   0.0000       1.788619        48.6708 
 320   0.0000       1.794855        48.8405 
 321   0.0000       1.823308        49.6147 
 322   0.0000       1.827974        49.7417 
 323   0.0000       1.842859        50.1467 
 324   0.0000       1.860251        50.6200 
 325   0.0000       1.863545        50.7096 
 326   0.0000       1.879811        51.1523 
 327   0.0000       1.901397        51.7396 
 328   0.0000       1.907256        51.8991 
 329   0.0000       1.911207        52.0066 
 330   0.0000       1.929239        52.4972 
 331   0.0000       1.937805        52.7303 
 332   0.0000       1.944139        52.9027 
 333   0.0000       1.962821        53.4111 
 334   0.0000       1.967122        53.5281 
 335   0.0000       1.979077        53.8534 
 336   0.0000       1.988011        54.0965 
 337   0.0000       2.001565        54.4653 
 338   0.0000       2.023281        55.0563 
 339   0.0000       2.024009        55.0761 
 340   0.0000       2.030587        55.2551 
 341   0.0000       2.034038        55.3490 
 342   0.0000       2.051552        55.8256 
 343   0.0000       2.066174        56.2235 
 344   0.0000       2.084172        56.7132 
 345   0.0000       2.100961        57.1700 
 346   0.0000       2.122748        57.7629 
 347   0.0000       2.129919        57.9581 
 348   0.0000       2.156138        58.6715 
 349   0.0000       2.161179        58.8087 
 350   0.0000       2.192723        59.6670 
 351   0.0000       2.204439        59.9858 
 352   0.0000       2.216928        60.3257 
 353   0.0000       2.227168        60.6043 
 354   0.0000       2.235387        60.8280 
 355   0.0000       2.251052        61.2542 
 356   0.0000       2.282164        62.1008 
 357   0.0000       2.289538        62.3015 
 358   0.0000       2.293286        62.4035 
 359   0.0000       2.304273        62.7025 
 360   0.0000       2.310219        62.8643 
 361   0.0000       2.318715        63.0954 
 362   0.0000       2.342052        63.7305 
 363   0.0000       2.359985        64.2184 
 364   0.0000       2.363505        64.3142 
 365   0.0000       2.376748        64.6746 
 366   0.0000       2.387681        64.9721 
 367   0.0000       2.398164        65.2574 
 368   0.0000       2.411365        65.6166 
 369   0.0000       2.414280        65.6959 
 370   0.0000       2.436497        66.3004 
 371   0.0000       2.445130        66.5354 
 372   0.0000       2.462983        67.0212 
 373   0.0000       2.473508        67.3076 
 374   0.0000       2.480779        67.5054 
 375   0.0000       2.498554        67.9891 
 376   0.0000       2.506943        68.2174 
 377   0.0000       2.520422        68.5842 
 378   0.0000       2.529844        68.8406 
 379   0.0000       2.548855        69.3579 
 380   0.0000       2.574305        70.0504 
 381   0.0000       2.576873        70.1203 
 382   0.0000       2.586869        70.3923 
 383   0.0000       2.600064        70.7513 
 384   0.0000       2.611957        71.0750 
 385   0.0000       2.625430        71.4416 
 386   0.0000       2.627998        71.5115 
 387   0.0000       2.633404        71.6586 
 388   0.0000       2.651883        72.1614 
 389   0.0000       2.660383        72.3927 
 390   0.0000       2.679865        72.9228 
 391   0.0000       2.683202        73.0136 
 392   0.0000       2.693751        73.3007 
 393   0.0000       2.698248        73.4231 
 394   0.0000       2.714010        73.8520 
 395   0.0000       2.727343        74.2148 
 396   0.0000       2.734356        74.4056 
 397   0.0000       2.747068        74.7515 
 398   0.0000       2.751904        74.8831 
 399   0.0000       2.763405        75.1961 
 400   0.0000       2.766160        75.2710 
 401   0.0000       2.770989        75.4024 
 402   0.0000       2.797121        76.1135 
 403   0.0000       2.799779        76.1859 
 404   0.0000       2.808162        76.4140 
 405   0.0000       2.828309        76.9622 
 406   0.0000       2.831765        77.0562 
 407   0.0000       2.841231        77.3138 
 408   0.0000       2.845400        77.4273 
 409   0.0000       2.856396        77.7265 
 410   0.0000       2.865360        77.9704 
 411   0.0000       2.872419        78.1625 
 412   0.0000       2.880972        78.3952 
 413   0.0000       2.887611        78.5759 
 414   0.0000       2.905330        79.0580 
 415   0.0000       2.918579        79.4186 
 416   0.0000       2.924869        79.5897 
 417   0.0000       2.940158        80.0058 
 418   0.0000       2.943351        80.0927 
 419   0.0000       2.952341        80.3373 
 420   0.0000       2.963875        80.6511 
 421   0.0000       2.980332        81.0990 
 422   0.0000       2.982518        81.1584 
 423   0.0000       2.993940        81.4693 
 424   0.0000       2.999671        81.6252 
 425   0.0000       3.011960        81.9596 
 426   0.0000       3.020572        82.1939 
 427   0.0000       3.025200        82.3199 
 428   0.0000       3.032021        82.5055 
 429   0.0000       3.038221        82.6742 
 430   0.0000       3.047925        82.9383 
 431   0.0000       3.052539        83.0638 
 432   0.0000       3.063448        83.3607 
 433   0.0000       3.071464        83.5788 
 434   0.0000       3.082828        83.8880 
 435   0.0000       3.085268        83.9544 
 436   0.0000       3.088251        84.0356 
 437   0.0000       3.094828        84.2145 
 438   0.0000       3.096632        84.2636 
 439   0.0000       3.106556        84.5337 
 440   0.0000       3.108383        84.5834 
 441   0.0000       3.117667        84.8360 
 442   0.0000       3.124978        85.0350 
 443   0.0000       3.132507        85.2399 
 444   0.0000       3.146104        85.6098 
 445   0.0000       3.147514        85.6482 
 446   0.0000       3.155730        85.8718 
 447   0.0000       3.177554        86.4656 
 448   0.0000       3.180798        86.5539 
 449   0.0000       3.188414        86.7611 
 450   0.0000       3.193133        86.8896 
 451   0.0000       3.197027        86.9955 
 452   0.0000       3.204987        87.2121 
 453   0.0000       3.216143        87.5157 
 454   0.0000       3.225112        87.7598 
 455   0.0000       3.229955        87.8915 
 456   0.0000       3.236038        88.0571 
 457   0.0000       3.239437        88.1496 
 458   0.0000       3.248476        88.3955 
 459   0.0000       3.257920        88.6525 
 460   0.0000       3.266215        88.8782 
 461   0.0000       3.272585        89.0516 
 462   0.0000       3.278088        89.2013 
 463   0.0000       3.287050        89.4452 
 464   0.0000       3.298213        89.7489 
 465   0.0000       3.309841        90.0654 
 466   0.0000       3.311902        90.1214 
 467   0.0000       3.315725        90.2255 
 468   0.0000       3.322037        90.3972 
 469   0.0000       3.325319        90.4865 
 470   0.0000       3.331289        90.6490 
 471   0.0000       3.335400        90.7609 
 472   0.0000       3.338171        90.8363 
 473   0.0000       3.351697        91.2043 
 474   0.0000       3.352103        91.2154 
 475   0.0000       3.364005        91.5392 
 476   0.0000       3.368870        91.6716 
 477   0.0000       3.377460        91.9054 
 478   0.0000       3.379304        91.9555 
 479   0.0000       3.387491        92.1783 
 480   0.0000       3.392921        92.3261 
 481   0.0000       3.399517        92.5056 
 482   0.0000       3.403100        92.6030 
 483   0.0000       3.403657        92.6182 
 484   0.0000       3.408343        92.7457 
 485   0.0000       3.418253        93.0154 
 486   0.0000       3.420817        93.0852 
 487   0.0000       3.425233        93.2053 
 488   0.0000       3.433136        93.4204 
 489   0.0000       3.438254        93.5597 
 490   0.0000       3.445135        93.7469 
 491   0.0000       3.448340        93.8341 
 492   0.0000       3.455651        94.0330 
 493   0.0000       3.458933        94.1223 
 494   0.0000       3.462551        94.2208 
 495   0.0000       3.470084        94.4258 
 496   0.0000       3.474694        94.5512 
 497   0.0000       3.481479        94.7358 
 498   0.0000       3.489893        94.9648 
 499   0.0000       3.503148        95.3255 
 500   0.0000       3.506832        95.4257 
 501   0.0000       3.517972        95.7289 
 502   0.0000       3.521408        95.8224 
 503   0.0000       3.537040        96.2478 
 504   0.0000       3.539240        96.3076 
 505   0.0000       3.550589        96.6164 
 506   0.0000       3.554711        96.7286 
 507   0.0000       3.568410        97.1014 
 508   0.0000       3.577730        97.3550 
 509   0.0000       3.586686        97.5987 
 510   0.0000       3.591341        97.7253 
 511   0.0000       3.603129        98.0461 
 512   0.0000       3.612215        98.2934 
 513   0.0000       3.618681        98.4693 
 514   0.0000       3.621691        98.5512 
 515   0.0000       3.624221        98.6201 
 516   0.0000       3.627036        98.6967 
 517   0.0000       3.631127        98.8080 
 518   0.0000       3.636109        98.9436 
 519   0.0000       3.644359        99.1680 
 520   0.0000       3.649667        99.3125 
 521   0.0000       3.656486        99.4981 
 522   0.0000       3.663080        99.6775 
 523   0.0000       3.672116        99.9234 
 524   0.0000       3.675207       100.0075 
 525   0.0000       3.678133       100.0871 
 526   0.0000       3.688388       100.3661 
 527   0.0000       3.695793       100.5677 
 528   0.0000       3.701173       100.7140 
 529   0.0000       3.711193       100.9867 
 530   0.0000       3.714457       101.0755 
 531   0.0000       3.719081       101.2013 
 532   0.0000       3.727122       101.4201 
 533   0.0000       3.741333       101.8068 
 534   0.0000       3.744307       101.8878 
 535   0.0000       3.745800       101.9284 
 536   0.0000       3.752901       102.1216 
 537   0.0000       3.761181       102.3469 
 538   0.0000       3.764392       102.4343 
 539   0.0000       3.777449       102.7896 
 540   0.0000       3.779069       102.8337 
 541   0.0000       3.788559       103.0919 
 542   0.0000       3.796723       103.3141 
 543   0.0000       3.799520       103.3902 
 544   0.0000       3.808678       103.6394 
 545   0.0000       3.812043       103.7310 
 546   0.0000       3.815605       103.8279 
 547   0.0000       3.825574       104.0991 
 548   0.0000       3.834626       104.3455 
 549   0.0000       3.839040       104.4656 
 550   0.0000       3.853723       104.8651 
 551   0.0000       3.858711       105.0009 
 552   0.0000       3.869084       105.2831 
 553   0.0000       3.873094       105.3922 
 554   0.0000       3.890867       105.8759 
 555   0.0000       3.898197       106.0753 
 556   0.0000       3.906694       106.3065 
 557   0.0000       3.912602       106.4673 
 558   0.0000       3.922539       106.7377 
 559   0.0000       3.928052       106.8877 
 560   0.0000       3.944566       107.3371 
 561   0.0000       3.952145       107.5433 
 562   0.0000       3.954496       107.6073 
 563   0.0000       3.969117       108.0052 
 564   0.0000       3.976225       108.1986 
 565   0.0000       3.981901       108.3530 
 566   0.0000       3.984035       108.4111 
 567   0.0000       3.990948       108.5992 
 568   0.0000       3.998223       108.7972 
 569   0.0000       4.016946       109.3067 
 570   0.0000       4.022774       109.4652 
 571   0.0000       4.030658       109.6798 
 572   0.0000       4.044049       110.0442 
 573   0.0000       4.048909       110.1764 
 574   0.0000       4.055995       110.3692 
 575   0.0000       4.074419       110.8706 
 576   0.0000       4.078269       110.9754 
 577   0.0000       4.085416       111.1698 
 578   0.0000       4.100314       111.5752 
 579   0.0000       4.111810       111.8880 
 580   0.0000       4.115984       112.0016 
 581   0.0000       4.121761       112.1588 
 582   0.0000       4.123108       112.1955 
 583   0.0000       4.134404       112.5028 
 584   0.0000       4.136074       112.5483 
 585   0.0000       4.142210       112.7153 
 586   0.0000       4.147587       112.8616 
 587   0.0000       4.155755       113.0838 
 588   0.0000       4.160538       113.2140 
 589   0.0000       4.166824       113.3850 
 590   0.0000       4.177917       113.6869 
 591   0.0000       4.184491       113.8658 
 592   0.0000       4.189399       113.9993 
 593   0.0000       4.194702       114.1437 
 594   0.0000       4.205954       114.4498 
 595   0.0000       4.212735       114.6344 
 596   0.0000       4.222854       114.9097 
 597   0.0000       4.230180       115.1090 
 598   0.0000       4.238228       115.3281 
 599   0.0000       4.244363       115.4950 
 600   0.0000       4.248353       115.6036 
 601   0.0000       4.255514       115.7984 
 602   0.0000       4.269254       116.1723 
 603   0.0000       4.273610       116.2908 
 604   0.0000       4.278744       116.4305 
 605   0.0000       4.284845       116.5966 
 606   0.0000       4.300397       117.0197 
 607   0.0000       4.304355       117.1274 
 608   0.0000       4.317027       117.4723 
 609   0.0000       4.319057       117.5275 
 610   0.0000       4.329742       117.8183 
 611   0.0000       4.336549       118.0035 
 612   0.0000       4.342804       118.1737 
 613   0.0000       4.346842       118.2836 
 614   0.0000       4.353434       118.4630 
 615   0.0000       4.367794       118.8537 
 616   0.0000       4.371144       118.9449 
 617   0.0000       4.381340       119.2223 
 618   0.0000       4.382992       119.2673 
 619   0.0000       4.388588       119.4196 
 620   0.0000       4.398744       119.6959 
 621   0.0000       4.407418       119.9319 
 622   0.0000       4.425724       120.4301 
 623   0.0000       4.430880       120.5704 
 624   0.0000       4.443298       120.9083 
 625   0.0000       4.447011       121.0093 
 626   0.0000       4.454672       121.2178 
 627   0.0000       4.462233       121.4235 
 628   0.0000       4.474965       121.7700 
 629   0.0000       4.484411       122.0270 
 630   0.0000       4.502536       122.5202 
 631   0.0000       4.505688       122.6060 
 632   0.0000       4.513957       122.8310 
 633   0.0000       4.521237       123.0291 
 634   0.0000       4.533028       123.3500 
 635   0.0000       4.541226       123.5730 
 636   0.0000       4.545966       123.7020 
 637   0.0000       4.557125       124.0057 
 638   0.0000       4.561215       124.1170 
 639   0.0000       4.564819       124.2150 
 640   0.0000       4.567049       124.2757 
 641   0.0000       4.582507       124.6964 
 642   0.0000       4.592046       124.9559 
 643   0.0000       4.606068       125.3375 
 644   0.0000       4.612616       125.5157 
 645   0.0000       4.624167       125.8300 
 646   0.0000       4.626665       125.8980 
 647   0.0000       4.636395       126.1627 
 648   0.0000       4.639985       126.2604 
 649   0.0000       4.644861       126.3931 
 650   0.0000       4.646071       126.4260 
 651   0.0000       4.661935       126.8577 
 652   0.0000       4.670657       127.0951 
 653   0.0000       4.674613       127.2027 
 654   0.0000       4.686635       127.5298 
 655   0.0000       4.699008       127.8665 
 656   0.0000       4.707905       128.1086 
 657   0.0000       4.722695       128.5111 
 658   0.0000       4.728961       128.6816 
 659   0.0000       4.742769       129.0573 
 660   0.0000       4.747736       129.1925 
 661   0.0000       4.760689       129.5449 
 662   0.0000       4.773144       129.8839 
 663   0.0000       4.777766       130.0096 
 664   0.0000       4.811122       130.9173 
 665   0.0000       4.825084       131.2972 
 666   0.0000       4.847038       131.8946 
 667   0.0000       4.848249       131.9276 
 668   0.0000       4.857610       132.1823 
 669   0.0000       4.876382       132.6931 
 670   0.0000       4.904492       133.4580 
 671   0.0000       4.919307       133.8611 
 672   0.0000       4.921847       133.9303 
 673   0.0000       4.939451       134.4093 
 674   0.0000       4.970191       135.2458 
 675   0.0000       4.986745       135.6962 
 676   0.0000       5.007842       136.2703 
 677   0.0000       5.020872       136.6249 
 678   0.0000       5.026275       136.7719 
 679   0.0000       5.052905       137.4965 
 680   0.0000       5.056217       137.5867 
 681   0.0000       5.065218       137.8316 
 682   0.0000       5.084180       138.3476 
 683   0.0000       5.092653       138.5781 
 684   0.0000       5.106769       138.9623 
 685   0.0000       5.111061       139.0790 
 686   0.0000       5.122722       139.3963 
 687   0.0000       5.139743       139.8595 
 688   0.0000       5.145387       140.0131 
 689   0.0000       5.154574       140.2631 
 690   0.0000       5.166957       140.6001 
 691   0.0000       5.176504       140.8598 
 692   0.0000       5.186686       141.1369 
 693   0.0000       5.196970       141.4167 
 694   0.0000       5.200524       141.5135 
 695   0.0000       5.215158       141.9117 
 696   0.0000       5.216180       141.9395 
 697   0.0000       5.230121       142.3188 
 698   0.0000       5.233322       142.4059 
 699   0.0000       5.247357       142.7878 
 700   0.0000       5.258170       143.0821 
 701   0.0000       5.271734       143.4512 
 702   0.0000       5.293730       144.0497 
 703   0.0000       5.321473       144.8046 
 704   0.0000       5.326730       144.9477 
 705   0.0000       5.337906       145.2518 
 706   0.0000       5.342734       145.3832 
 707   0.0000       5.344259       145.4247 
 708   0.0000       5.365668       146.0073 
 709   0.0000       5.382639       146.4691 
 710   0.0000       5.398582       146.9029 
 711   0.0000       5.409787       147.2078 
 712   0.0000       5.430565       147.7732 
 713   0.0000       5.452746       148.3768 
 714   0.0000       5.466347       148.7469 
 715   0.0000       5.484034       149.2282 
 716   0.0000       5.504672       149.7897 
 717   0.0000       5.507859       149.8765 
 718   0.0000       5.514121       150.0469 
 719   0.0000       5.528313       150.4330 
 720   0.0000       5.540909       150.7758 
 721   0.0000       5.543752       150.8532 
 722   0.0000       5.555329       151.1682 
 723   0.0000       5.569332       151.5492 
 724   0.0000       5.584969       151.9747 
 725   0.0000       5.604401       152.5035 
 726   0.0000       5.608371       152.6115 
 727   0.0000       5.617708       152.8656 
 728   0.0000       5.636712       153.3827 
 729   0.0000       5.643604       153.5703 
 730   0.0000       5.646295       153.6435 
 731   0.0000       5.663912       154.1229 
 732   0.0000       5.665240       154.1590 
 733   0.0000       5.678656       154.5241 
 734   0.0000       5.694604       154.9580 
 735   0.0000       5.714193       155.4911 
 736   0.0000       5.725166       155.7897 
 737   0.0000       5.733164       156.0073 
 738   0.0000       5.740926       156.2185 
 739   0.0000       5.755144       156.6054 
 740   0.0000       5.762715       156.8114 
 741   0.0000       5.781334       157.3181 
 742   0.0000       5.793138       157.6393 
 743   0.0000       5.798447       157.7838 
 744   0.0000       5.818866       158.3394 
 745   0.0000       5.836690       158.8244 
 746   0.0000       5.864581       159.5834 
 747   0.0000       5.866808       159.6440 
 748   0.0000       5.903589       160.6448 
 749   0.0000       5.926800       161.2764 
 750   0.0000       5.935102       161.5023 
 751   0.0000       5.975083       162.5903 
 752   0.0000       5.982578       162.7942 
 753   0.0000       5.994165       163.1095 
 754   0.0000       6.013361       163.6319 
 755   0.0000       6.022942       163.8926 
 756   0.0000       6.055550       164.7799 
 757   0.0000       6.058259       164.8536 
 758   0.0000       6.081130       165.4759 
 759   0.0000       6.090970       165.7437 
 760   0.0000       6.098952       165.9609 
 761   0.0000       6.173910       168.0006 
 762   0.0000       6.219585       169.2435 
 763   0.0000       6.226078       169.4202 
 764   0.0000       6.230584       169.5428 
 765   0.0000       6.260965       170.3695 
 766   0.0000       6.272751       170.6902 
 767   0.0000       6.328331       172.2026 
 768   0.0000       6.349831       172.7877 
 769   0.0000       6.355005       172.9285 
 770   0.0000       6.367922       173.2800 
 771   0.0000       6.382387       173.6736 
 772   0.0000       6.405722       174.3086 
 773   0.0000       6.435024       175.1059 
 774   0.0000       6.454875       175.6461 
 775   0.0000       6.461674       175.8311 
 776   0.0000       6.502879       176.9523 
 777   0.0000       6.559103       178.4823 
 778   0.0000       6.585118       179.1902 
 779   0.0000       6.611070       179.8964 
 780   0.0000       6.633183       180.4981 
 781   0.0000       6.675234       181.6423 
 782   0.0000       6.726419       183.0352 
 783   0.0000       6.751060       183.7057 
 784   0.0000       6.790620       184.7822 
 785   0.0000       6.886947       187.4033 
 786   0.0000       6.914154       188.1437 
 787   0.0000       6.925457       188.4513 
 788   0.0000       6.987443       190.1380 
 789   0.0000       7.002071       190.5360 
 790   0.0000       7.055212       191.9821 
 791   0.0000       7.063295       192.2020 
 792   0.0000       7.085005       192.7928 
 793   0.0000       7.136420       194.1919 
 794   0.0000       7.249276       197.2628 
 795   0.0000       7.262893       197.6334 
 796   0.0000       7.273267       197.9157 
 797   0.0000       7.284855       198.2310 
 798   0.0000       7.343526       199.8275 
 799   0.0000       7.361490       200.3163 
 800   0.0000       7.389121       201.0682 
 801   0.0000       7.550586       205.4619 
 802   0.0000       7.583593       206.3601 
 803   0.0000       7.591471       206.5744 
 804   0.0000       7.647839       208.1083 
 805   0.0000       7.819301       212.7740 
 806   0.0000       7.850667       213.6275 
 807   0.0000       7.897364       214.8982 
 808   0.0000       7.937117       215.9799 
 809   0.0000       9.356722       254.6094 
 810   0.0000       9.596692       261.1393 
 811   0.0000      10.833658       294.7988 
 812   0.0000      11.317019       307.9517 
 813   0.0000      11.847581       322.3891 
 814   0.0000      12.591378       342.6288 
 815   0.0000      12.922737       351.6456 
 816   0.0000      13.068523       355.6126 
 817   0.0000      13.151230       357.8632 
 818   0.0000      13.209612       359.4518 
 819   0.0000      13.402822       364.7093 
 820   0.0000      13.479791       366.8037 
 821   0.0000      13.807628       375.7246 
 822   0.0000      13.894915       378.0998 
 823   0.0000      13.957964       379.8155 
 824   0.0000      14.034632       381.9017 
 825   0.0000      14.559407       396.1816 
 826   0.0000      14.691797       399.7841 
 827   0.0000      15.954722       434.1501 

                    ********************************
                    * MULLIKEN POPULATION ANALYSIS *
                    ********************************

-----------------------
MULLIKEN ATOMIC CHARGES
-----------------------
   0 C :   -0.280490
   1 C :    0.055755
   2 O :   -0.353855
   3 C :    0.430603
   4 O :   -0.407833
   5 C :   -0.176410
   6 C :    0.140895
   7 C :   -0.285222
   8 N :   -0.124611
   9 C :    0.202911
  10 S :   -0.439898
  11 N :   -0.199613
  12 C :    0.048270
  13 C :    0.050765
  14 C :   -0.161109
  15 C :   -0.133281
  16 C :   -0.280890
  17 C :    0.311793
  18 O :   -0.358803
  19 C :   -0.276695
  20 H :    0.093007
  21 H :    0.101561
  22 H :    0.098003
  23 H :    0.091542
  24 H :    0.101901
  25 H :    0.125280
  26 H :    0.104695
  27 H :    0.125832
  28 H :    0.197141
  29 H :    0.194026
  30 H :    0.154260
  31 H :    0.154488
  32 H :    0.160079
  33 H :    0.129394
  34 H :    0.240441
  35 H :    0.166068
Sum of atomic charges:   -0.0000000

--------------------------------
MULLIKEN REDUCED ORBITAL CHARGES
--------------------------------
  0 C s       :     3.258572  s :     3.258572
      pz      :     1.011220  p :     2.943667
      px      :     0.920164
      py      :     1.012283
      dz2     :     0.018596  d :     0.073782
      dxz     :     0.013125
      dyz     :     0.014225
      dx2y2   :     0.011591
      dxy     :     0.016245
      f0      :     0.000772  f :     0.004469
      f+1     :     0.000517
      f-1     :     0.000841
      f+2     :     0.000431
      f-2     :     0.000215
      f+3     :     0.001069
      f-3     :     0.000623
  1 C s       :     3.170140  s :     3.170140
      pz      :     0.997695  p :     2.610612
      px      :     0.840071
      py      :     0.772846
      dz2     :     0.026617  d :     0.151659
      dxz     :     0.021197
      dyz     :     0.030280
      dx2y2   :     0.033608
      dxy     :     0.039958
      f0      :     0.001688  f :     0.011834
      f+1     :     0.000931
      f-1     :     0.001505
      f+2     :     0.000652
      f-2     :     0.001793
      f+3     :     0.002442
      f-3     :     0.002823
  2 O s       :     3.715070  s :     3.715070
      pz      :     1.740358  p :     4.602813
      px      :     1.308223
      py      :     1.554232
      dz2     :     0.003716  d :     0.033677
      dxz     :     0.007556
      dyz     :     0.003852
      dx2y2   :     0.012542
      dxy     :     0.006010
      f0      :     0.000262  f :     0.002295
      f+1     :     0.000354
      f-1     :     0.000181
      f+2     :     0.000406
      f-2     :     0.000188
      f+3     :     0.000554
      f-3     :     0.000349
[...]
 15 C s       :     2.705759  s :     2.705759
      pz      :     0.904453  p :     2.796424
      px      :     0.931673
      py      :     0.960298
      dz2     :     0.095387  d :     0.415663
      dxz     :     0.071089
      dyz     :     0.059878
      dx2y2   :     0.097083
      dxy     :     0.092225
      f0      :     0.003359  f :     0.041000
      f+1     :     0.005631
      f-1     :     0.005972
      f+2     :     0.007295
      f-2     :     0.006236
      f+3     :     0.006606
      f-3     :     0.005901
 16 C s       :     2.701856  s :     2.701856
      pz      :     0.938910  p :     2.869295
      px      :     0.963285
      py      :     0.967099
      dz2     :     0.045842  d :     0.391030
      dxz     :     0.059880
      dyz     :     0.087278
      dx2y2   :     0.093202
      dxy     :     0.104827
      f0      :     0.004269  f :     0.040328
      f+1     :     0.005253
      f-1     :     0.003660
      f+2     :     0.005698
      f-2     :     0.005651
      f+3     :     0.007759
      f-3     :     0.008038
 17 C s       :     2.701509  s :     2.701509
      pz      :     0.853276  p :     2.684612
      px      :     0.819183
      py      :     1.012153
      dz2     :     0.129169  d :     0.708150
      dxz     :     0.115500
      dyz     :     0.135085
      dx2y2   :     0.165970
      dxy     :     0.162426
      f0      :     0.009728  f :     0.099236
      f+1     :     0.016832
      f-1     :     0.008760
      f+2     :     0.015635
      f-2     :     0.015284
      f+3     :     0.014962
      f-3     :     0.018036
 18 O s       :     3.177284  s :     3.177284
      pz      :     1.421439  p :     4.348948
      px      :     1.428752
      py      :     1.498757
      dz2     :     0.008457  d :     0.075565
      dxz     :     0.017592
      dyz     :     0.018647
      dx2y2   :     0.016973
      dxy     :     0.013896
      f0      :     0.000605  f :     0.005075
      f+1     :     0.000754
      f-1     :     0.000388
      f+2     :     0.000801
      f-2     :     0.000952
      f+3     :     0.000676
      f-3     :     0.000899
 19 C s       :     2.695321  s :     2.695321
      pz      :     0.935812  p :     2.847621
      px      :     0.951840
      py      :     0.959969
      dz2     :     0.078118  d :     0.388492
      dxz     :     0.068579
      dyz     :     0.062687
      dx2y2   :     0.085702
      dxy     :     0.093406
      f0      :     0.003388  f :     0.040816
      f+1     :     0.005730
      f-1     :     0.005617
      f+2     :     0.007347
      f-2     :     0.006713
      f+3     :     0.006532
      f-3     :     0.005489
 20 H s       :     0.850819  s :     0.850819
      pz      :     0.051184  p :     0.150646
      px      :     0.042217
      py      :     0.057246
      dz2     :     0.006904  d :     0.027508
      dxz     :     0.003604
      dyz     :     0.005948
      dx2y2   :     0.005416
      dxy     :     0.005637
 21 H s       :     0.845018  s :     0.845018
      pz      :     0.040058  p :     0.150491
      px      :     0.050760
      py      :     0.059674
      dz2     :     0.002593  d :     0.027371
      dxz     :     0.002892
      dyz     :     0.006224
      dx2y2   :     0.008716
      dxy     :     0.006946
 22 H s       :     0.848590  s :     0.848590
      pz      :     0.069772  p :     0.150873
      px      :     0.038151
      py      :     0.042950
      dz2     :     0.009061  d :     0.027464
      dxz     :     0.007801
      dyz     :     0.008492
      dx2y2   :     0.000937
      dxy     :     0.001174
 23 H s       :     0.855122  s :     0.855122
      pz      :     0.076847  p :     0.144811
      px      :     0.033861
      py      :     0.034103
      dz2     :     0.009455  d :     0.026966
      dxz     :     0.007369
      dyz     :     0.008198
      dx2y2   :     0.000811
      dxy     :     0.001133
 24 H s       :     0.856544  s :     0.856544
      pz      :     0.052146  p :     0.145041
      px      :     0.038610
      py      :     0.054286
      dz2     :     0.006905  d :     0.026834
      dxz     :     0.002725
      dyz     :     0.006838
      dx2y2   :     0.004657
      dxy     :     0.005708
 25 H s       :     0.830274  s :     0.830274
      pz      :     0.065904  p :     0.150188
      px      :     0.041826
      py      :     0.042458
      dz2     :     0.009090  d :     0.027694
      dxz     :     0.007590
      dyz     :     0.007102
      dx2y2   :     0.002486
      dxy     :     0.001426
 26 H s       :     0.842377  s :     0.842377
      pz      :     0.037485  p :     0.150004
      px      :     0.039443
      py      :     0.073075
      dz2     :     0.002287  d :     0.027693
      dxz     :     0.000232
      dyz     :     0.009087
      dx2y2   :     0.006764
      dxy     :     0.009322
 27 H s       :     0.830925  s :     0.830925
      pz      :     0.038674  p :     0.151902
      px      :     0.068320
      py      :     0.044908
      dz2     :     0.002591  d :     0.027731
      dxz     :     0.008018
      dyz     :     0.000969
      dx2y2   :     0.008598
      dxy     :     0.007555
 28 H s       :     0.743063  s :     0.743063
      pz      :     0.061412  p :     0.253998
      px      :     0.081921
      py      :     0.110665
      dz2     :     0.005698  d :     0.061843
      dxz     :     0.003974
      dyz     :     0.015750
      dx2y2   :     0.018519
      dxy     :     0.017901
 29 H s       :     0.748540  s :     0.748540
      pz      :     0.110047  p :     0.254048
      px      :     0.099827
      py      :     0.044174
      dz2     :     0.020203  d :     0.061338
      dxz     :     0.015303
      dyz     :     0.008944
      dx2y2   :     0.009782
      dxy     :     0.007106
 30 H s       :     0.828090  s :     0.828090
      pz      :     0.042558  p :     0.148309
      px      :     0.065917
      py      :     0.039833
      dz2     :     0.003534  d :     0.028341
      dxz     :     0.007784
      dyz     :     0.002945
      dx2y2   :     0.007017
      dxy     :     0.007061
 31 H s       :     0.841624  s :     0.841624
      pz      :     0.053960  p :     0.155894
      px      :     0.065770
      py      :     0.036164
      dz2     :     0.005364  d :     0.027462
      dxz     :     0.007104
      dyz     :     0.003372
      dx2y2   :     0.005680
      dxy     :     0.005942
 32 H s       :     0.843034  s :     0.843034
      pz      :     0.036919  p :     0.151274
      px      :     0.041899
      py      :     0.072457
      dz2     :     0.002671  d :     0.026471
      dxz     :     0.001226
      dyz     :     0.006840
      dx2y2   :     0.007839
      dxy     :     0.007895
 33 H s       :     0.849137  s :     0.849137
      pz      :     0.059072  p :     0.159162
      px      :     0.045998
      py      :     0.054091
      dz2     :     0.006383  d :     0.027768
      dxz     :     0.004654
      dyz     :     0.006416
      dx2y2   :     0.005336
      dxy     :     0.004980
 34 H s       :     0.706889  s :     0.706889
      pz      :     0.115573  p :     0.348060
      px      :     0.083287
      py      :     0.149200
      dz2     :     0.024290  d :     0.099611
      dxz     :     0.012042
      dyz     :     0.024585
      dx2y2   :     0.019390
      dxy     :     0.019304
 35 H s       :     0.839706  s :     0.839706
      pz      :     0.039790  p :     0.156991
      px      :     0.043759
      py      :     0.073442
      dz2     :     0.002684  d :     0.028033
      dxz     :     0.001441
      dyz     :     0.007444
      dx2y2   :     0.008230
      dxy     :     0.008235


                      *****************************
                      * MAYER POPULATION ANALYSIS *
                      *****************************

  NA   - Mulliken gross atomic population
  ZA   - Total nuclear charge
  QA   - Mulliken gross atomic charge
  VA   - Mayer's total valence
  BVA  - Mayer's bonded valence
  FA   - Mayer's free valence

  ATOM       NA         ZA         QA         VA         BVA        FA
  0 C      6.2805     6.0000    -0.2805     3.8927     3.8927    -0.0000
  1 C      5.9442     6.0000     0.0558     3.8734     3.8734    -0.0000
  2 O      8.3539     8.0000    -0.3539     2.0250     2.0250    -0.0000
  3 C      5.5694     6.0000     0.4306     4.2078     4.2078     0.0000
  4 O      8.4078     8.0000    -0.4078     2.0996     2.0996     0.0000
  5 C      6.1764     6.0000    -0.1764     3.6342     3.6342    -0.0000
  6 C      5.8591     6.0000     0.1409     3.8305     3.8305    -0.0000
  7 C      6.2852     6.0000    -0.2852     3.8931     3.8931    -0.0000
  8 N      7.1246     7.0000    -0.1246     3.2874     3.2874     0.0000
  9 C      5.7971     6.0000     0.2029     4.1546     4.1546    -0.0000
 10 S     16.4399    16.0000    -0.4399     1.7555     1.7555     0.0000
 11 N      7.1996     7.0000    -0.1996     3.2595     3.2595     0.0000
 12 C      5.9517     6.0000     0.0483     3.9632     3.9632    -0.0000
 13 C      5.9492     6.0000     0.0508     3.7393     3.7393    -0.0000
 14 C      6.1611     6.0000    -0.1611     3.8644     3.8644    -0.0000
 15 C      6.1333     6.0000    -0.1333     3.8078     3.8078    -0.0000
 16 C      6.2809     6.0000    -0.2809     3.7932     3.7932    -0.0000
 17 C      5.6882     6.0000     0.3118     3.8745     3.8745    -0.0000
 18 O      8.3588     8.0000    -0.3588     2.1155     2.1155    -0.0000
 19 C      6.2767     6.0000    -0.2767     3.8499     3.8499    -0.0000
 20 H      0.9070     1.0000     0.0930     0.9819     0.9819    -0.0000
 21 H      0.8984     1.0000     0.1016     0.9835     0.9835    -0.0000
 22 H      0.9020     1.0000     0.0980     0.9827     0.9827    -0.0000
 23 H      0.9085     1.0000     0.0915     0.9778     0.9778     0.0000
 24 H      0.8981     1.0000     0.1019     0.9790     0.9790    -0.0000
 25 H      0.8747     1.0000     0.1253     0.9833     0.9833    -0.0000
 26 H      0.8953     1.0000     0.1047     0.9861     0.9861    -0.0000
 27 H      0.8742     1.0000     0.1258     0.9760     0.9760     0.0000
 28 H      0.8029     1.0000     0.1971     1.0228     1.0228     0.0000
 29 H      0.8060     1.0000     0.1940     1.0183     1.0183     0.0000
 30 H      0.8457     1.0000     0.1543     0.9959     0.9959     0.0000
 31 H      0.8455     1.0000     0.1545     0.9886     0.9886     0.0000
 32 H      0.8399     1.0000     0.1601     0.9773     0.9773    -0.0000
 33 H      0.8706     1.0000     0.1294     0.9918     0.9918    -0.0000
 34 H      0.7596     1.0000     0.2404     1.0108     1.0108    -0.0000
 35 H      0.8339     1.0000     0.1661     0.9879     0.9879     0.0000

  Mayer bond orders larger than 0.100000
B(  0-C ,  1-C ) :   0.9703 B(  0-C , 20-H ) :   0.9780 B(  0-C , 21-H ) :   0.9782 
B(  0-C , 22-H ) :   0.9769 B(  1-C ,  2-O ) :   0.9045 B(  1-C , 23-H ) :   0.9712 
B(  1-C , 24-H ) :   0.9814 B(  2-O ,  3-C ) :   1.1164 B(  3-C ,  4-O ) :   2.0126 
B(  3-C ,  5-C ) :   1.0352 B(  5-C ,  6-C ) :   1.6608 B(  5-C , 12-C ) :   0.9659 
B(  6-C ,  7-C ) :   0.9526 B(  6-C ,  8-N ) :   1.1390 B(  7-C , 25-H ) :   0.9688 
B(  7-C , 26-H ) :   0.9898 B(  7-C , 27-H ) :   0.9628 B(  8-N ,  9-C ) :   1.1828 
B(  8-N , 28-H ) :   0.9495 B(  9-C , 10-S ) :   1.6102 B(  9-C , 11-N ) :   1.3017 
B( 11-N , 12-C ) :   0.9916 B( 11-N , 29-H ) :   0.9518 B( 12-C , 13-C ) :   0.9455 
B( 12-C , 30-H ) :   0.9988 B( 13-C , 14-C ) :   1.3769 B( 13-C , 19-C ) :   1.3687 
B( 14-C , 15-C ) :   1.3947 B( 14-C , 31-H ) :   0.9644 B( 15-C , 16-C ) :   1.3630 
B( 15-C , 32-H ) :   0.9712 B( 16-C , 17-C ) :   1.3309 B( 16-C , 33-H ) :   0.9855 
B( 17-C , 18-O ) :   1.1088 B( 17-C , 19-C ) :   1.3774 B( 18-O , 34-H ) :   0.9802 
B( 19-C , 35-H ) :   0.9583 

-------
TIMINGS
-------

Total SCF time: 0 days 1 hours 52 min 58 sec 

Total time                  ....    6778.204 sec
Sum of individual times     ....    6770.121 sec  ( 99.9%)

Fock matrix formation       ....    6752.886 sec  ( 99.6%)
Diagonalization             ....       1.436 sec  (  0.0%)
Density matrix formation    ....       0.208 sec  (  0.0%)
Population analysis         ....       0.466 sec  (  0.0%)
Initial guess               ....       6.581 sec  (  0.1%)
Orbital Transformation      ....       0.000 sec  (  0.0%)
Orbital Orthonormalization  ....       0.000 sec  (  0.0%)
DIIS solution               ....       3.961 sec  (  0.1%)
SOSCF solution              ....       3.070 sec  (  0.0%)

Maximum memory used throughout the entire SCF-calculation: 732.1 MB

------------------------------------------------------------------------------
                                ORCA  MP2 
------------------------------------------------------------------------------

Freezing NCore=48 chemical core electrons

-------------
RI-MP2 ENERGY
-------------
Dimension of the basis                    ...  828
Memory devoted to MP2                     ...  256 MB   
Data format for buffers                   ... DOUBLE
Compression type for matrix containers    ... UNCOMPRESSED
Overall scaling of the MP2 energy         ...   1.000e+00
Calculating two index integrals           ... done (    0.045 sec)
Cholesky decomposition of V**-1           ... done (    0.584 sec)

-----------------
RI-TRANSFORMATION (AUX index driven)
-----------------

Dimension of the orbital-basis         ... 828
Dimension of the aux-basis             ... 2141
Transformation of internal/external MOs...   24-  76 to   77- 827
Number Format for Storage              ... Double (8 Byte)
Integral mode                          ... Direct

First Phase: integral generation and transformation of MO indices
  Aux angular momentum 0               ... done (    5.711 sec)
  Aux angular momentum 1               ... done (    9.083 sec)
  Aux angular momentum 2               ... done (   13.520 sec)
  Aux angular momentum 3               ... done (   10.286 sec)
  Aux angular momentum 4               ... done (    3.141 sec)
Closing buffer VIA ( 0.63 GB; CompressionRatio= 1.00)
  Phase 1 completed in    42.164 sec
Second Phase: sorting and transformation of aux index

IA-Transformation
Memory available                       ... 157 MB 
Max. # MO pairs treated in a batch     ... 11    
# of internal orbitals                 ... 53
# batches for internal orbitals        ... 5
Closing buffer IAV ( 0.63 GB; CompressionRatio= 1.00)
(ia|v) transformation done in    23.838 sec

  Phase 2 completed in    23.849 sec
RI-Integral transformation completed in    66.070 sec
Opening buffers                              ... done

Starting loop over batches of integrals:

Operator 0  - window                       ... ( 24- 76)x( 77-827)
Operator 0  - Memory available             ...   256 MB
Operator 0  - Memory needed per MO         ...  12.3 MB
Operator 0  - Number of orbitals per batch ... 13
Operator 0  - Number of batches            ... 5

OPERATOR  0   PASS   0:  MOs    24 ...   36
  Reading integrals       ... ok
  Internal MO  26
  Internal MO  29
  Internal MO  32
  Internal MO  35
OPERATOR  0   PASS   1:  MOs    37 ...   49
  Reading integrals       ... ok
  Internal MO  38
  Internal MO  41
  Internal MO  44
  Internal MO  47
OPERATOR  0   PASS   2:  MOs    50 ...   62
  Reading integrals       ... ok
  Internal MO  50
  Internal MO  53
  Internal MO  56
  Internal MO  59
  Internal MO  62
OPERATOR  0   PASS   3:  MOs    63 ...   75
  Reading integrals       ... ok
  Internal MO  65
  Internal MO  68
  Internal MO  71
  Internal MO  74
OPERATOR  0   PASS   4:  MOs    76 ...   76
  Reading integrals       ... ok
Time spent in pair loops =    96.162 sec
Deleting buffer (Ka|jb)[aa] ...done

-----------------------------------------------
 RI-MP2 CORRELATION ENERGY:     -3.531361101 Eh
-----------------------------------------------


-------
TIMINGS
-------

Total time                :  162.984 sec
Integral trafo            :   66.092 sec ( 40.6%)
I/O of integrals          :    2.169 sec (  1.3%)
K(i,j) Operators          :   65.591 sec ( 40.2%)
T(i,j) pair energies      :    9.177 sec (  5.6%)
V-calculation             :    0.045 sec (  0.0%)
V**(-1/2)                 :    0.584 sec (  0.4%)
Gamma(ia|P)               :    0.000 sec (  0.0%)
Gamma-Trafo               :    0.000 sec (  0.0%)
D(virtual)                :    0.000 sec (  0.0%)
D(internal)               :    0.000 sec (  0.0%)
W(virtual)                :    0.000 sec (  0.0%)
W(internal)               :    0.000 sec (  0.0%)
L(virtual)                :    0.000 sec (  0.0%)
L(internal)               :    0.000 sec (  0.0%)
G(D)                      :    0.000 sec (  0.0%)
G(Z)                      :    0.000 sec (  0.0%)
Z-Vector Solution         :    0.000 sec (  0.0%)
3-Index Derivative        :    0.000 sec (  0.0%)
2-Index Derivative        :    0.000 sec (  0.0%)
Separable Gradient        :    0.000 sec (  0.0%)


---------------------------------------
MP2 TOTAL ENERGY:    -1274.335555587 Eh
---------------------------------------

Maximum memory used throughout the entire MP2-calculation: 304.0 MB

-------------------------   --------------------
FINAL SINGLE POINT ENERGY     -1274.335555587445
-------------------------   --------------------


                            ***************************************
                            *     ORCA property calculations      *
                            ***************************************


  WARNING: The energy has been calculated at the MP2 level but the densities
           used in the property calculations are still SCF densities
           MP2 response densities have not been calculated 
           use %mp2 Density relaxed end
           or  %mp2 Density unrelaxed end

                                    ---------------------
                                    Active property flags
                                    ---------------------
   (+) Dipole Moment


------------------------------------------------------------------------------
                       ORCA ELECTRIC PROPERTIES CALCULATION
------------------------------------------------------------------------------

Dipole Moment Calculation                       ... on
Quadrupole Moment Calculation                   ... off
Polarizability Calculation                      ... off
GBWName                                         ... CONFS/Conf905.orca.gbw
Electron density file                           ... CONFS/Conf905.orca.scfp
The origin for moment calculation is the CENTER OF MASS  = (32.927708, 31.447448 35.391516)

-------------
DIPOLE MOMENT
-------------
                                X             Y             Z
Electronic contribution:     12.02193       8.58545       8.92006
Nuclear contribution   :    -13.42538      -9.91829      -9.69629
                        -----------------------------------------
Total Dipole Moment    :     -1.40345      -1.33284      -0.77624
                        -----------------------------------------
Magnitude (a.u.)       :      2.08535
Magnitude (Debye)      :      5.30053



--------------------
Rotational spectrum 
--------------------
 
Rotational constants in cm-1:     0.010729     0.009188     0.006329 
Rotational constants in MHz :   321.652990   275.435618   189.746374 

 Dipole components along the rotational axes: 
x,y,z [a.u.] :    -1.939349     0.414747     0.644658 
x,y,z [Debye]:    -4.929433     1.054202     1.638592 

 

Timings for individual modules:

Sum of individual times         ...     6947.201 sec (= 115.787 min)
GTO integral calculation        ...        5.037 sec (=   0.084 min)   0.1 %
SCF iterations                  ...     6778.402 sec (= 112.973 min)  97.6 %
MP2 module                      ...      163.762 sec (=   2.729 min)   2.4 %
                             ****ORCA TERMINATED NORMALLY****
TOTAL RUN TIME: 0 days 1 hours 55 minutes 49 seconds 287 msec
