
                                        *****************
                                        * O   R   C   A *
                                        *****************

                                            #,                                       
                                            ###                                      
                                            ####                                     
                                            #####                                    
                                            ######                                   
                                           ########,                                 
                                     ,,################,,,,,                         
                               ,,#################################,,                 
                          ,,##########################################,,             
                       ,#########################################, ''#####,          
                    ,#############################################,,   '####,        
                  ,##################################################,,,,####,       
                ,###########''''           ''''###############################       
              ,#####''   ,,,,##########,,,,          '''####'''          '####       
            ,##' ,,,,###########################,,,                        '##       
           ' ,,###''''                  '''############,,,                           
         ,,##''                                '''############,,,,        ,,,,,,###''
      ,#''                                            '''#######################'''  
     '                                                          ''''####''''         
             ,#######,   #######,   ,#######,      ##                                
            ,#'     '#,  ##    ##  ,#'     '#,    #''#        ######   ,####,        
            ##       ##  ##   ,#'  ##            #'  '#       #        #'  '#        
            ##       ##  #######   ##           ,######,      #####,   #    #        
            '#,     ,#'  ##    ##  '#,     ,#' ,#      #,         ##   #,  ,#        
             '#######'   ##     ##  '#######'  #'      '#     #####' # '####'        



                  #######################################################
                  #                        -***-                        #
                  #          Department of theory and spectroscopy      #
                  #    Directorship and core code : Frank Neese         #
                  #        Max Planck Institute fuer Kohlenforschung    #
                  #                Kaiser Wilhelm Platz 1               #
                  #                 D-45470 Muelheim/Ruhr               #
                  #                      Germany                        #
                  #                                                     #
                  #                  All rights reserved                #
                  #                        -***-                        #
                  #######################################################


                         Program Version 5.0.0 -  RELEASE  -
                                (SVN: $Rev: 19529$)
                ($Date: 2021-06-28 11:36:33 +0200 (Mo, 28 Jun 2021) $)


 With contributions from (in alphabetic order):
   Daniel Aravena         : Magnetic Suceptibility
   Michael Atanasov       : Ab Initio Ligand Field Theory (pilot matlab implementation)
   Alexander A. Auer      : GIAO ZORA, VPT2 properties, NMR spectrum
   Ute Becker             : Parallelization
   Giovanni Bistoni       : ED, misc. LED, open-shell LED, HFLD
   Martin Brehm           : Molecular dynamics
   Dmytro Bykov           : SCF Hessian
   Vijay G. Chilkuri      : MRCI spin determinant printing, contributions to CSF-ICE
   Dipayan Datta          : RHF DLPNO-CCSD density
   Achintya Kumar Dutta   : EOM-CC, STEOM-CC
   Dmitry Ganyushin       : Spin-Orbit,Spin-Spin,Magnetic field MRCI
   Miquel Garcia          : C-PCM Hessian, Gaussian charge scheme
   Yang Guo               : DLPNO-NEVPT2, F12-NEVPT2, CIM, IAO-localization
   Andreas Hansen         : Spin unrestricted coupled pair/coupled cluster methods
   Benjamin Helmich-Paris : MC-RPA, TRAH-SCF, COSX integrals
   Lee Huntington         : MR-EOM, pCC
   Robert Izsak           : Overlap fitted RIJCOSX, COSX-SCS-MP3, EOM
   Marcus Kettner         : VPT2
   Christian Kollmar      : KDIIS, OOCD, Brueckner-CCSD(T), CCSD density, CASPT2, CASPT2-K
   Simone Kossmann        : Meta GGA functionals, TD-DFT gradient, OOMP2, MP2 Hessian
   Martin Krupicka        : Initial AUTO-CI
   Lucas Lang             : DCDCAS
   Marvin Lechner         : AUTO-CI (C++ implementation), FIC-MRCC
   Dagmar Lenk            : GEPOL surface, SMD
   Dimitrios Liakos       : Extrapolation schemes; Compound Job, initial MDCI parallelization
   Dimitrios Manganas     : Further ROCIS development; embedding schemes
   Dimitrios Pantazis     : SARC Basis sets
   Anastasios Papadopoulos: AUTO-CI, single reference methods and gradients
   Taras Petrenko         : DFT Hessian,TD-DFT gradient, ASA, ECA, R-Raman, ABS, FL, XAS/XES, NRVS
   Peter Pinski           : DLPNO-MP2, DLPNO-MP2 Gradient
   Christoph Reimann      : Effective Core Potentials
   Marius Retegan         : Local ZFS, SOC
   Christoph Riplinger    : Optimizer, TS searches, QM/MM, DLPNO-CCSD(T), (RO)-DLPNO pert. Triples
   Tobias Risthaus        : Range-separated hybrids, TD-DFT gradient, RPA, STAB
   Michael Roemelt        : Original ROCIS implementation
   Masaaki Saitow         : Open-shell DLPNO-CCSD energy and density
   Barbara Sandhoefer     : DKH picture change effects
   Avijit Sen             : IP-ROCIS
   Kantharuban Sivalingam : CASSCF convergence, NEVPT2, FIC-MRCI
   Bernardo de Souza      : ESD, SOC TD-DFT
   Georgi Stoychev        : AutoAux, RI-MP2 NMR
   Willem Van den Heuvel  : Paramagnetic NMR
   Boris Wezisla          : Elementary symmetry handling
   Frank Wennmohs         : Technical directorship


 We gratefully acknowledge several colleagues who have allowed us to
 interface, adapt or use parts of their codes:
   Stefan Grimme, W. Hujo, H. Kruse, P. Pracht,  : VdW corrections, initial TS optimization,
                  C. Bannwarth, S. Ehlert          DFT functionals, gCP, sTDA/sTD-DF
   Ed Valeev, F. Pavosevic, A. Kumar             : LibInt (2-el integral package), F12 methods
   Garnet Chan, S. Sharma, J. Yang, R. Olivares  : DMRG
   Ulf Ekstrom                                   : XCFun DFT Library
   Mihaly Kallay                                 : mrcc  (arbitrary order and MRCC methods)
   Jiri Pittner, Ondrej Demel                    : Mk-CCSD
   Frank Weinhold                                : gennbo (NPA and NBO analysis)
   Christopher J. Cramer and Donald G. Truhlar   : smd solvation model
   Lars Goerigk                                  : TD-DFT with DH, B97 family of functionals
   V. Asgeirsson, H. Jonsson                     : NEB implementation
   FAccTs GmbH                                   : IRC, NEB, NEB-TS, DLPNO-Multilevel, CI-OPT
                                                   MM, QMMM, 2- and 3-layer-ONIOM, Crystal-QMMM,
                                                   LR-CPCM, SF, NACMEs, symmetry and pop. for TD-DFT,
                                                   nearIR, NL-DFT gradient (VV10), updates on ESD,
                                                   ML-optimized integration grids
   S Lehtola, MJT Oliveira, MAL Marques          : LibXC Library
   Liviu Ungur et al                             : ANISO software


 Your calculation uses the libint2 library for the computation of 2-el integrals
 For citations please refer to: http://libint.valeyev.net

 Your ORCA version has been built with support for libXC version: 5.1.0
 For citations please refer to: https://tddft.org/programs/libxc/

 This ORCA versions uses:
   CBLAS   interface :  Fast vector & matrix operations
   LAPACKE interface :  Fast linear algebra routines
   SCALAPACK package :  Parallel linear algebra routines
   Shared memory     :  Shared parallel matrices
   BLAS/LAPACK       :  OpenBLAS 0.3.15  USE64BITINT DYNAMIC_ARCH NO_AFFINITY Zen SINGLE_THREADED
        Core in use  :  Zen
   Copyright (c) 2011-2014, The OpenBLAS Project


================================================================================

----- Orbital basis set information -----
Your calculation utilizes the basis: cc-pVTZ 
       H, B-Ne : Obtained from the ccRepo (grant-hill.group.shef.ac.uk/ccrepo) Feb. 2017
                 T. H. Dunning, Jr., J. Chem. Phys. 90, 1007 (1989)
            He : Obtained from the ccRepo (grant-hill.group.shef.ac.uk/ccrepo) Feb. 2017
                 D. E. Woon, T. H. Dunning, Jr., J. Chem. Phys. 100, 2975 (1994)
  Li-Be, Na-Mg : Obtained from the ccRepo (grant-hill.group.shef.ac.uk/ccrepo) Feb. 2017
                 B. P. Prascher, D. E. Woon, K. A. Peterson, T. H. Dunning, Jr., A. K. Wilson, Theor. Chem. Acc. 128, 69 (2011)
         Al-Ar : Obtained from the ccRepo (grant-hill.group.shef.ac.uk/ccrepo) Feb. 2017
                 D. E. Woon, T. H. Dunning, Jr., J. Chem. Phys. 98, 1358 (1993)
            Ca : Obtained from the Peterson Research Group Website (tyr0.chem.wsu.edu/~kipeters) Feb. 2017
                 J. Koput, K. A. Peterson, J. Phys. Chem. 106, 9595 (2002)
         Sc-Zn : Obtained from the ccRepo (grant-hill.group.shef.ac.uk/ccrepo) Feb. 2017
                 N. B. Balabanov, K. A. Peterson, J. Chem. Phys. 123, 064107 (2005)
                 N. B. Balabanov, K. A. Peterson, J. Chem. Phys. 125, 074110 (2006)
         Ga-Kr : Obtained from the ccRepo (grant-hill.group.shef.ac.uk/ccrepo) Feb. 2017
                 A. K. Wilson, D. E. Woon, K. A. Peterson, T. H. Dunning, Jr., J. Chem. Phys. 110, 7667 (1999)
             Y : Obtained from the ccRepo (grant-hill.group.shef.ac.uk/ccrepo) Feb. 2017
                 K. A. Peterson, D. Figgen, M. Dolg, H. Stoll, J. Chem. Phys. 126, 124101 (2007)
        Ag, Au : Obtained from the Peterson Research Group Website (tyr0.chem.wsu.edu/~kipeters) Feb. 2017
                 K. A. Peterson, C. Puzzarini, Theor. Chem. Acc. 114, 283 (2005)

----- AuxC basis set information -----
Your calculation utilizes the auxiliary basis: cc-pVTZ/C 
  Obtained from the EMSL Basis Set Exchange (bse.pnl.gov) Feb. 2017
  H-He, B-F, Al-Ar, Ga-Kr : F. Weigend, A. Kohn, C. Hattig, J. Chem. Phys. 116, 3175 (2002)
             Li-Be, Na-Mg : C. Haettig, Phys. Chem. Chem. Phys. 7, 59 (2005)
                       Ne : C. Haettig, Phys. Chem. Chem. Phys. 7, 59 (2005)
                            F. Weigend, A. Kohn, C. Hattig, J. Chem. Phys. 116, 3175 (2002)
                    Sc-Zn : J. G. Hill, J. A. Platts, J. Chem. Phys. 128, 044104 (2008)

================================================================================
                                        WARNINGS
                       Please study these warnings very carefully!
================================================================================


WARNING: No MP2 level density has been requested!
         To caclulate MP2 level properties use
         %mp2 Density relaxed end
         or
         %mp2 Density unrelaxed end

WARNING: Post HF methods need fully converged wavefunctions
  ===> : Setting SCFConvForced true
         You can overwrite this default with %scf ConvForced false 


INFO   : the flag for use of the SHARK integral package has been found!

================================================================================
                                       INPUT FILE
================================================================================
NAME = CONFS/Conf887.orca
|  1> ! ri-mp2 cc-pvtz cc-pvtz/c TightSCF NoKeepInts
|  2> 
|  3> %scf
|  4>   MaxCore 4096
|  5> end
|  6> *xyz  0  1
|  7>     C       14.6596925   14.1766618   16.5976359
|  8>     C       15.6396605   15.2199674   17.1576127
|  9>     O       16.8486159   15.1174942   16.3836431
| 10>     C       17.6822684   16.1870282   16.2050498
| 11>     O       18.0861430   16.4687079   15.0925844
| 12>     C       17.8195486   17.1323906   17.3557438
| 13>     C       17.4404146   18.4239572   17.2279971
| 14>     C       16.7096857   19.0226484   16.0467092
| 15>     N       17.7511779   19.3480729   18.2278572
| 16>     C       18.5847206   19.0928573   19.2851096
| 17>     S       18.9974062   20.2662167   20.3745462
| 18>     N       19.0633271   17.8101116   19.3964717
| 19>     C       18.6352039   16.6635704   18.5694577
| 20>     C       17.9300369   15.6241972   19.4317857
| 21>     C       18.2536685   14.2606720   19.2995554
| 22>     C       17.6046560   13.2923969   20.0836628
| 23>     C       16.6270655   13.6895424   21.0116475
| 24>     C       16.3051851   15.0462573   21.1505852
| 25>     O       15.3559838   15.4320862   22.0392820
| 26>     C       16.9497176   16.0085293   20.3665412
| 27>     H       13.7064357   14.2128040   17.1387197
| 28>     H       15.0744723   13.1659201   16.6988459
| 29>     H       14.4608058   14.3636640   15.5348160
| 30>     H       15.1946261   16.2186750   17.0562520
| 31>     H       15.8137568   15.0129227   18.2160150
| 32>     H       15.9280759   18.3464601   15.6792653
| 33>     H       17.4075981   19.1927268   15.2160464
| 34>     H       16.2311593   19.9791574   16.2882905
| 35>     H       17.4322341   20.3005956   18.1459060
| 36>     H       19.6621382   17.6516309   20.1972731
| 37>     H       19.5488941   16.1957604   18.1751889
| 38>     H       19.0037556   13.9473417   18.5773625
| 39>     H       17.8595254   12.2398173   19.9696756
| 40>     H       16.1233971   12.9441498   21.6187205
| 41>     H       15.0737245   14.6438624   22.5278471
| 42>     H       16.6822227   17.0531459   20.4902974
| 43> *
| 44> 
| 45>                          ****END OF INPUT****
================================================================================

                       ****************************
                       * Single Point Calculation *
                       ****************************

---------------------------------
CARTESIAN COORDINATES (ANGSTROEM)
---------------------------------
  C     14.659693   14.176662   16.597636
  C     15.639660   15.219967   17.157613
  O     16.848616   15.117494   16.383643
  C     17.682268   16.187028   16.205050
  O     18.086143   16.468708   15.092584
  C     17.819549   17.132391   17.355744
  C     17.440415   18.423957   17.227997
  C     16.709686   19.022648   16.046709
  N     17.751178   19.348073   18.227857
  C     18.584721   19.092857   19.285110
  S     18.997406   20.266217   20.374546
  N     19.063327   17.810112   19.396472
  C     18.635204   16.663570   18.569458
  C     17.930037   15.624197   19.431786
  C     18.253668   14.260672   19.299555
  C     17.604656   13.292397   20.083663
  C     16.627066   13.689542   21.011647
  C     16.305185   15.046257   21.150585
  O     15.355984   15.432086   22.039282
  C     16.949718   16.008529   20.366541
  H     13.706436   14.212804   17.138720
  H     15.074472   13.165920   16.698846
  H     14.460806   14.363664   15.534816
  H     15.194626   16.218675   17.056252
  H     15.813757   15.012923   18.216015
  H     15.928076   18.346460   15.679265
  H     17.407598   19.192727   15.216046
  H     16.231159   19.979157   16.288290
  H     17.432234   20.300596   18.145906
  H     19.662138   17.651631   20.197273
  H     19.548894   16.195760   18.175189
  H     19.003756   13.947342   18.577362
  H     17.859525   12.239817   19.969676
  H     16.123397   12.944150   21.618720
  H     15.073724   14.643862   22.527847
  H     16.682223   17.053146   20.490297

----------------------------
CARTESIAN COORDINATES (A.U.)
----------------------------
  NO LB      ZA    FRAG     MASS         X           Y           Z
   0 C     6.0000    0    12.011   27.702804   26.790008   31.364986
   1 C     6.0000    0    12.011   29.554675   28.761570   32.423189
   2 O     8.0000    0    15.999   31.839270   28.567924   30.960599
   3 C     6.0000    0    12.011   33.414645   30.589050   30.623106
   4 O     8.0000    0    15.999   34.177857   31.121348   28.520851
   5 C     6.0000    0    12.011   33.674067   32.375526   32.797603
   6 C     6.0000    0    12.011   32.957607   34.816233   32.556196
   7 C     6.0000    0    12.011   31.576730   35.947596   30.323886
   8 N     7.0000    0    14.007   33.544865   36.562559   34.445658
   9 C     6.0000    0    12.011   35.120032   36.080271   36.443576
  10 S    16.0000    0    32.060   35.899895   38.297599   38.502312
  11 N     7.0000    0    14.007   36.024467   33.656233   36.654019
  12 C     6.0000    0    12.011   35.215432   31.489584   35.091190
  13 C     6.0000    0    12.011   33.882859   29.525454   36.720753
  14 C     6.0000    0    12.011   34.494434   26.948765   36.470874
  15 C     6.0000    0    12.011   33.267979   25.118990   37.952622
  16 C     6.0000    0    12.011   31.420600   25.869486   39.706259
  17 C     6.0000    0    12.011   30.812334   28.433306   39.968814
  18 O     8.0000    0    15.999   29.018604   29.162417   41.648207
  19 C     6.0000    0    12.011   32.030324   30.251736   38.487185
  20 H     1.0000    0     1.008   25.901410   26.858307   32.387487
  21 H     1.0000    0     1.008   28.486624   24.879983   31.556246
  22 H     1.0000    0     1.008   27.326963   27.143391   29.356548
  23 H     1.0000    0     1.008   28.713682   30.648854   32.231645
  24 H     1.0000    0     1.008   29.883670   28.370312   34.423280
  25 H     1.0000    0     1.008   30.099701   34.669785   29.629517
  26 H     1.0000    0     1.008   32.895593   36.268997   28.754161
  27 H     1.0000    0     1.008   30.672446   37.755136   30.780408
  28 H     1.0000    0     1.008   32.942148   38.362566   34.290793
  29 H     1.0000    0     1.008   37.156056   33.356748   38.167315
  30 H     1.0000    0     1.008   36.942056   30.605552   34.346129
  31 H     1.0000    0     1.008   35.911894   26.356656   35.106127
  32 H     1.0000    0     1.008   33.749612   23.129903   37.737218
  33 H     1.0000    0     1.008   30.468805   24.460898   40.853461
  34 H     1.0000    0     1.008   28.485211   27.672889   42.571461
  35 H     1.0000    0     1.008   31.524832   32.225775   38.721050

--------------------------------
INTERNAL COORDINATES (ANGSTROEM)
--------------------------------
 C      0   0   0     0.000000000000     0.00000000     0.00000000
 C      1   0   0     1.537009392474     0.00000000     0.00000000
 O      2   1   0     1.439132675479   106.93790360     0.00000000
 C      3   2   1     1.367762784520   121.77329901   152.05232773
 O      4   3   2     1.216567882247   120.18496923   228.24019892
 C      4   3   2     1.495544249523   116.72918092    35.45169361
 C      6   4   3     1.352111715633   120.35667834   242.06299596
 C      7   6   4     1.512559744585   125.96851111     7.82227314
 N      7   6   4     1.396525644299   120.13596329   189.57895294
 C      9   7   6     1.370295979894   124.36876883     9.14107414
 S     10   9   7     1.653467203012   121.87132954   175.46637311
 N     10   9   7     1.373645598409   116.64208826   355.49020341
 C     12  10   9     1.477091179945   125.34316576   352.66131633
 C     13  12  10     1.523537569721   110.29131001   245.18673365
 C     14  13  12     1.407630361917   120.08278767   225.97697880
 C     15  14  13     1.404848144523   120.59700000   180.37187932
 C     16  15  14     1.405191566049   119.68284694   359.76968058
 C     17  16  15     1.401280127693   119.92876088     0.00000000
 O     18  17  16     1.356329255869   120.07535657   179.57797244
 C     18  17  16     1.398611647126   120.31138818     0.19520369
 H      1   2   3     1.096711659457   110.61363202   180.79433368
 H      1   2   3     1.097216720027   110.52775811    60.89898187
 H      1   2   3     1.097320318812   110.65602549   300.86925822
 H      2   1   3     1.098064879224   108.98581889   119.85941100
 H      2   1   3     1.092425035468   109.02265586   238.78919618
 H      8   7   6     1.096886282237   111.21483234    40.93989090
 H      8   7   6     1.098184441487   110.18262599   282.26997166
 H      8   7   6     1.096475493154   112.58509299   161.64970576
 H      9   7   6     1.007839590786   119.78628271   182.59440859
 H     12  10   9     1.012409871543   114.60660342   181.06635050
 H     13  12  10     1.099601684397   106.86664851   128.87080729
 H     15  14  13     1.087367977869   120.00757930   359.65553150
 H     16  15  14     1.088979020531   119.97707834   179.70599668
 H     17  16  15     1.085278587563   119.87836132   179.97381825
 H     19  18  17     0.969362124420   107.62009346     4.59686354
 H     20  18  17     1.085399907665   118.99133370   179.86906541

---------------------------
INTERNAL COORDINATES (A.U.)
---------------------------
 C      0   0   0     0.000000000000     0.00000000     0.00000000
 C      1   0   0     2.904526817041     0.00000000     0.00000000
 O      2   1   0     2.719566627033   106.93790360     0.00000000
 C      3   2   1     2.584697078912   121.77329901   152.05232773
 O      4   3   2     2.298980120771   120.18496923   228.24019892
 C      4   3   2     2.826169052760   116.72918092    35.45169361
 C      6   4   3     2.555120845013   120.35667834   242.06299596
 C      7   6   4     2.858323678460   125.96851111     7.82227314
 N      7   6   4     2.639051006723   120.13596329   189.57895294
 C      9   7   6     2.589484124412   124.36876883     9.14107414
 S     10   9   7     3.124600185113   121.87132954   175.46637311
 N     10   9   7     2.595813986059   116.64208826   355.49020341
 C     12  10   9     2.791297804927   125.34316576   352.66131633
 C     13  12  10     2.879068761513   110.29131001   245.18673365
 C     14  13  12     2.660035881816   120.08278767   225.97697880
 C     15  14  13     2.654778252897   120.59700000   180.37187932
 C     16  15  14     2.655427225528   119.68284694   359.76968058
 C     17  16  15     2.648035678246   119.92876088     0.00000000
 O     18  17  16     2.563090841018   120.07535657   179.57797244
 C     18  17  16     2.642992980780   120.31138818     0.19520369
 H      1   2   3     2.072484684253   110.61363202   180.79433368
 H      1   2   3     2.073439110410   110.52775811    60.89898187
 H      1   2   3     2.073634883742   110.65602549   300.86925822
 H      2   1   3     2.075041899011   108.98581889   119.85941100
 H      2   1   3     2.064384138874   109.02265586   238.78919618
 H      8   7   6     2.072814673483   111.21483234    40.93989090
 H      8   7   6     2.075267838944   110.18262599   282.26997166
 H      8   7   6     2.072038394618   112.58509299   161.64970576
 H      9   7   6     1.904540813508   119.78628271   182.59440859
 H     12  10   9     1.913177392495   114.60660342   181.06635050
 H     13  12  10     2.077946039909   106.86664851   128.87080729
 H     15  14  13     2.054827684968   120.00757930   359.65553150
 H     16  15  14     2.057872114389   119.97707834   179.70599668
 H     17  16  15     2.050879309503   119.87836132   179.97381825
 H     19  18  17     1.831828939751   107.62009346     4.59686354
 H     20  18  17     2.051108571271   118.99133370   179.86906541

---------------------
BASIS SET INFORMATION
---------------------
There are 5 groups of distinct atoms

 Group   1 Type C   : 18s5p2d1f contracted to 4s3p2d1f pattern {8811/311/11/1}
 Group   2 Type O   : 18s5p2d1f contracted to 4s3p2d1f pattern {8811/311/11/1}
 Group   3 Type N   : 18s5p2d1f contracted to 4s3p2d1f pattern {8811/311/11/1}
 Group   4 Type S   : 41s16p2d1f contracted to 5s4p2d1f pattern {13131311/7711/11/1}
 Group   5 Type H   : 5s2p1d contracted to 3s2p1d pattern {311/11/1}

Atom   0C    basis set group =>   1
Atom   1C    basis set group =>   1
Atom   2O    basis set group =>   2
Atom   3C    basis set group =>   1
Atom   4O    basis set group =>   2
Atom   5C    basis set group =>   1
Atom   6C    basis set group =>   1
Atom   7C    basis set group =>   1
Atom   8N    basis set group =>   3
Atom   9C    basis set group =>   1
Atom  10S    basis set group =>   4
Atom  11N    basis set group =>   3
Atom  12C    basis set group =>   1
Atom  13C    basis set group =>   1
Atom  14C    basis set group =>   1
Atom  15C    basis set group =>   1
Atom  16C    basis set group =>   1
Atom  17C    basis set group =>   1
Atom  18O    basis set group =>   2
Atom  19C    basis set group =>   1
Atom  20H    basis set group =>   5
Atom  21H    basis set group =>   5
Atom  22H    basis set group =>   5
Atom  23H    basis set group =>   5
Atom  24H    basis set group =>   5
Atom  25H    basis set group =>   5
Atom  26H    basis set group =>   5
Atom  27H    basis set group =>   5
Atom  28H    basis set group =>   5
Atom  29H    basis set group =>   5
Atom  30H    basis set group =>   5
Atom  31H    basis set group =>   5
Atom  32H    basis set group =>   5
Atom  33H    basis set group =>   5
Atom  34H    basis set group =>   5
Atom  35H    basis set group =>   5
---------------------------------
AUXILIARY/C BASIS SET INFORMATION
---------------------------------
There are 5 groups of distinct atoms

 Group   1 Type C   : 8s6p5d3f1g contracted to 8s6p5d3f1g pattern {11111111/111111/11111/111/1}
 Group   2 Type O   : 8s6p5d3f1g contracted to 8s6p5d3f1g pattern {11111111/111111/11111/111/1}
 Group   3 Type N   : 8s6p5d3f1g contracted to 8s6p5d3f1g pattern {11111111/111111/11111/111/1}
 Group   4 Type S   : 10s8p7d5f2g contracted to 10s8p7d5f2g pattern {1111111111/11111111/1111111/11111/11}
 Group   5 Type H   : 4s3p2d1f contracted to 4s3p2d1f pattern {1111/111/11/1}

Atom   0C    basis set group =>   1
Atom   1C    basis set group =>   1
Atom   2O    basis set group =>   2
Atom   3C    basis set group =>   1
Atom   4O    basis set group =>   2
Atom   5C    basis set group =>   1
Atom   6C    basis set group =>   1
Atom   7C    basis set group =>   1
Atom   8N    basis set group =>   3
Atom   9C    basis set group =>   1
Atom  10S    basis set group =>   4
Atom  11N    basis set group =>   3
Atom  12C    basis set group =>   1
Atom  13C    basis set group =>   1
Atom  14C    basis set group =>   1
Atom  15C    basis set group =>   1
Atom  16C    basis set group =>   1
Atom  17C    basis set group =>   1
Atom  18O    basis set group =>   2
Atom  19C    basis set group =>   1
Atom  20H    basis set group =>   5
Atom  21H    basis set group =>   5
Atom  22H    basis set group =>   5
Atom  23H    basis set group =>   5
Atom  24H    basis set group =>   5
Atom  25H    basis set group =>   5
Atom  26H    basis set group =>   5
Atom  27H    basis set group =>   5
Atom  28H    basis set group =>   5
Atom  29H    basis set group =>   5
Atom  30H    basis set group =>   5
Atom  31H    basis set group =>   5
Atom  32H    basis set group =>   5
Atom  33H    basis set group =>   5
Atom  34H    basis set group =>   5
Atom  35H    basis set group =>   5
------------------------------------------------------------------------------
                           ORCA GTO INTEGRAL CALCULATION
------------------------------------------------------------------------------
------------------------------------------------------------------------------
                   ___                                                        
                  /   \      - P O W E R E D   B Y -                         
                 /     \                                                     
                 |  |  |   _    _      __       _____    __    __             
                 |  |  |  | |  | |    /  \     |  _  \  |  |  /  |          
                  \  \/   | |  | |   /    \    | | | |  |  | /  /          
                 / \  \   | |__| |  /  /\  \   | |_| |  |  |/  /          
                |  |  |   |  __  | /  /__\  \  |    /   |      \           
                |  |  |   | |  | | |   __   |  |    \   |  |\   \          
                \     /   | |  | | |  |  |  |  | |\  \  |  | \   \       
                 \___/    |_|  |_| |__|  |__|  |_| \__\ |__|  \__/        
                                                                              
                      - O R C A' S   B I G   F R I E N D -                    
                                      &                                       
                       - I N T E G R A L  F E E D E R -                       
                                                                              
 v1 FN, 2020, v2 2021                                                         
------------------------------------------------------------------------------


Reading SHARK input file CONFS/Conf887.orca.SHARKINP.tmp ... ok
----------------------
SHARK INTEGRAL PACKAGE
----------------------

Number of atoms                             ...     36
Number of basis functions                   ...    828
Number of shells                            ...    298
Maximum angular momentum                    ...      3
Integral batch strategy                     ... SHARK/LIBINT Hybrid
RI-J (if used) integral strategy            ... SPLIT-RIJ (Revised 2003 algorithm where possible)
Printlevel                                  ...      1
Contraction scheme used                     ... SEGMENTED contraction
Coulomb Range Separation                    ... NOT USED
Exchange Range Separation                   ... NOT USED
Finite Nucleus Model                        ... NOT USED
Auxiliary Coulomb fitting basis             ... NOT available
Auxiliary J/K fitting basis                 ... NOT available
Auxiliary Correlation fitting basis         ... AVAILABLE
   # of basis functions in Aux-C            ...   2141
   # of shells in Aux-C                     ...    629
   Maximum angular momentum in Aux-C        ...      4
Auxiliary 'external' fitting basis          ... NOT available
Integral threshold                          ...     2.500000e-11
Primitive cut-off                           ...     2.500000e-12
Primitive pair pre-selection threshold      ...     2.500000e-12

Calculating pre-screening integrals         ... done (  0.5 sec) Dimension = 298
Organizing shell pair data                  ... done (  1.2 sec)
Shell pair information
Total number of shell pairs                 ...     44551
Shell pairs after pre-screening             ...     34116
Total number of primitive shell pairs       ...    234348
Primitive shell pairs kept                  ...     97335
          la=0 lb=0:   6787 shell pairs
          la=1 lb=0:   9453 shell pairs
          la=1 lb=1:   3346 shell pairs
          la=2 lb=0:   5462 shell pairs
          la=2 lb=1:   3750 shell pairs
          la=2 lb=2:   1077 shell pairs
          la=3 lb=0:   1985 shell pairs
          la=3 lb=1:   1354 shell pairs
          la=3 lb=2:    753 shell pairs
          la=3 lb=3:    149 shell pairs

Calculating one electron integrals          ... done (  0.3 sec)
Calculating RI/C V-Matrix + Cholesky decomp.... done (  0.9 sec)
Calculating Nuclear repulsion               ... done (  0.1 sec) ENN=   1717.532881507610 Eh

SHARK setup successfully completed in   3.5 seconds

Maximum memory used throughout the entire GTOINT-calculation: 507.3 MB
-------------------------------------------------------------------------------
                                 ORCA SCF
-------------------------------------------------------------------------------

------------
SCF SETTINGS
------------
Hamiltonian:
 Ab initio Hamiltonian  Method          .... Hartree-Fock(GTOs)


General Settings:
 Integral files         IntName         .... CONFS/Conf887.orca
 Hartree-Fock type      HFTyp           .... RHF
 Total Charge           Charge          ....    0
 Multiplicity           Mult            ....    1
 Number of Electrons    NEL             ....  154
 Basis Dimension        Dim             ....  828
 Nuclear Repulsion      ENuc            ....   1717.5328815076 Eh

Convergence Acceleration:
 DIIS                   CNVDIIS         .... on
   Start iteration      DIISMaxIt       ....    12
   Startup error        DIISStart       ....  0.200000
   # of expansion vecs  DIISMaxEq       ....     5
   Bias factor          DIISBfac        ....   1.050
   Max. coefficient     DIISMaxC        ....  10.000
 Trust-Rad. Augm. Hess. CNVTRAH         .... auto
   Auto Start mean grad. ratio tolernc. ....  1.125000
   Auto Start start iteration           ....    20
   Auto Start num. interpolation iter.  ....    10
   Max. Number of Micro iterations      ....    16
   Max. Number of Macro iterations      .... Maxiter - #DIIS iter
   Number of Davidson start vectors     ....     2
   Converg. threshold I  (grad. norm)   ....   1.000e-05
   Converg. threshold II (energy diff.) ....   1.000e-08
   Grad. Scal. Fac. for Micro threshold ....   0.100
   Minimum threshold for Micro iter.    ....   0.010
   NR start threshold (gradient norm)   ....   0.001
   Initial trust radius                 ....   0.400
   Minimum AH scaling param. (alpha)    ....   1.000
   Maximum AH scaling param. (alpha)    .... 1000.000
   Orbital update algorithm             .... Taylor
   White noise on init. David. guess    .... on
   Maximum white noise                  ....   0.010
   Quad. conv. algorithm                .... NR
 SOSCF                  CNVSOSCF        .... on
   Start iteration      SOSCFMaxIt      ....   150
   Startup grad/error   SOSCFStart      ....  0.003300
 Level Shifting         CNVShift        .... on
   Level shift para.    LevelShift      ....    0.2500
   Turn off err/grad.   ShiftErr        ....    0.0010
 Zerner damping         CNVZerner       .... off
 Static damping         CNVDamp         .... on
   Fraction old density DampFac         ....    0.7000
   Max. Damping (<1)    DampMax         ....    0.9800
   Min. Damping (>=0)   DampMin         ....    0.0000
   Turn off err/grad.   DampErr         ....    0.1000
 Fernandez-Rico         CNVRico         .... off

SCF Procedure:
 Maximum # iterations   MaxIter         ....   125
 SCF integral mode      SCFMode         .... Direct
   Integral package                     .... SHARK and LIBINT hybrid scheme
 Reset frequency        DirectResetFreq ....    20
 Integral Threshold     Thresh          ....  2.500e-11 Eh
 Primitive CutOff       TCut            ....  2.500e-12 Eh

Convergence Tolerance:
 Convergence Check Mode ConvCheckMode   .... Total+1el-Energy
 Convergence forced     ConvForced      .... 1
 Energy Change          TolE            ....  1.000e-08 Eh
 1-El. energy change                    ....  1.000e-05 Eh
 Orbital Gradient       TolG            ....  1.000e-05
 Orbital Rotation angle TolX            ....  1.000e-05
 DIIS Error             TolErr          ....  5.000e-07


Diagonalization of the overlap matrix:
Smallest eigenvalue                        ... 3.277e-05
Time for diagonalization                   ...    0.110 sec
Threshold for overlap eigenvalues          ... 1.000e-08
Number of eigenvalues below threshold      ... 0
Time for construction of square roots      ...    0.114 sec
Total time needed                          ...    0.224 sec

Time for model grid setup =    1.701 sec

------------------------------
INITIAL GUESS: MODEL POTENTIAL
------------------------------
Loading Hartree-Fock densities                     ... done
Calculating cut-offs                               ... done
Initializing the effective Hamiltonian             ... done
Setting up the integral package (SHARK)            ... done
Starting the Coulomb interaction                   ... done (   4.7 sec)
Reading the grid                                   ... done
Mapping shells                                     ... done
Starting the XC term evaluation                    ... done (   1.2 sec)
Transforming the Hamiltonian                       ... done (   0.1 sec)
Diagonalizing the Hamiltonian                      ... done (   0.1 sec)
Back transforming the eigenvectors                 ... done (   0.0 sec)
Now organizing SCF variables                       ... done
                      ------------------
                      INITIAL GUESS DONE (   8.3 sec)
                      ------------------
--------------
SCF ITERATIONS
--------------
ITER       Energy         Delta-E        Max-DP      RMS-DP      [F,P]     Damp
               ***  Starting incremental Fock matrix formation  ***
  0  -1269.9965291684   0.000000000000 0.04932606  0.00043667  0.3062572 0.7000
  1  -1270.2635700266  -0.267040858264 0.03609686  0.00035368  0.1801288 0.7000
                               ***Turning on DIIS***
  2  -1270.4299055898  -0.166335563203 0.02585601  0.00023689  0.1097626 0.7000
  3  -1272.5316440466  -2.101738456797 0.06321253  0.00050967  0.0828786 0.0000
  4  -1270.7415460938   1.790097952856 0.01004557  0.00010033  0.0068677 0.0000
  5  -1270.7963501531  -0.054804059355 0.00421290  0.00005065  0.0035672 0.0000
                      *** Initiating the SOSCF procedure ***
                           *** Shutting down DIIS ***
                      *** Re-Reading the Fockian *** 
                      *** Removing any level shift *** 
ITER      Energy       Delta-E        Grad      Rot      Max-DP    RMS-DP
  6  -1270.77508528   0.0212648774  0.001790  0.001790  0.002065  0.000026
               *** Restarting incremental Fock matrix formation ***
  7  -1270.79131997  -0.0162346912  0.000744  0.001857  0.001326  0.000016
  8  -1270.79136460  -0.0000446284  0.000466  0.002049  0.001441  0.000017
  9  -1270.79138120  -0.0000165999  0.000174  0.000310  0.000402  0.000005
 10  -1270.79138353  -0.0000023361  0.000039  0.000103  0.000117  0.000001
 11  -1270.79138371  -0.0000001824  0.000020  0.000084  0.000066  0.000001
 12  -1270.79138377  -0.0000000581  0.000010  0.000035  0.000029  0.000000
 13  -1270.79138378  -0.0000000047  0.000003  0.000012  0.000008  0.000000
                  ***Gradient check signals convergence***
              ***Rediagonalizing the Fockian in SOSCF/NRSCF***

               *****************************************************
               *                     SUCCESS                       *
               *           SCF CONVERGED AFTER  14 CYCLES          *
               *****************************************************


----------------
TOTAL SCF ENERGY
----------------

Total Energy       :        -1270.79138376 Eh          -34579.99156 eV

Components:
Nuclear Repulsion  :         1717.53288151 Eh           46736.44574 eV
Electronic Energy  :        -2988.32426527 Eh          -81316.43731 eV
One Electron Energy:        -5155.64011025 Eh         -140292.09971 eV
Two Electron Energy:         2167.31584498 Eh           58975.66241 eV

Virial components:
Potential Energy   :        -2539.81076805 Eh          -69111.76457 eV
Kinetic Energy     :         1269.01938429 Eh           34531.77301 eV
Virial Ratio       :            2.00139635


---------------
SCF CONVERGENCE
---------------

  Last Energy change         ...    1.5412e-08  Tolerance :   1.0000e-08
  Last MAX-Density change    ...    2.4434e-06  Tolerance :   1.0000e-07
  Last RMS-Density change    ...    3.4227e-08  Tolerance :   5.0000e-09
  Last Orbital Gradient      ...    1.7587e-06  Tolerance :   1.0000e-05
  Last Orbital Rotation      ...    4.4514e-06  Tolerance :   1.0000e-05

             **** THE GBW FILE WAS UPDATED (CONFS/Conf887.orca.gbw) ****
             **** DENSITY CONFS/Conf887.orca.scfp WAS UPDATED ****
             **** ENERGY FILE WAS UPDATED (CONFS/Conf887.orca.en.tmp) ****
             **** THE GBW FILE WAS UPDATED (CONFS/Conf887.orca.gbw) ****
             **** DENSITY CONFS/Conf887.orca.scfp WAS UPDATED ****
----------------
ORBITAL ENERGIES
----------------

  NO   OCC          E(Eh)            E(eV) 
   0   2.0000     -91.890413     -2500.4652 
   1   2.0000     -20.603994      -560.6632 
   2   2.0000     -20.593512      -560.3780 
   3   2.0000     -20.553650      -559.2933 
   4   2.0000     -15.626996      -425.2322 
   5   2.0000     -15.612039      -424.8252 
   6   2.0000     -11.394942      -310.0721 
   7   2.0000     -11.386278      -309.8364 
   8   2.0000     -11.328614      -308.2673 
   9   2.0000     -11.322386      -308.0978 
  10   2.0000     -11.319250      -308.0124 
  11   2.0000     -11.297778      -307.4282 
  12   2.0000     -11.268515      -306.6319 
  13   2.0000     -11.263894      -306.5061 
  14   2.0000     -11.259361      -306.3828 
  15   2.0000     -11.258211      -306.3515 
  16   2.0000     -11.252184      -306.1875 
  17   2.0000     -11.246926      -306.0444 
  18   2.0000     -11.246570      -306.0347 
  19   2.0000     -11.229169      -305.5612 
  20   2.0000      -8.895498      -242.0588 
  21   2.0000      -6.577079      -178.9714 
  22   2.0000      -6.575063      -178.9166 
  23   2.0000      -6.574482      -178.9007 
  24   2.0000      -1.448272       -39.4095 
  25   2.0000      -1.423813       -38.7439 
  26   2.0000      -1.359599       -36.9966 
  27   2.0000      -1.340043       -36.4644 
  28   2.0000      -1.240563       -33.7574 
  29   2.0000      -1.165765       -31.7221 
  30   2.0000      -1.124588       -30.6016 
  31   2.0000      -1.050615       -28.5887 
  32   2.0000      -1.036654       -28.2088 
  33   2.0000      -1.024088       -27.8668 
  34   2.0000      -1.002720       -27.2854 
  35   2.0000      -0.988784       -26.9062 
  36   2.0000      -0.928657       -25.2700 
  37   2.0000      -0.877591       -23.8805 
  38   2.0000      -0.853236       -23.2177 
  39   2.0000      -0.844150       -22.9705 
  40   2.0000      -0.842664       -22.9301 
  41   2.0000      -0.838034       -22.8041 
  42   2.0000      -0.758968       -20.6526 
  43   2.0000      -0.738060       -20.0836 
  44   2.0000      -0.730913       -19.8891 
  45   2.0000      -0.702956       -19.1284 
  46   2.0000      -0.692375       -18.8405 
  47   2.0000      -0.680896       -18.5281 
  48   2.0000      -0.677136       -18.4258 
  49   2.0000      -0.666389       -18.1334 
  50   2.0000      -0.653526       -17.7834 
  51   2.0000      -0.650318       -17.6961 
  52   2.0000      -0.638714       -17.3803 
  53   2.0000      -0.613901       -16.7051 
  54   2.0000      -0.608486       -16.5577 
  55   2.0000      -0.604714       -16.4551 
  56   2.0000      -0.594065       -16.1653 
  57   2.0000      -0.582190       -15.8422 
  58   2.0000      -0.577632       -15.7182 
  59   2.0000      -0.568050       -15.4574 
  60   2.0000      -0.560998       -15.2655 
  61   2.0000      -0.558221       -15.1900 
  62   2.0000      -0.547442       -14.8966 
  63   2.0000      -0.530973       -14.4485 
  64   2.0000      -0.521232       -14.1835 
  65   2.0000      -0.517062       -14.0700 
  66   2.0000      -0.506907       -13.7936 
  67   2.0000      -0.504060       -13.7162 
  68   2.0000      -0.484939       -13.1959 
  69   2.0000      -0.470462       -12.8019 
  70   2.0000      -0.453162       -12.3312 
  71   2.0000      -0.451466       -12.2850 
  72   2.0000      -0.356827        -9.7098 
  73   2.0000      -0.355170        -9.6647 
  74   2.0000      -0.331730        -9.0268 
  75   2.0000      -0.329259        -8.9596 
  76   2.0000      -0.318371        -8.6633 
  77   0.0000       0.082923         2.2564 
  78   0.0000       0.099605         2.7104 
  79   0.0000       0.118554         3.2260 
  80   0.0000       0.127189         3.4610 
  81   0.0000       0.127622         3.4728 
  82   0.0000       0.140475         3.8225 
  83   0.0000       0.142667         3.8822 
  84   0.0000       0.152134         4.1398 
  85   0.0000       0.156176         4.2498 
  86   0.0000       0.168427         4.5831 
  87   0.0000       0.173338         4.7168 
  88   0.0000       0.185267         5.0414 
  89   0.0000       0.193895         5.2761 
  90   0.0000       0.202958         5.5228 
  91   0.0000       0.206408         5.6166 
  92   0.0000       0.207663         5.6508 
  93   0.0000       0.220710         6.0058 
  94   0.0000       0.221947         6.0395 
  95   0.0000       0.228849         6.2273 
  96   0.0000       0.241803         6.5798 
  97   0.0000       0.243880         6.6363 
  98   0.0000       0.256289         6.9740 
  99   0.0000       0.266643         7.2557 
 100   0.0000       0.296138         8.0583 
 101   0.0000       0.299310         8.1447 
 102   0.0000       0.303656         8.2629 
 103   0.0000       0.315962         8.5978 
 104   0.0000       0.324447         8.8287 
 105   0.0000       0.328231         8.9316 
 106   0.0000       0.329448         8.9647 
 107   0.0000       0.341807         9.3010 
 108   0.0000       0.355805         9.6819 
 109   0.0000       0.362212         9.8563 
 110   0.0000       0.370868        10.0918 
 111   0.0000       0.375661        10.2223 
 112   0.0000       0.380314        10.3489 
 113   0.0000       0.390433        10.6242 
 114   0.0000       0.397858        10.8263 
 115   0.0000       0.404168        10.9980 
 116   0.0000       0.412002        11.2111 
 117   0.0000       0.416011        11.3202 
 118   0.0000       0.428002        11.6465 
 119   0.0000       0.430791        11.7224 
 120   0.0000       0.440312        11.9815 
 121   0.0000       0.446667        12.1544 
 122   0.0000       0.454651        12.3717 
 123   0.0000       0.457415        12.4469 
 124   0.0000       0.458788        12.4842 
 125   0.0000       0.463854        12.6221 
 126   0.0000       0.472601        12.8601 
 127   0.0000       0.484389        13.1809 
 128   0.0000       0.489825        13.3288 
 129   0.0000       0.493510        13.4291 
 130   0.0000       0.498225        13.5574 
 131   0.0000       0.504296        13.7226 
 132   0.0000       0.511350        13.9146 
 133   0.0000       0.514072        13.9886 
 134   0.0000       0.517893        14.0926 
 135   0.0000       0.523147        14.2356 
 136   0.0000       0.528621        14.3845 
 137   0.0000       0.540132        14.6977 
 138   0.0000       0.546503        14.8711 
 139   0.0000       0.551294        15.0015 
 140   0.0000       0.554133        15.0787 
 141   0.0000       0.560255        15.2453 
 142   0.0000       0.561186        15.2707 
 143   0.0000       0.563594        15.3362 
 144   0.0000       0.570609        15.5271 
 145   0.0000       0.573390        15.6027 
 146   0.0000       0.585977        15.9452 
 147   0.0000       0.594319        16.1722 
 148   0.0000       0.599777        16.3208 
 149   0.0000       0.603981        16.4352 
 150   0.0000       0.608199        16.5499 
 151   0.0000       0.610937        16.6244 
 152   0.0000       0.613050        16.6819 
 153   0.0000       0.615858        16.7583 
 154   0.0000       0.623903        16.9773 
 155   0.0000       0.625766        17.0280 
 156   0.0000       0.628851        17.1119 
 157   0.0000       0.636292        17.3144 
 158   0.0000       0.638253        17.3677 
 159   0.0000       0.644861        17.5476 
 160   0.0000       0.647924        17.6309 
 161   0.0000       0.653066        17.7708 
 162   0.0000       0.655082        17.8257 
 163   0.0000       0.658971        17.9315 
 164   0.0000       0.664192        18.0736 
 165   0.0000       0.669994        18.2315 
 166   0.0000       0.681649        18.5486 
 167   0.0000       0.683899        18.6098 
 168   0.0000       0.689887        18.7728 
 169   0.0000       0.699359        19.0305 
 170   0.0000       0.705343        19.1933 
 171   0.0000       0.713167        19.4063 
 172   0.0000       0.715146        19.4601 
 173   0.0000       0.721144        19.6233 
 174   0.0000       0.725879        19.7522 
 175   0.0000       0.727551        19.7977 
 176   0.0000       0.739692        20.1280 
 177   0.0000       0.744088        20.2477 
 178   0.0000       0.751448        20.4479 
 179   0.0000       0.754139        20.5212 
 180   0.0000       0.766058        20.8455 
 181   0.0000       0.775129        21.0923 
 182   0.0000       0.786152        21.3923 
 183   0.0000       0.797152        21.6916 
 184   0.0000       0.803535        21.8653 
 185   0.0000       0.812904        22.1202 
 186   0.0000       0.814755        22.1706 
 187   0.0000       0.821273        22.3480 
 188   0.0000       0.835383        22.7319 
 189   0.0000       0.837722        22.7956 
 190   0.0000       0.843368        22.9492 
 191   0.0000       0.850642        23.1472 
 192   0.0000       0.856419        23.3043 
 193   0.0000       0.870656        23.6918 
 194   0.0000       0.874257        23.7897 
 195   0.0000       0.883040        24.0287 
 196   0.0000       0.886404        24.1203 
 197   0.0000       0.896493        24.3948 
 198   0.0000       0.900607        24.5068 
 199   0.0000       0.906136        24.6572 
 200   0.0000       0.911926        24.8148 
 201   0.0000       0.921450        25.0739 
 202   0.0000       0.923838        25.1389 
 203   0.0000       0.929323        25.2882 
 204   0.0000       0.937013        25.4974 
 205   0.0000       0.952318        25.9139 
 206   0.0000       0.958012        26.0688 
 207   0.0000       0.959494        26.1092 
 208   0.0000       0.966708        26.3055 
 209   0.0000       0.972195        26.4548 
 210   0.0000       0.982660        26.7396 
 211   0.0000       0.990282        26.9469 
 212   0.0000       1.000139        27.2152 
 213   0.0000       1.007934        27.4273 
 214   0.0000       1.014953        27.6183 
 215   0.0000       1.015680        27.6380 
 216   0.0000       1.022336        27.8192 
 217   0.0000       1.030259        28.0348 
 218   0.0000       1.031412        28.0661 
 219   0.0000       1.039731        28.2925 
 220   0.0000       1.047179        28.4952 
 221   0.0000       1.056681        28.7538 
 222   0.0000       1.063209        28.9314 
 223   0.0000       1.072428        29.1822 
 224   0.0000       1.075655        29.2701 
 225   0.0000       1.087909        29.6035 
 226   0.0000       1.093002        29.7421 
 227   0.0000       1.101210        29.9654 
 228   0.0000       1.109884        30.2015 
 229   0.0000       1.120363        30.4866 
 230   0.0000       1.120695        30.4957 
 231   0.0000       1.129330        30.7306 
 232   0.0000       1.142107        31.0783 
 233   0.0000       1.146146        31.1882 
 234   0.0000       1.148442        31.2507 
 235   0.0000       1.151766        31.3412 
 236   0.0000       1.162337        31.6288 
 237   0.0000       1.174799        31.9679 
 238   0.0000       1.179100        32.0849 
 239   0.0000       1.185569        32.2610 
 240   0.0000       1.187475        32.3128 
 241   0.0000       1.200365        32.6636 
 242   0.0000       1.205962        32.8159 
 243   0.0000       1.207791        32.8657 
 244   0.0000       1.223097        33.2822 
 245   0.0000       1.233043        33.5528 
 246   0.0000       1.236231        33.6396 
 247   0.0000       1.243428        33.8354 
 248   0.0000       1.245114        33.8813 
 249   0.0000       1.266121        34.4529 
 250   0.0000       1.267143        34.4807 
 251   0.0000       1.273881        34.6641 
 252   0.0000       1.275076        34.6966 
 253   0.0000       1.292093        35.1596 
 254   0.0000       1.299205        35.3532 
 255   0.0000       1.307824        35.5877 
 256   0.0000       1.308799        35.6142 
 257   0.0000       1.317295        35.8454 
 258   0.0000       1.326765        36.1031 
 259   0.0000       1.333847        36.2958 
 260   0.0000       1.339830        36.4586 
 261   0.0000       1.355300        36.8796 
 262   0.0000       1.358780        36.9743 
 263   0.0000       1.369765        37.2732 
 264   0.0000       1.374058        37.3900 
 265   0.0000       1.384049        37.6619 
 266   0.0000       1.394781        37.9539 
 267   0.0000       1.406074        38.2612 
 268   0.0000       1.410254        38.3750 
 269   0.0000       1.417901        38.5830 
 270   0.0000       1.428919        38.8829 
 271   0.0000       1.435102        39.0511 
 272   0.0000       1.443267        39.2733 
 273   0.0000       1.452285        39.5187 
 274   0.0000       1.460509        39.7425 
 275   0.0000       1.462688        39.8018 
 276   0.0000       1.468874        39.9701 
 277   0.0000       1.470647        40.0183 
 278   0.0000       1.479619        40.2625 
 279   0.0000       1.488902        40.5151 
 280   0.0000       1.493443        40.6386 
 281   0.0000       1.500934        40.8425 
 282   0.0000       1.503336        40.9079 
 283   0.0000       1.521737        41.4086 
 284   0.0000       1.524603        41.4866 
 285   0.0000       1.531096        41.6632 
 286   0.0000       1.534709        41.7616 
 287   0.0000       1.536116        41.7998 
 288   0.0000       1.544293        42.0224 
 289   0.0000       1.552228        42.2383 
 290   0.0000       1.553591        42.2754 
 291   0.0000       1.557542        42.3829 
 292   0.0000       1.569638        42.7120 
 293   0.0000       1.577465        42.9250 
 294   0.0000       1.586423        43.1688 
 295   0.0000       1.596320        43.4381 
 296   0.0000       1.602243        43.5992 
 297   0.0000       1.613392        43.9026 
 298   0.0000       1.620625        44.0994 
 299   0.0000       1.624283        44.1990 
 300   0.0000       1.637775        44.5661 
 301   0.0000       1.640835        44.6494 
 302   0.0000       1.649386        44.8821 
 303   0.0000       1.656240        45.0686 
 304   0.0000       1.664714        45.2992 
 305   0.0000       1.667425        45.3729 
 306   0.0000       1.688293        45.9408 
 307   0.0000       1.692141        46.0455 
 308   0.0000       1.705784        46.4167 
 309   0.0000       1.712553        46.6009 
 310   0.0000       1.729618        47.0653 
 311   0.0000       1.736043        47.2401 
 312   0.0000       1.742438        47.4141 
 313   0.0000       1.749425        47.6043 
 314   0.0000       1.758845        47.8606 
 315   0.0000       1.764753        48.0214 
 316   0.0000       1.776182        48.3324 
 317   0.0000       1.781489        48.4768 
 318   0.0000       1.787355        48.6364 
 319   0.0000       1.811288        49.2877 
 320   0.0000       1.816786        49.4373 
 321   0.0000       1.829195        49.7749 
 322   0.0000       1.833842        49.9014 
 323   0.0000       1.843407        50.1617 
 324   0.0000       1.857532        50.5460 
 325   0.0000       1.863760        50.7155 
 326   0.0000       1.878679        51.1214 
 327   0.0000       1.901884        51.7529 
 328   0.0000       1.907235        51.8985 
 329   0.0000       1.915466        52.1225 
 330   0.0000       1.923647        52.3451 
 331   0.0000       1.934743        52.6470 
 332   0.0000       1.941248        52.8241 
 333   0.0000       1.958028        53.2806 
 334   0.0000       1.969360        53.5890 
 335   0.0000       1.978175        53.8289 
 336   0.0000       1.989968        54.1498 
 337   0.0000       1.998984        54.3951 
 338   0.0000       2.013557        54.7917 
 339   0.0000       2.018477        54.9256 
 340   0.0000       2.020334        54.9761 
 341   0.0000       2.027702        55.1766 
 342   0.0000       2.044029        55.6208 
 343   0.0000       2.062733        56.1298 
 344   0.0000       2.071557        56.3699 
 345   0.0000       2.105884        57.3040 
 346   0.0000       2.120220        57.6941 
 347   0.0000       2.135235        58.1027 
 348   0.0000       2.148331        58.4591 
 349   0.0000       2.174563        59.1729 
 350   0.0000       2.189427        59.5773 
 351   0.0000       2.204841        59.9968 
 352   0.0000       2.216559        60.3156 
 353   0.0000       2.222307        60.4721 
 354   0.0000       2.239277        60.9338 
 355   0.0000       2.255581        61.3775 
 356   0.0000       2.285709        62.1973 
 357   0.0000       2.291544        62.3561 
 358   0.0000       2.299732        62.5789 
 359   0.0000       2.303399        62.6787 
 360   0.0000       2.320792        63.1520 
 361   0.0000       2.340398        63.6855 
 362   0.0000       2.347862        63.8886 
 363   0.0000       2.359398        64.2025 
 364   0.0000       2.363063        64.3022 
 365   0.0000       2.367126        64.4128 
 366   0.0000       2.387088        64.9560 
 367   0.0000       2.391253        65.0693 
 368   0.0000       2.408518        65.5391 
 369   0.0000       2.419634        65.8416 
 370   0.0000       2.440770        66.4167 
 371   0.0000       2.451754        66.7156 
 372   0.0000       2.460666        66.9581 
 373   0.0000       2.482092        67.5412 
 374   0.0000       2.495967        67.9187 
 375   0.0000       2.504607        68.1538 
 376   0.0000       2.518483        68.5314 
 377   0.0000       2.530845        68.8678 
 378   0.0000       2.535441        68.9929 
 379   0.0000       2.552485        69.4567 
 380   0.0000       2.563416        69.7541 
 381   0.0000       2.570814        69.9554 
 382   0.0000       2.587997        70.4230 
 383   0.0000       2.605697        70.9046 
 384   0.0000       2.609152        70.9986 
 385   0.0000       2.623545        71.3903 
 386   0.0000       2.634171        71.6794 
 387   0.0000       2.645840        71.9970 
 388   0.0000       2.655445        72.2583 
 389   0.0000       2.662113        72.4398 
 390   0.0000       2.682636        72.9982 
 391   0.0000       2.686221        73.0958 
 392   0.0000       2.705417        73.6181 
 393   0.0000       2.710641        73.7603 
 394   0.0000       2.724381        74.1342 
 395   0.0000       2.731532        74.3288 
 396   0.0000       2.738430        74.5165 
 397   0.0000       2.746450        74.7347 
 398   0.0000       2.759176        75.0810 
 399   0.0000       2.771280        75.4104 
 400   0.0000       2.787845        75.8611 
 401   0.0000       2.792855        75.9975 
 402   0.0000       2.802371        76.2564 
 403   0.0000       2.804082        76.3029 
 404   0.0000       2.817710        76.6738 
 405   0.0000       2.826384        76.9098 
 406   0.0000       2.830836        77.0310 
 407   0.0000       2.838426        77.2375 
 408   0.0000       2.845607        77.4329 
 409   0.0000       2.855925        77.7137 
 410   0.0000       2.867553        78.0301 
 411   0.0000       2.881851        78.4192 
 412   0.0000       2.887608        78.5758 
 413   0.0000       2.892662        78.7133 
 414   0.0000       2.904430        79.0335 
 415   0.0000       2.926801        79.6423 
 416   0.0000       2.932789        79.8053 
 417   0.0000       2.941145        80.0326 
 418   0.0000       2.951646        80.3184 
 419   0.0000       2.958227        80.4974 
 420   0.0000       2.963598        80.6436 
 421   0.0000       2.970916        80.8427 
 422   0.0000       2.982874        81.1681 
 423   0.0000       2.994621        81.4878 
 424   0.0000       3.001617        81.6782 
 425   0.0000       3.011305        81.9418 
 426   0.0000       3.016591        82.0856 
 427   0.0000       3.023350        82.2695 
 428   0.0000       3.031193        82.4829 
 429   0.0000       3.043730        82.8241 
 430   0.0000       3.046754        82.9064 
 431   0.0000       3.058523        83.2266 
 432   0.0000       3.069246        83.5184 
 433   0.0000       3.072551        83.6084 
 434   0.0000       3.077449        83.7416 
 435   0.0000       3.079723        83.8035 
 436   0.0000       3.088239        84.0353 
 437   0.0000       3.095977        84.2458 
 438   0.0000       3.100753        84.3758 
 439   0.0000       3.106622        84.5355 
 440   0.0000       3.111829        84.6772 
 441   0.0000       3.115038        84.7645 
 442   0.0000       3.119318        84.8810 
 443   0.0000       3.132133        85.2297 
 444   0.0000       3.138722        85.4090 
 445   0.0000       3.143116        85.5285 
 446   0.0000       3.152979        85.7969 
 447   0.0000       3.160067        85.9898 
 448   0.0000       3.167106        86.1813 
 449   0.0000       3.187762        86.7434 
 450   0.0000       3.200359        87.0862 
 451   0.0000       3.208879        87.3180 
 452   0.0000       3.212053        87.4044 
 453   0.0000       3.221023        87.6485 
 454   0.0000       3.229010        87.8658 
 455   0.0000       3.236910        88.0808 
 456   0.0000       3.245094        88.3035 
 457   0.0000       3.251044        88.4654 
 458   0.0000       3.258234        88.6611 
 459   0.0000       3.270701        89.0003 
 460   0.0000       3.276464        89.1571 
 461   0.0000       3.283792        89.3565 
 462   0.0000       3.291843        89.5756 
 463   0.0000       3.294306        89.6426 
 464   0.0000       3.299080        89.7725 
 465   0.0000       3.302912        89.8768 
 466   0.0000       3.304048        89.9077 
 467   0.0000       3.310227        90.0758 
 468   0.0000       3.314979        90.2052 
 469   0.0000       3.331650        90.6588 
 470   0.0000       3.338232        90.8379 
 471   0.0000       3.340489        90.8993 
 472   0.0000       3.351766        91.2062 
 473   0.0000       3.353690        91.2585 
 474   0.0000       3.361636        91.4748 
 475   0.0000       3.365448        91.5785 
 476   0.0000       3.371995        91.7567 
 477   0.0000       3.380940        92.0001 
 478   0.0000       3.383670        92.0743 
 479   0.0000       3.390692        92.2654 
 480   0.0000       3.394738        92.3755 
 481   0.0000       3.401806        92.5678 
 482   0.0000       3.407063        92.7109 
 483   0.0000       3.414188        92.9048 
 484   0.0000       3.416785        92.9755 
 485   0.0000       3.424544        93.1866 
 486   0.0000       3.426206        93.2318 
 487   0.0000       3.431374        93.3724 
 488   0.0000       3.434835        93.4666 
 489   0.0000       3.441113        93.6374 
 490   0.0000       3.446957        93.7965 
 491   0.0000       3.454143        93.9920 
 492   0.0000       3.459391        94.1348 
 493   0.0000       3.469777        94.4174 
 494   0.0000       3.475022        94.5602 
 495   0.0000       3.484576        94.8201 
 496   0.0000       3.494019        95.0771 
 497   0.0000       3.496270        95.1383 
 498   0.0000       3.501775        95.2881 
 499   0.0000       3.507036        95.4313 
 500   0.0000       3.512927        95.5916 
 501   0.0000       3.525578        95.9359 
 502   0.0000       3.528503        96.0155 
 503   0.0000       3.535343        96.2016 
 504   0.0000       3.544698        96.4561 
 505   0.0000       3.553136        96.6857 
 506   0.0000       3.558424        96.8296 
 507   0.0000       3.566156        97.0400 
 508   0.0000       3.576937        97.3334 
 509   0.0000       3.583981        97.5251 
 510   0.0000       3.595506        97.8387 
 511   0.0000       3.602992        98.0424 
 512   0.0000       3.612445        98.2996 
 513   0.0000       3.621205        98.5380 
 514   0.0000       3.621750        98.5528 
 515   0.0000       3.623637        98.6042 
 516   0.0000       3.633009        98.8592 
 517   0.0000       3.635527        98.9277 
 518   0.0000       3.645108        99.1884 
 519   0.0000       3.648806        99.2891 
 520   0.0000       3.649402        99.3053 
 521   0.0000       3.657556        99.5272 
 522   0.0000       3.663666        99.6934 
 523   0.0000       3.664456        99.7149 
 524   0.0000       3.670114        99.8689 
 525   0.0000       3.678955       100.1094 
 526   0.0000       3.687935       100.3538 
 527   0.0000       3.689622       100.3997 
 528   0.0000       3.696292       100.5812 
 529   0.0000       3.704546       100.8058 
 530   0.0000       3.719214       101.2050 
 531   0.0000       3.722244       101.2874 
 532   0.0000       3.733135       101.5838 
 533   0.0000       3.743878       101.8761 
 534   0.0000       3.750292       102.0506 
 535   0.0000       3.752158       102.1014 
 536   0.0000       3.761775       102.3631 
 537   0.0000       3.766319       102.4867 
 538   0.0000       3.769724       102.5794 
 539   0.0000       3.773058       102.6701 
 540   0.0000       3.779565       102.8472 
 541   0.0000       3.788295       103.0848 
 542   0.0000       3.793011       103.2131 
 543   0.0000       3.804188       103.5172 
 544   0.0000       3.808365       103.6309 
 545   0.0000       3.813969       103.7834 
 546   0.0000       3.818757       103.9137 
 547   0.0000       3.823853       104.0523 
 548   0.0000       3.832320       104.2827 
 549   0.0000       3.840234       104.4981 
 550   0.0000       3.848366       104.7194 
 551   0.0000       3.864556       105.1599 
 552   0.0000       3.876475       105.4843 
 553   0.0000       3.881275       105.6149 
 554   0.0000       3.892562       105.9220 
 555   0.0000       3.901609       106.1682 
 556   0.0000       3.906648       106.3053 
 557   0.0000       3.921515       106.7098 
 558   0.0000       3.933199       107.0278 
 559   0.0000       3.937572       107.1468 
 560   0.0000       3.946390       107.3867 
 561   0.0000       3.956058       107.6498 
 562   0.0000       3.960732       107.7770 
 563   0.0000       3.967048       107.9489 
 564   0.0000       3.977586       108.2356 
 565   0.0000       3.995692       108.7283 
 566   0.0000       4.000723       108.8652 
 567   0.0000       4.005400       108.9925 
 568   0.0000       4.014888       109.2507 
 569   0.0000       4.019883       109.3866 
 570   0.0000       4.029923       109.6598 
 571   0.0000       4.031049       109.6904 
 572   0.0000       4.050734       110.2261 
 573   0.0000       4.061104       110.5082 
 574   0.0000       4.064374       110.5972 
 575   0.0000       4.066493       110.6549 
 576   0.0000       4.072665       110.8229 
 577   0.0000       4.087435       111.2248 
 578   0.0000       4.091280       111.3294 
 579   0.0000       4.107946       111.7829 
 580   0.0000       4.110587       111.8548 
 581   0.0000       4.128406       112.3396 
 582   0.0000       4.131616       112.4270 
 583   0.0000       4.133433       112.4764 
 584   0.0000       4.141701       112.7014 
 585   0.0000       4.146384       112.8288 
 586   0.0000       4.149707       112.9193 
 587   0.0000       4.165847       113.3584 
 588   0.0000       4.170150       113.4756 
 589   0.0000       4.173586       113.5691 
 590   0.0000       4.179316       113.7250 
 591   0.0000       4.185482       113.8927 
 592   0.0000       4.189117       113.9917 
 593   0.0000       4.201683       114.3336 
 594   0.0000       4.206430       114.4628 
 595   0.0000       4.215618       114.7128 
 596   0.0000       4.221296       114.8673 
 597   0.0000       4.233854       115.2090 
 598   0.0000       4.239260       115.3561 
 599   0.0000       4.253887       115.7542 
 600   0.0000       4.258524       115.8803 
 601   0.0000       4.264840       116.0522 
 602   0.0000       4.273552       116.2893 
 603   0.0000       4.280020       116.4653 
 604   0.0000       4.292498       116.8048 
 605   0.0000       4.299811       117.0038 
 606   0.0000       4.302630       117.0805 
 607   0.0000       4.308036       117.2276 
 608   0.0000       4.316716       117.4638 
 609   0.0000       4.326197       117.7218 
 610   0.0000       4.342547       118.1667 
 611   0.0000       4.346394       118.2714 
 612   0.0000       4.349625       118.3593 
 613   0.0000       4.355631       118.5227 
 614   0.0000       4.365756       118.7982 
 615   0.0000       4.371592       118.9571 
 616   0.0000       4.383153       119.2716 
 617   0.0000       4.388044       119.4047 
 618   0.0000       4.395105       119.5969 
 619   0.0000       4.405701       119.8852 
 620   0.0000       4.419949       120.2729 
 621   0.0000       4.427552       120.4798 
 622   0.0000       4.431836       120.5964 
 623   0.0000       4.436883       120.7337 
 624   0.0000       4.450935       121.1161 
 625   0.0000       4.454053       121.2009 
 626   0.0000       4.471408       121.6732 
 627   0.0000       4.477878       121.8493 
 628   0.0000       4.484485       122.0290 
 629   0.0000       4.488414       122.1359 
 630   0.0000       4.497261       122.3767 
 631   0.0000       4.500846       122.4743 
 632   0.0000       4.508298       122.6770 
 633   0.0000       4.525218       123.1374 
 634   0.0000       4.532945       123.3477 
 635   0.0000       4.545654       123.6935 
 636   0.0000       4.554172       123.9253 
 637   0.0000       4.556798       123.9968 
 638   0.0000       4.568790       124.3231 
 639   0.0000       4.580862       124.6516 
 640   0.0000       4.589689       124.8918 
 641   0.0000       4.596074       125.0655 
 642   0.0000       4.613786       125.5475 
 643   0.0000       4.615538       125.5952 
 644   0.0000       4.619613       125.7061 
 645   0.0000       4.628193       125.9395 
 646   0.0000       4.634026       126.0983 
 647   0.0000       4.639904       126.2582 
 648   0.0000       4.649265       126.5129 
 649   0.0000       4.654803       126.6636 
 650   0.0000       4.660756       126.8256 
 651   0.0000       4.665855       126.9644 
 652   0.0000       4.674980       127.2127 
 653   0.0000       4.683611       127.4475 
 654   0.0000       4.693960       127.7292 
 655   0.0000       4.703918       128.0001 
 656   0.0000       4.713123       128.2506 
 657   0.0000       4.731249       128.7438 
 658   0.0000       4.738400       128.9384 
 659   0.0000       4.754091       129.3654 
 660   0.0000       4.761880       129.5774 
 661   0.0000       4.778945       130.0417 
 662   0.0000       4.786746       130.2540 
 663   0.0000       4.811582       130.9298 
 664   0.0000       4.817245       131.0839 
 665   0.0000       4.838204       131.6542 
 666   0.0000       4.843368       131.7947 
 667   0.0000       4.871135       132.5503 
 668   0.0000       4.877537       132.7245 
 669   0.0000       4.899891       133.3328 
 670   0.0000       4.905971       133.4983 
 671   0.0000       4.935142       134.2920 
 672   0.0000       4.938923       134.3949 
 673   0.0000       4.965545       135.1193 
 674   0.0000       4.977759       135.4517 
 675   0.0000       5.006796       136.2418 
 676   0.0000       5.015554       136.4802 
 677   0.0000       5.026465       136.7771 
 678   0.0000       5.034873       137.0059 
 679   0.0000       5.048160       137.3674 
 680   0.0000       5.056942       137.6064 
 681   0.0000       5.068018       137.9078 
 682   0.0000       5.078231       138.1857 
 683   0.0000       5.091163       138.5376 
 684   0.0000       5.114054       139.1605 
 685   0.0000       5.123988       139.4308 
 686   0.0000       5.125580       139.4741 
 687   0.0000       5.135951       139.7563 
 688   0.0000       5.142826       139.9434 
 689   0.0000       5.157074       140.3311 
 690   0.0000       5.170939       140.7084 
 691   0.0000       5.175711       140.8383 
 692   0.0000       5.188500       141.1863 
 693   0.0000       5.196945       141.4161 
 694   0.0000       5.206056       141.6640 
 695   0.0000       5.210809       141.7933 
 696   0.0000       5.215413       141.9186 
 697   0.0000       5.228357       142.2708 
 698   0.0000       5.235770       142.4725 
 699   0.0000       5.247362       142.7880 
 700   0.0000       5.261039       143.1602 
 701   0.0000       5.274271       143.5202 
 702   0.0000       5.309609       144.4818 
 703   0.0000       5.314903       144.6259 
 704   0.0000       5.322513       144.8329 
 705   0.0000       5.332089       145.0935 
 706   0.0000       5.345763       145.4656 
 707   0.0000       5.359720       145.8454 
 708   0.0000       5.370683       146.1437 
 709   0.0000       5.378570       146.3583 
 710   0.0000       5.394517       146.7923 
 711   0.0000       5.409229       147.1926 
 712   0.0000       5.423647       147.5849 
 713   0.0000       5.459385       148.5574 
 714   0.0000       5.462384       148.6390 
 715   0.0000       5.480194       149.1237 
 716   0.0000       5.487115       149.3120 
 717   0.0000       5.508632       149.8975 
 718   0.0000       5.514320       150.0523 
 719   0.0000       5.518124       150.1558 
 720   0.0000       5.538143       150.7005 
 721   0.0000       5.539799       150.7456 
 722   0.0000       5.554038       151.1330 
 723   0.0000       5.565306       151.4397 
 724   0.0000       5.580685       151.8582 
 725   0.0000       5.601577       152.4267 
 726   0.0000       5.614726       152.7845 
 727   0.0000       5.625569       153.0795 
 728   0.0000       5.634737       153.3290 
 729   0.0000       5.650210       153.7500 
 730   0.0000       5.657699       153.9538 
 731   0.0000       5.664233       154.1316 
 732   0.0000       5.665904       154.1771 
 733   0.0000       5.681621       154.6048 
 734   0.0000       5.701808       155.1541 
 735   0.0000       5.704898       155.2382 
 736   0.0000       5.718081       155.5969 
 737   0.0000       5.724981       155.7846 
 738   0.0000       5.741050       156.2219 
 739   0.0000       5.746183       156.3616 
 740   0.0000       5.767596       156.9443 
 741   0.0000       5.784379       157.4010 
 742   0.0000       5.795238       157.6964 
 743   0.0000       5.808128       158.0472 
 744   0.0000       5.810646       158.1157 
 745   0.0000       5.840379       158.9248 
 746   0.0000       5.866488       159.6353 
 747   0.0000       5.880875       160.0267 
 748   0.0000       5.902576       160.6172 
 749   0.0000       5.911887       160.8706 
 750   0.0000       5.934746       161.4926 
 751   0.0000       5.966791       162.3646 
 752   0.0000       5.974093       162.5633 
 753   0.0000       5.995821       163.1546 
 754   0.0000       6.007485       163.4720 
 755   0.0000       6.030517       164.0987 
 756   0.0000       6.043435       164.4502 
 757   0.0000       6.066575       165.0799 
 758   0.0000       6.068901       165.1432 
 759   0.0000       6.086939       165.6340 
 760   0.0000       6.103229       166.0773 
 761   0.0000       6.156044       167.5145 
 762   0.0000       6.220395       169.2655 
 763   0.0000       6.228530       169.4869 
 764   0.0000       6.248468       170.0295 
 765   0.0000       6.269129       170.5917 
 766   0.0000       6.281221       170.9207 
 767   0.0000       6.313858       171.8088 
 768   0.0000       6.342105       172.5775 
 769   0.0000       6.349250       172.7719 
 770   0.0000       6.353945       172.8996 
 771   0.0000       6.375648       173.4902 
 772   0.0000       6.399901       174.1502 
 773   0.0000       6.443710       175.3423 
 774   0.0000       6.451814       175.5628 
 775   0.0000       6.496936       176.7906 
 776   0.0000       6.504597       176.9991 
 777   0.0000       6.547880       178.1769 
 778   0.0000       6.595123       179.4624 
 779   0.0000       6.613707       179.9681 
 780   0.0000       6.647085       180.8764 
 781   0.0000       6.674972       181.6352 
 782   0.0000       6.736607       183.3124 
 783   0.0000       6.757687       183.8860 
 784   0.0000       6.813109       185.3941 
 785   0.0000       6.849939       186.3963 
 786   0.0000       6.902191       187.8182 
 787   0.0000       6.917069       188.2230 
 788   0.0000       6.960689       189.4100 
 789   0.0000       6.964282       189.5077 
 790   0.0000       7.045197       191.7096 
 791   0.0000       7.069931       192.3826 
 792   0.0000       7.077391       192.5856 
 793   0.0000       7.131243       194.0510 
 794   0.0000       7.249950       197.2812 
 795   0.0000       7.253524       197.3784 
 796   0.0000       7.277600       198.0336 
 797   0.0000       7.289177       198.3486 
 798   0.0000       7.338753       199.6976 
 799   0.0000       7.357733       200.2141 
 800   0.0000       7.377093       200.7409 
 801   0.0000       7.515709       204.5128 
 802   0.0000       7.559601       205.7072 
 803   0.0000       7.581978       206.3161 
 804   0.0000       7.632957       207.7033 
 805   0.0000       7.806096       212.4147 
 806   0.0000       7.816702       212.7033 
 807   0.0000       7.928978       215.7585 
 808   0.0000       7.972260       216.9362 
 809   0.0000       9.520265       259.0596 
 810   0.0000       9.600937       261.2548 
 811   0.0000      10.678265       290.5704 
 812   0.0000      11.152644       303.4789 
 813   0.0000      12.124327       329.9197 
 814   0.0000      12.648925       344.1947 
 815   0.0000      12.934859       351.9754 
 816   0.0000      13.093194       356.2839 
 817   0.0000      13.269994       361.0949 
 818   0.0000      13.401096       364.6624 
 819   0.0000      13.459090       366.2405 
 820   0.0000      13.597239       369.9997 
 821   0.0000      13.732747       373.6871 
 822   0.0000      13.963571       379.9681 
 823   0.0000      14.006434       381.1345 
 824   0.0000      14.119006       384.1977 
 825   0.0000      14.469646       393.7391 
 826   0.0000      14.666886       399.1063 
 827   0.0000      15.962411       434.3593 

                    ********************************
                    * MULLIKEN POPULATION ANALYSIS *
                    ********************************

-----------------------
MULLIKEN ATOMIC CHARGES
-----------------------
   0 C :   -0.258959
   1 C :    0.021993
   2 O :   -0.314124
   3 C :    0.380038
   4 O :   -0.365418
   5 C :   -0.195695
   6 C :    0.153498
   7 C :   -0.289384
   8 N :   -0.129580
   9 C :    0.204273
  10 S :   -0.438019
  11 N :   -0.211182
  12 C :    0.033078
  13 C :    0.014922
  14 C :   -0.180139
  15 C :   -0.139050
  16 C :   -0.270331
  17 C :    0.303666
  18 O :   -0.355077
  19 C :   -0.240820
  20 H :    0.087673
  21 H :    0.099061
  22 H :    0.103912
  23 H :    0.089495
  24 H :    0.113340
  25 H :    0.115231
  26 H :    0.146871
  27 H :    0.098569
  28 H :    0.197011
  29 H :    0.196419
  30 H :    0.161360
  31 H :    0.151298
  32 H :    0.164258
  33 H :    0.134997
  34 H :    0.241612
  35 H :    0.175203
Sum of atomic charges:    0.0000000

--------------------------------
MULLIKEN REDUCED ORBITAL CHARGES
--------------------------------
  0 C s       :     3.260248  s :     3.260248
      pz      :     1.005843  p :     2.922265
      px      :     0.949935
      py      :     0.966487
      dz2     :     0.021967  d :     0.071989
      dxz     :     0.014605
      dyz     :     0.005856
      dx2y2   :     0.016729
      dxy     :     0.012831
      f0      :     0.001041  f :     0.004458
      f+1     :     0.000419
      f-1     :     0.000484
      f+2     :     0.000253
      f-2     :     0.000564
      f+3     :     0.001148
      f-3     :     0.000549
  1 C s       :     3.171258  s :     3.171258
      pz      :     0.934388  p :     2.633956
      px      :     0.706503
      py      :     0.993065
      dz2     :     0.042367  d :     0.160882
      dxz     :     0.034503
      dyz     :     0.013267
      dx2y2   :     0.037439
      dxy     :     0.033306
      f0      :     0.001398  f :     0.011911
      f+1     :     0.002818
      f-1     :     0.000675
      f+2     :     0.001698
      f-2     :     0.001824
      f+3     :     0.001891
      f-3     :     0.001606
  2 O s       :     3.713868  s :     3.713868
      pz      :     1.695303  p :     4.564040
      px      :     1.338830
      py      :     1.529906
      dz2     :     0.005686  d :     0.033920
      dxz     :     0.006328
      dyz     :     0.003562
      dx2y2   :     0.007212
      dxy     :     0.011133
      f0      :     0.000309  f :     0.002295
      f+1     :     0.000338
      f-1     :     0.000214
      f+2     :     0.000333
      f-2     :     0.000289
[...]
 15 C s       :     2.705486  s :     2.705486
      pz      :     0.909706  p :     2.792827
      px      :     0.906994
      py      :     0.976126
      dz2     :     0.100885  d :     0.416577
      dxz     :     0.064370
      dyz     :     0.070116
      dx2y2   :     0.105782
      dxy     :     0.075423
      f0      :     0.003714  f :     0.041125
      f+1     :     0.005026
      f-1     :     0.006982
      f+2     :     0.006565
      f-2     :     0.007114
      f+3     :     0.005427
      f-3     :     0.006297
 16 C s       :     2.701606  s :     2.701606
      pz      :     0.945071  p :     2.867239
      px      :     0.947791
      py      :     0.974378
      dz2     :     0.054058  d :     0.390407
      dxz     :     0.050451
      dyz     :     0.101205
      dx2y2   :     0.085065
      dxy     :     0.099628
      f0      :     0.005492  f :     0.040323
      f+1     :     0.004308
      f-1     :     0.004022
      f+2     :     0.006210
      f-2     :     0.006062
      f+3     :     0.007878
      f-3     :     0.006351
 17 C s       :     2.701310  s :     2.701310
      pz      :     0.828932  p :     2.682379
      px      :     0.818347
      py      :     1.035100
      dz2     :     0.141652  d :     0.710022
      dxz     :     0.104029
      dyz     :     0.157536
      dx2y2   :     0.150598
      dxy     :     0.156207
      f0      :     0.012623  f :     0.099355
      f+1     :     0.014455
      f-1     :     0.011898
      f+2     :     0.015548
      f-2     :     0.016450
      f+3     :     0.013956
      f-3     :     0.014426
 18 O s       :     3.177137  s :     3.177137
      pz      :     1.409589  p :     4.344699
      px      :     1.455792
      py      :     1.479317
      dz2     :     0.010754  d :     0.075512
      dxz     :     0.017735
      dyz     :     0.019374
      dx2y2   :     0.014090
      dxy     :     0.013560
      f0      :     0.000660  f :     0.005058
      f+1     :     0.000752
      f-1     :     0.000448
      f+2     :     0.000908
      f-2     :     0.000999
      f+3     :     0.000589
      f-3     :     0.000702
 19 C s       :     2.695929  s :     2.695929
      pz      :     0.938279  p :     2.844995
      px      :     0.935298
      py      :     0.971418
      dz2     :     0.080165  d :     0.387402
      dxz     :     0.063066
      dyz     :     0.073946
      dx2y2   :     0.091715
      dxy     :     0.078510
      f0      :     0.003738  f :     0.040727
      f+1     :     0.005289
      f-1     :     0.006332
      f+2     :     0.006643
      f-2     :     0.007635
      f+3     :     0.005448
      f-3     :     0.005643
 20 H s       :     0.847908  s :     0.847908
      pz      :     0.047197  p :     0.150791
      px      :     0.064335
      py      :     0.039258
      dz2     :     0.005838  d :     0.027406
      dxz     :     0.007036
      dyz     :     0.001783
      dx2y2   :     0.005456
      dxy     :     0.007294
 21 H s       :     0.847648  s :     0.847648
      pz      :     0.039123  p :     0.150392
      px      :     0.042598
      py      :     0.068671
      dz2     :     0.002636  d :     0.027484
      dxz     :     0.001427
      dyz     :     0.007529
      dx2y2   :     0.008153
      dxy     :     0.007739
 22 H s       :     0.847508  s :     0.847508
      pz      :     0.072101  p :     0.150097
      px      :     0.038867
      py      :     0.039129
      dz2     :     0.009186  d :     0.027484
      dxz     :     0.009018
      dyz     :     0.008108
      dx2y2   :     0.000456
      dxy     :     0.000717
 23 H s       :     0.861095  s :     0.861095
      pz      :     0.036184  p :     0.147850
      px      :     0.037257
      py      :     0.074408
      dz2     :     0.002951  d :     0.027283
      dxz     :     0.001666
      dyz     :     0.007000
      dx2y2   :     0.007633
      dxy     :     0.008034
 24 H s       :     0.847300  s :     0.847300
      pz      :     0.084894  p :     0.159760
      px      :     0.031720
      py      :     0.043147
      dz2     :     0.010375  d :     0.027817
      dxz     :     0.006909
      dyz     :     0.009181
      dx2y2   :     0.000635
      dxy     :     0.000717
 25 H s       :     0.834404  s :     0.834404
      pz      :     0.042832  p :     0.149772
      px      :     0.055823
      py      :     0.051117
      dz2     :     0.003506  d :     0.027661
      dxz     :     0.005650
      dyz     :     0.004232
      dx2y2   :     0.007937
      dxy     :     0.006336
 26 H s       :     0.823366  s :     0.823366
      pz      :     0.059555  p :     0.151572
      px      :     0.052689
      py      :     0.039328
      dz2     :     0.007920  d :     0.027584
      dxz     :     0.006966
      dyz     :     0.005328
      dx2y2   :     0.002945
      dxy     :     0.004424
 27 H s       :     0.842570  s :     0.842570
      pz      :     0.037902  p :     0.150164
      px      :     0.046851
      py      :     0.065411
      dz2     :     0.002812  d :     0.027631
      dxz     :     0.002540
      dyz     :     0.006592
      dx2y2   :     0.007859
      dxy     :     0.007828
 28 H s       :     0.742836  s :     0.742836
      pz      :     0.055639  p :     0.253941
      px      :     0.081770
      py      :     0.116532
      dz2     :     0.005718  d :     0.061701
      dxz     :     0.001940
      dyz     :     0.016685
      dx2y2   :     0.017459
      dxy     :     0.019899
 29 H s       :     0.748602  s :     0.748602
      pz      :     0.111914  p :     0.254536
      px      :     0.098452
      py      :     0.044170
      dz2     :     0.020633  d :     0.061445
      dxz     :     0.015705
      dyz     :     0.010743
      dx2y2   :     0.008617
      dxy     :     0.005746
 30 H s       :     0.830931  s :     0.830931
      pz      :     0.041505  p :     0.148180
      px      :     0.066310
      py      :     0.040364
      dz2     :     0.003501  d :     0.028501
      dxz     :     0.007562
      dyz     :     0.003190
      dx2y2   :     0.006998
      dxy     :     0.007249
 31 H s       :     0.842887  s :     0.842887
      pz      :     0.060612  p :     0.157166
      px      :     0.061159
      py      :     0.035394
      dz2     :     0.006504  d :     0.027452
      dxz     :     0.006929
      dyz     :     0.004555
      dx2y2   :     0.004642
      dxy     :     0.004822
 32 H s       :     0.841067  s :     0.841067
      pz      :     0.036483  p :     0.150805
      px      :     0.038410
      py      :     0.075912
      dz2     :     0.002721  d :     0.026398
      dxz     :     0.000586
      dyz     :     0.007525
      dx2y2   :     0.007787
      dxy     :     0.007779
 33 H s       :     0.847190  s :     0.847190
      pz      :     0.053992  p :     0.158541
      px      :     0.049730
      py      :     0.054819
      dz2     :     0.005641  d :     0.027701
      dxz     :     0.004235
      dyz     :     0.006200
      dx2y2   :     0.006047
      dxy     :     0.005578
 34 H s       :     0.705623  s :     0.705623
      pz      :     0.102100  p :     0.347198
      px      :     0.090179
      py      :     0.154919
      dz2     :     0.020099  d :     0.099392
      dxz     :     0.009664
      dyz     :     0.024729
      dx2y2   :     0.022220
      dxy     :     0.022680
 35 H s       :     0.835811  s :     0.835811
      pz      :     0.039814  p :     0.157954
      px      :     0.041092
      py      :     0.077048
      dz2     :     0.002753  d :     0.027975
      dxz     :     0.000660
      dyz     :     0.008155
      dx2y2   :     0.007912
      dxy     :     0.008495


                      *****************************
                      * MAYER POPULATION ANALYSIS *
                      *****************************

  NA   - Mulliken gross atomic population
  ZA   - Total nuclear charge
  QA   - Mulliken gross atomic charge
  VA   - Mayer's total valence
  BVA  - Mayer's bonded valence
  FA   - Mayer's free valence

  ATOM       NA         ZA         QA         VA         BVA        FA
  0 C      6.2590     6.0000    -0.2590     3.9092     3.9092     0.0000
  1 C      5.9780     6.0000     0.0220     3.8539     3.8539    -0.0000
  2 O      8.3141     8.0000    -0.3141     2.0431     2.0431    -0.0000
  3 C      5.6200     6.0000     0.3800     4.2844     4.2844    -0.0000
  4 O      8.3654     8.0000    -0.3654     2.1349     2.1349     0.0000
  5 C      6.1957     6.0000    -0.1957     3.5519     3.5519     0.0000
  6 C      5.8465     6.0000     0.1535     3.8431     3.8431     0.0000
  7 C      6.2894     6.0000    -0.2894     3.9010     3.9010     0.0000
  8 N      7.1296     7.0000    -0.1296     3.2853     3.2853     0.0000
  9 C      5.7957     6.0000     0.2043     4.1505     4.1505     0.0000
 10 S     16.4380    16.0000    -0.4380     1.7564     1.7564    -0.0000
 11 N      7.2112     7.0000    -0.2112     3.2469     3.2469    -0.0000
 12 C      5.9669     6.0000     0.0331     3.9499     3.9499    -0.0000
 13 C      5.9851     6.0000     0.0149     3.7090     3.7090     0.0000
 14 C      6.1801     6.0000    -0.1801     3.8681     3.8681     0.0000
 15 C      6.1391     6.0000    -0.1391     3.8154     3.8154     0.0000
 16 C      6.2703     6.0000    -0.2703     3.7857     3.7857    -0.0000
 17 C      5.6963     6.0000     0.3037     3.8780     3.8780    -0.0000
 18 O      8.3551     8.0000    -0.3551     2.1207     2.1207     0.0000
 19 C      6.2408     6.0000    -0.2408     3.8200     3.8200     0.0000
 20 H      0.9123     1.0000     0.0877     0.9807     0.9807     0.0000
 21 H      0.9009     1.0000     0.0991     0.9859     0.9859    -0.0000
 22 H      0.8961     1.0000     0.1039     0.9868     0.9868     0.0000
 23 H      0.9105     1.0000     0.0895     0.9716     0.9716    -0.0000
 24 H      0.8867     1.0000     0.1133     0.9569     0.9569    -0.0000
 25 H      0.8848     1.0000     0.1152     0.9796     0.9796     0.0000
 26 H      0.8531     1.0000     0.1469     0.9754     0.9754     0.0000
 27 H      0.9014     1.0000     0.0986     0.9855     0.9855     0.0000
 28 H      0.8030     1.0000     0.1970     1.0218     1.0218    -0.0000
 29 H      0.8036     1.0000     0.1964     1.0172     1.0172    -0.0000
 30 H      0.8386     1.0000     0.1614     0.9816     0.9816    -0.0000
 31 H      0.8487     1.0000     0.1513     0.9878     0.9878    -0.0000
 32 H      0.8357     1.0000     0.1643     0.9768     0.9768     0.0000
 33 H      0.8650     1.0000     0.1350     0.9902     0.9902    -0.0000
 34 H      0.7584     1.0000     0.2416     1.0100     1.0100     0.0000
 35 H      0.8248     1.0000     0.1752     0.9870     0.9870     0.0000

  Mayer bond orders larger than 0.100000
B(  0-C ,  1-C ) :   0.9842 B(  0-C , 20-H ) :   0.9766 B(  0-C , 21-H ) :   0.9789 
B(  0-C , 22-H ) :   0.9791 B(  1-C ,  2-O ) :   0.8969 B(  1-C , 23-H ) :   0.9727 
B(  1-C , 24-H ) :   0.9635 B(  2-O ,  3-C ) :   1.1904 B(  3-C ,  4-O ) :   2.1232 
B(  3-C ,  5-C ) :   0.9139 B(  5-C ,  6-C ) :   1.7179 B(  5-C , 12-C ) :   0.9666 
B(  6-C ,  7-C ) :   0.9465 B(  6-C ,  8-N ) :   1.1228 B(  7-C , 25-H ) :   0.9757 
B(  7-C , 26-H ) :   0.9594 B(  7-C , 27-H ) :   0.9854 B(  8-N ,  9-C ) :   1.1960 
B(  8-N , 28-H ) :   0.9501 B(  9-C , 10-S ) :   1.6135 B(  9-C , 11-N ) :   1.2834 
B( 11-N , 12-C ) :   0.9930 B( 11-N , 29-H ) :   0.9495 B( 12-C , 13-C ) :   0.9304 
B( 12-C , 30-H ) :   1.0097 B( 13-C , 14-C ) :   1.3771 B( 13-C , 19-C ) :   1.3602 
B( 14-C , 15-C ) :   1.3953 B( 14-C , 31-H ) :   0.9704 B( 15-C , 16-C ) :   1.3640 
B( 15-C , 32-H ) :   0.9700 B( 16-C , 17-C ) :   1.3269 B( 16-C , 33-H ) :   0.9836 
B( 17-C , 18-O ) :   1.1141 B( 17-C , 19-C ) :   1.3694 B( 18-O , 34-H ) :   0.9787 
B( 19-C , 35-H ) :   0.9575 

-------
TIMINGS
-------

Total SCF time: 0 days 1 hours 44 min 0 sec 

Total time                  ....    6240.635 sec
Sum of individual times     ....    6228.068 sec  ( 99.8%)

Fock matrix formation       ....    6189.677 sec  ( 99.2%)
Diagonalization             ....       1.937 sec  (  0.0%)
Density matrix formation    ....       0.208 sec  (  0.0%)
Population analysis         ....       1.200 sec  (  0.0%)
Initial guess               ....       6.595 sec  (  0.1%)
Orbital Transformation      ....       0.000 sec  (  0.0%)
Orbital Orthonormalization  ....       0.000 sec  (  0.0%)
DIIS solution               ....      20.073 sec  (  0.3%)
SOSCF solution              ....       6.677 sec  (  0.1%)

Maximum memory used throughout the entire SCF-calculation: 749.7 MB

------------------------------------------------------------------------------
                                ORCA  MP2 
------------------------------------------------------------------------------

Freezing NCore=48 chemical core electrons

-------------
RI-MP2 ENERGY
-------------
Dimension of the basis                    ...  828
Memory devoted to MP2                     ...  256 MB   
Data format for buffers                   ... DOUBLE
Compression type for matrix containers    ... UNCOMPRESSED
Overall scaling of the MP2 energy         ...   1.000e+00
Calculating two index integrals           ... done (    0.035 sec)
Cholesky decomposition of V**-1           ... done (    0.658 sec)

-----------------
RI-TRANSFORMATION (AUX index driven)
-----------------

Dimension of the orbital-basis         ... 828
Dimension of the aux-basis             ... 2141
Transformation of internal/external MOs...   24-  76 to   77- 827
Number Format for Storage              ... Double (8 Byte)
Integral mode                          ... Direct

First Phase: integral generation and transformation of MO indices
  Aux angular momentum 0               ... done (    7.966 sec)
  Aux angular momentum 1               ... done (   11.835 sec)
  Aux angular momentum 2               ... done (   12.670 sec)
  Aux angular momentum 3               ... done (   13.383 sec)
  Aux angular momentum 4               ... done (    3.313 sec)
Closing buffer VIA ( 0.63 GB; CompressionRatio= 1.00)
  Phase 1 completed in    50.473 sec
Second Phase: sorting and transformation of aux index

IA-Transformation
Memory available                       ... 157 MB 
Max. # MO pairs treated in a batch     ... 11    
# of internal orbitals                 ... 53
# batches for internal orbitals        ... 5
Closing buffer IAV ( 0.63 GB; CompressionRatio= 1.00)
(ia|v) transformation done in    74.484 sec

  Phase 2 completed in    74.553 sec
RI-Integral transformation completed in   125.032 sec
Opening buffers                              ... done

Starting loop over batches of integrals:

Operator 0  - window                       ... ( 24- 76)x( 77-827)
Operator 0  - Memory available             ...   256 MB
Operator 0  - Memory needed per MO         ...  12.3 MB
Operator 0  - Number of orbitals per batch ... 13
Operator 0  - Number of batches            ... 5

OPERATOR  0   PASS   0:  MOs    24 ...   36
  Reading integrals       ... ok
  Internal MO  26
  Internal MO  29
  Internal MO  32
  Internal MO  35
OPERATOR  0   PASS   1:  MOs    37 ...   49
  Reading integrals       ... ok
  Internal MO  38
  Internal MO  41
  Internal MO  44
  Internal MO  47
OPERATOR  0   PASS   2:  MOs    50 ...   62
  Reading integrals       ... ok
  Internal MO  50
  Internal MO  53
  Internal MO  56
  Internal MO  59
  Internal MO  62
OPERATOR  0   PASS   3:  MOs    63 ...   75
  Reading integrals       ... ok
  Internal MO  65
  Internal MO  68
  Internal MO  71
  Internal MO  74
OPERATOR  0   PASS   4:  MOs    76 ...   76
  Reading integrals       ... ok
Time spent in pair loops =   171.125 sec
Deleting buffer (Ka|jb)[aa] ...done

-----------------------------------------------
 RI-MP2 CORRELATION ENERGY:     -3.536707088 Eh
-----------------------------------------------


-------
TIMINGS
-------

Total time                :  297.785 sec
Integral trafo            :  125.056 sec ( 42.0%)
I/O of integrals          :    4.155 sec (  1.4%)
K(i,j) Operators          :   83.893 sec ( 28.2%)
T(i,j) pair energies      :    3.250 sec (  1.1%)
V-calculation             :    0.035 sec (  0.0%)
V**(-1/2)                 :    0.658 sec (  0.2%)
Gamma(ia|P)               :    0.000 sec (  0.0%)
Gamma-Trafo               :    0.000 sec (  0.0%)
D(virtual)                :    0.000 sec (  0.0%)
D(internal)               :    0.000 sec (  0.0%)
W(virtual)                :    0.000 sec (  0.0%)
W(internal)               :    0.000 sec (  0.0%)
L(virtual)                :    0.000 sec (  0.0%)
L(internal)               :    0.000 sec (  0.0%)
G(D)                      :    0.000 sec (  0.0%)
G(Z)                      :    0.000 sec (  0.0%)
Z-Vector Solution         :    0.000 sec (  0.0%)
3-Index Derivative        :    0.000 sec (  0.0%)
2-Index Derivative        :    0.000 sec (  0.0%)
Separable Gradient        :    0.000 sec (  0.0%)


---------------------------------------
MP2 TOTAL ENERGY:    -1274.328090849 Eh
---------------------------------------

Maximum memory used throughout the entire MP2-calculation: 305.2 MB

-------------------------   --------------------
FINAL SINGLE POINT ENERGY     -1274.328090848805
-------------------------   --------------------


                            ***************************************
                            *     ORCA property calculations      *
                            ***************************************


  WARNING: The energy has been calculated at the MP2 level but the densities
           used in the property calculations are still SCF densities
           MP2 response densities have not been calculated 
           use %mp2 Density relaxed end
           or  %mp2 Density unrelaxed end

                                    ---------------------
                                    Active property flags
                                    ---------------------
   (+) Dipole Moment


------------------------------------------------------------------------------
                       ORCA ELECTRIC PROPERTIES CALCULATION
------------------------------------------------------------------------------

Dipole Moment Calculation                       ... on
Quadrupole Moment Calculation                   ... off
Polarizability Calculation                      ... off
GBWName                                         ... CONFS/Conf887.orca.gbw
Electron density file                           ... CONFS/Conf887.orca.scfp
The origin for moment calculation is the CENTER OF MASS  = (32.897065, 31.469373 35.231839)

-------------
DIPOLE MOMENT
-------------
                                X             Y             Z
Electronic contribution:     11.15317       8.87262       6.71034
Nuclear contribution   :    -12.57063     -10.42558      -6.43699
                        -----------------------------------------
Total Dipole Moment    :     -1.41746      -1.55296       0.27334
                        -----------------------------------------
Magnitude (a.u.)       :      2.12028
Magnitude (Debye)      :      5.38933



--------------------
Rotational spectrum 
--------------------
 
Rotational constants in cm-1:     0.011812     0.009307     0.006281 
Rotational constants in MHz :   354.120622   279.016443   188.297396 

 Dipole components along the rotational axes: 
x,y,z [a.u.] :    -1.990783    -0.062480     0.726966 
x,y,z [Debye]:    -5.060168    -0.158812     1.847802 

 

Timings for individual modules:

Sum of individual times         ...     6545.934 sec (= 109.099 min)
GTO integral calculation        ...        3.781 sec (=   0.063 min)   0.1 %
SCF iterations                  ...     6240.934 sec (= 104.016 min)  95.3 %
MP2 module                      ...      301.219 sec (=   5.020 min)   4.6 %
                             ****ORCA TERMINATED NORMALLY****
TOTAL RUN TIME: 0 days 1 hours 49 minutes 7 seconds 925 msec
