
                                        *****************
                                        * O   R   C   A *
                                        *****************

                                            #,                                       
                                            ###                                      
                                            ####                                     
                                            #####                                    
                                            ######                                   
                                           ########,                                 
                                     ,,################,,,,,                         
                               ,,#################################,,                 
                          ,,##########################################,,             
                       ,#########################################, ''#####,          
                    ,#############################################,,   '####,        
                  ,##################################################,,,,####,       
                ,###########''''           ''''###############################       
              ,#####''   ,,,,##########,,,,          '''####'''          '####       
            ,##' ,,,,###########################,,,                        '##       
           ' ,,###''''                  '''############,,,                           
         ,,##''                                '''############,,,,        ,,,,,,###''
      ,#''                                            '''#######################'''  
     '                                                          ''''####''''         
             ,#######,   #######,   ,#######,      ##                                
            ,#'     '#,  ##    ##  ,#'     '#,    #''#        ######   ,####,        
            ##       ##  ##   ,#'  ##            #'  '#       #        #'  '#        
            ##       ##  #######   ##           ,######,      #####,   #    #        
            '#,     ,#'  ##    ##  '#,     ,#' ,#      #,         ##   #,  ,#        
             '#######'   ##     ##  '#######'  #'      '#     #####' # '####'        



                  #######################################################
                  #                        -***-                        #
                  #          Department of theory and spectroscopy      #
                  #    Directorship and core code : Frank Neese         #
                  #        Max Planck Institute fuer Kohlenforschung    #
                  #                Kaiser Wilhelm Platz 1               #
                  #                 D-45470 Muelheim/Ruhr               #
                  #                      Germany                        #
                  #                                                     #
                  #                  All rights reserved                #
                  #                        -***-                        #
                  #######################################################


                         Program Version 5.0.0 -  RELEASE  -
                                (SVN: $Rev: 19529$)
                ($Date: 2021-06-28 11:36:33 +0200 (Mo, 28 Jun 2021) $)


 With contributions from (in alphabetic order):
   Daniel Aravena         : Magnetic Suceptibility
   Michael Atanasov       : Ab Initio Ligand Field Theory (pilot matlab implementation)
   Alexander A. Auer      : GIAO ZORA, VPT2 properties, NMR spectrum
   Ute Becker             : Parallelization
   Giovanni Bistoni       : ED, misc. LED, open-shell LED, HFLD
   Martin Brehm           : Molecular dynamics
   Dmytro Bykov           : SCF Hessian
   Vijay G. Chilkuri      : MRCI spin determinant printing, contributions to CSF-ICE
   Dipayan Datta          : RHF DLPNO-CCSD density
   Achintya Kumar Dutta   : EOM-CC, STEOM-CC
   Dmitry Ganyushin       : Spin-Orbit,Spin-Spin,Magnetic field MRCI
   Miquel Garcia          : C-PCM Hessian, Gaussian charge scheme
   Yang Guo               : DLPNO-NEVPT2, F12-NEVPT2, CIM, IAO-localization
   Andreas Hansen         : Spin unrestricted coupled pair/coupled cluster methods
   Benjamin Helmich-Paris : MC-RPA, TRAH-SCF, COSX integrals
   Lee Huntington         : MR-EOM, pCC
   Robert Izsak           : Overlap fitted RIJCOSX, COSX-SCS-MP3, EOM
   Marcus Kettner         : VPT2
   Christian Kollmar      : KDIIS, OOCD, Brueckner-CCSD(T), CCSD density, CASPT2, CASPT2-K
   Simone Kossmann        : Meta GGA functionals, TD-DFT gradient, OOMP2, MP2 Hessian
   Martin Krupicka        : Initial AUTO-CI
   Lucas Lang             : DCDCAS
   Marvin Lechner         : AUTO-CI (C++ implementation), FIC-MRCC
   Dagmar Lenk            : GEPOL surface, SMD
   Dimitrios Liakos       : Extrapolation schemes; Compound Job, initial MDCI parallelization
   Dimitrios Manganas     : Further ROCIS development; embedding schemes
   Dimitrios Pantazis     : SARC Basis sets
   Anastasios Papadopoulos: AUTO-CI, single reference methods and gradients
   Taras Petrenko         : DFT Hessian,TD-DFT gradient, ASA, ECA, R-Raman, ABS, FL, XAS/XES, NRVS
   Peter Pinski           : DLPNO-MP2, DLPNO-MP2 Gradient
   Christoph Reimann      : Effective Core Potentials
   Marius Retegan         : Local ZFS, SOC
   Christoph Riplinger    : Optimizer, TS searches, QM/MM, DLPNO-CCSD(T), (RO)-DLPNO pert. Triples
   Tobias Risthaus        : Range-separated hybrids, TD-DFT gradient, RPA, STAB
   Michael Roemelt        : Original ROCIS implementation
   Masaaki Saitow         : Open-shell DLPNO-CCSD energy and density
   Barbara Sandhoefer     : DKH picture change effects
   Avijit Sen             : IP-ROCIS
   Kantharuban Sivalingam : CASSCF convergence, NEVPT2, FIC-MRCI
   Bernardo de Souza      : ESD, SOC TD-DFT
   Georgi Stoychev        : AutoAux, RI-MP2 NMR
   Willem Van den Heuvel  : Paramagnetic NMR
   Boris Wezisla          : Elementary symmetry handling
   Frank Wennmohs         : Technical directorship


 We gratefully acknowledge several colleagues who have allowed us to
 interface, adapt or use parts of their codes:
   Stefan Grimme, W. Hujo, H. Kruse, P. Pracht,  : VdW corrections, initial TS optimization,
                  C. Bannwarth, S. Ehlert          DFT functionals, gCP, sTDA/sTD-DF
   Ed Valeev, F. Pavosevic, A. Kumar             : LibInt (2-el integral package), F12 methods
   Garnet Chan, S. Sharma, J. Yang, R. Olivares  : DMRG
   Ulf Ekstrom                                   : XCFun DFT Library
   Mihaly Kallay                                 : mrcc  (arbitrary order and MRCC methods)
   Jiri Pittner, Ondrej Demel                    : Mk-CCSD
   Frank Weinhold                                : gennbo (NPA and NBO analysis)
   Christopher J. Cramer and Donald G. Truhlar   : smd solvation model
   Lars Goerigk                                  : TD-DFT with DH, B97 family of functionals
   V. Asgeirsson, H. Jonsson                     : NEB implementation
   FAccTs GmbH                                   : IRC, NEB, NEB-TS, DLPNO-Multilevel, CI-OPT
                                                   MM, QMMM, 2- and 3-layer-ONIOM, Crystal-QMMM,
                                                   LR-CPCM, SF, NACMEs, symmetry and pop. for TD-DFT,
                                                   nearIR, NL-DFT gradient (VV10), updates on ESD,
                                                   ML-optimized integration grids
   S Lehtola, MJT Oliveira, MAL Marques          : LibXC Library
   Liviu Ungur et al                             : ANISO software


 Your calculation uses the libint2 library for the computation of 2-el integrals
 For citations please refer to: http://libint.valeyev.net

 Your ORCA version has been built with support for libXC version: 5.1.0
 For citations please refer to: https://tddft.org/programs/libxc/

 This ORCA versions uses:
   CBLAS   interface :  Fast vector & matrix operations
   LAPACKE interface :  Fast linear algebra routines
   SCALAPACK package :  Parallel linear algebra routines
   Shared memory     :  Shared parallel matrices
   BLAS/LAPACK       :  OpenBLAS 0.3.15  USE64BITINT DYNAMIC_ARCH NO_AFFINITY SkylakeX SINGLE_THREADED
        Core in use  :  SkylakeX
   Copyright (c) 2011-2014, The OpenBLAS Project


================================================================================

----- Orbital basis set information -----
Your calculation utilizes the basis: cc-pVTZ 
       H, B-Ne : Obtained from the ccRepo (grant-hill.group.shef.ac.uk/ccrepo) Feb. 2017
                 T. H. Dunning, Jr., J. Chem. Phys. 90, 1007 (1989)
            He : Obtained from the ccRepo (grant-hill.group.shef.ac.uk/ccrepo) Feb. 2017
                 D. E. Woon, T. H. Dunning, Jr., J. Chem. Phys. 100, 2975 (1994)
  Li-Be, Na-Mg : Obtained from the ccRepo (grant-hill.group.shef.ac.uk/ccrepo) Feb. 2017
                 B. P. Prascher, D. E. Woon, K. A. Peterson, T. H. Dunning, Jr., A. K. Wilson, Theor. Chem. Acc. 128, 69 (2011)
         Al-Ar : Obtained from the ccRepo (grant-hill.group.shef.ac.uk/ccrepo) Feb. 2017
                 D. E. Woon, T. H. Dunning, Jr., J. Chem. Phys. 98, 1358 (1993)
            Ca : Obtained from the Peterson Research Group Website (tyr0.chem.wsu.edu/~kipeters) Feb. 2017
                 J. Koput, K. A. Peterson, J. Phys. Chem. 106, 9595 (2002)
         Sc-Zn : Obtained from the ccRepo (grant-hill.group.shef.ac.uk/ccrepo) Feb. 2017
                 N. B. Balabanov, K. A. Peterson, J. Chem. Phys. 123, 064107 (2005)
                 N. B. Balabanov, K. A. Peterson, J. Chem. Phys. 125, 074110 (2006)
         Ga-Kr : Obtained from the ccRepo (grant-hill.group.shef.ac.uk/ccrepo) Feb. 2017
                 A. K. Wilson, D. E. Woon, K. A. Peterson, T. H. Dunning, Jr., J. Chem. Phys. 110, 7667 (1999)
             Y : Obtained from the ccRepo (grant-hill.group.shef.ac.uk/ccrepo) Feb. 2017
                 K. A. Peterson, D. Figgen, M. Dolg, H. Stoll, J. Chem. Phys. 126, 124101 (2007)
        Ag, Au : Obtained from the Peterson Research Group Website (tyr0.chem.wsu.edu/~kipeters) Feb. 2017
                 K. A. Peterson, C. Puzzarini, Theor. Chem. Acc. 114, 283 (2005)

----- AuxC basis set information -----
Your calculation utilizes the auxiliary basis: cc-pVTZ/C 
  Obtained from the EMSL Basis Set Exchange (bse.pnl.gov) Feb. 2017
  H-He, B-F, Al-Ar, Ga-Kr : F. Weigend, A. Kohn, C. Hattig, J. Chem. Phys. 116, 3175 (2002)
             Li-Be, Na-Mg : C. Haettig, Phys. Chem. Chem. Phys. 7, 59 (2005)
                       Ne : C. Haettig, Phys. Chem. Chem. Phys. 7, 59 (2005)
                            F. Weigend, A. Kohn, C. Hattig, J. Chem. Phys. 116, 3175 (2002)
                    Sc-Zn : J. G. Hill, J. A. Platts, J. Chem. Phys. 128, 044104 (2008)

================================================================================
                                        WARNINGS
                       Please study these warnings very carefully!
================================================================================


WARNING: No MP2 level density has been requested!
         To caclulate MP2 level properties use
         %mp2 Density relaxed end
         or
         %mp2 Density unrelaxed end

WARNING: Post HF methods need fully converged wavefunctions
  ===> : Setting SCFConvForced true
         You can overwrite this default with %scf ConvForced false 


INFO   : the flag for use of the SHARK integral package has been found!

================================================================================
                                       INPUT FILE
================================================================================
NAME = CONFS/Conf348.orca
|  1> ! ri-mp2 cc-pvtz cc-pvtz/c TightSCF NoKeepInts
|  2> 
|  3> %scf
|  4>   MaxCore 4096
|  5> end
|  6> *xyz  0  1
|  7>     C       15.4195968   13.7134502   16.2910376
|  8>     C       15.1752866   15.2358850   16.2291176
|  9>     O       16.3624983   15.9955989   15.9015756
| 10>     C       17.5468379   15.8312419   16.5651373
| 11>     O       18.0968574   14.7499982   16.6851925
| 12>     C       17.8895602   16.9928805   17.4500175
| 13>     C       17.5142831   18.2764808   17.2156523
| 14>     C       16.7370286   18.8132550   16.0314739
| 15>     N       17.9174538   19.2889843   18.0919779
| 16>     C       18.7898597   19.1215308   19.1350361
| 17>     S       19.2963258   20.3958380   20.0596855
| 18>     N       19.2203256   17.8408699   19.3740888
| 19>     C       18.7107305   16.6358183   18.6927402
| 20>     C       17.8859510   15.7832634   19.6535404
| 21>     C       18.1956839   14.4243834   19.8466756
| 22>     C       17.4289143   13.6312364   20.7165603
| 23>     C       16.3411635   14.2007199   21.3999826
| 24>     C       16.0265092   15.5526684   21.2072286
| 25>     O       14.9710489   16.1034079   21.8582254
| 26>     C       16.7910719   16.3394165   20.3401211
| 27>     H       15.9842151   13.3723981   15.4140993
| 28>     H       14.4648352   13.1747333   16.3131615
| 29>     H       15.9756667   13.4371098   17.1958786
| 30>     H       14.4075214   15.4427197   15.4725897
| 31>     H       14.7828136   15.5695349   17.1989445
| 32>     H       17.0997288   18.3739531   15.0935915
| 33>     H       16.8263514   19.9015943   15.9284822
| 34>     H       15.6709193   18.5731236   16.1258926
| 35>     H       17.6141328   20.2365094   17.9327387
| 36>     H       19.8397055   17.7406278   20.1680400
| 37>     H       19.5786311   16.0459313   18.3637866
| 38>     H       19.0243060   13.9766468   19.3031260
| 39>     H       17.6758902   12.5797559   20.8521110
| 40>     H       15.7451123   13.5910637   22.0708618
| 41>     H       14.6085760   15.4252528   22.4479786
| 42>     H       16.5316076   17.3841177   20.2076508
| 43> *
| 44> 
| 45>                          ****END OF INPUT****
================================================================================

                       ****************************
                       * Single Point Calculation *
                       ****************************

---------------------------------
CARTESIAN COORDINATES (ANGSTROEM)
---------------------------------
  C     15.419597   13.713450   16.291038
  C     15.175287   15.235885   16.229118
  O     16.362498   15.995599   15.901576
  C     17.546838   15.831242   16.565137
  O     18.096857   14.749998   16.685192
  C     17.889560   16.992880   17.450017
  C     17.514283   18.276481   17.215652
  C     16.737029   18.813255   16.031474
  N     17.917454   19.288984   18.091978
  C     18.789860   19.121531   19.135036
  S     19.296326   20.395838   20.059685
  N     19.220326   17.840870   19.374089
  C     18.710731   16.635818   18.692740
  C     17.885951   15.783263   19.653540
  C     18.195684   14.424383   19.846676
  C     17.428914   13.631236   20.716560
  C     16.341164   14.200720   21.399983
  C     16.026509   15.552668   21.207229
  O     14.971049   16.103408   21.858225
  C     16.791072   16.339416   20.340121
  H     15.984215   13.372398   15.414099
  H     14.464835   13.174733   16.313161
  H     15.975667   13.437110   17.195879
  H     14.407521   15.442720   15.472590
  H     14.782814   15.569535   17.198944
  H     17.099729   18.373953   15.093591
  H     16.826351   19.901594   15.928482
  H     15.670919   18.573124   16.125893
  H     17.614133   20.236509   17.932739
  H     19.839706   17.740628   20.168040
  H     19.578631   16.045931   18.363787
  H     19.024306   13.976647   19.303126
  H     17.675890   12.579756   20.852111
  H     15.745112   13.591064   22.070862
  H     14.608576   15.425253   22.447979
  H     16.531608   17.384118   20.207651

----------------------------
CARTESIAN COORDINATES (A.U.)
----------------------------
  NO LB      ZA    FRAG     MASS         X           Y           Z
   0 C     6.0000    0    12.011   29.138815   25.914665   30.785600
   1 C     6.0000    0    12.011   28.677136   28.791650   30.668588
   2 O     8.0000    0    15.999   30.920641   30.227301   30.049623
   3 C     6.0000    0    12.011   33.158718   29.916712   31.303573
   4 O     8.0000    0    15.999   34.198104   27.873457   31.530444
   5 C     6.0000    0    12.011   33.806369   32.111890   32.975754
   6 C     6.0000    0    12.011   33.097198   34.537543   32.532868
   7 C     6.0000    0    12.011   31.628400   35.551900   30.295095
   8 N     7.0000    0    14.007   33.859081   36.450898   34.188883
   9 C     6.0000    0    12.011   35.507689   36.134456   36.159978
  10 S    16.0000    0    32.060   36.464771   38.542548   37.907312
  11 N     7.0000    0    14.007   36.321152   33.714358   36.611722
  12 C     6.0000    0    12.011   35.358156   31.437141   35.324160
  13 C     6.0000    0    12.011   33.799549   29.826045   37.139809
  14 C     6.0000    0    12.011   34.384859   27.258134   37.504782
  15 C     6.0000    0    12.011   32.935875   25.759304   39.148625
  16 C     6.0000    0    12.011   30.880324   26.835472   40.440106
  17 C     6.0000    0    12.011   30.285713   29.390284   40.075854
  18 O     8.0000    0    15.999   28.291182   30.431031   41.306060
  19 C     6.0000    0    12.011   31.730527   30.877022   38.437258
  20 H     1.0000    0     1.008   30.205789   25.270170   29.128426
  21 H     1.0000    0     1.008   27.334577   24.896638   30.827408
  22 H     1.0000    0     1.008   30.189635   25.392458   32.495501
  23 H     1.0000    0     1.008   27.226270   29.182511   29.238957
  24 H     1.0000    0     1.008   27.935469   29.422157   32.501295
  25 H     1.0000    0     1.008   32.313804   34.721739   28.522754
  26 H     1.0000    0     1.008   31.797196   37.608563   30.100469
  27 H     1.0000    0     1.008   29.613746   35.098117   30.473521
  28 H     1.0000    0     1.008   33.285887   38.241461   33.887965
  29 H     1.0000    0     1.008   37.491610   33.524928   38.112072
  30 H     1.0000    0     1.008   36.998251   30.322416   34.702527
  31 H     1.0000    0     1.008   35.950728   26.412035   36.477622
  32 H     1.0000    0     1.008   33.402592   23.772293   39.404779
  33 H     1.0000    0     1.008   29.753950   25.683388   41.707884
  34 H     1.0000    0     1.008   27.606208   29.149503   42.420532
  35 H     1.0000    0     1.008   31.240211   32.851222   38.186926

--------------------------------
INTERNAL COORDINATES (ANGSTROEM)
--------------------------------
 C      0   0   0     0.000000000000     0.00000000     0.00000000
 C      1   0   0     1.543155624192     0.00000000     0.00000000
 O      2   1   0     1.447038559346   113.40041524     0.00000000
 C      3   2   1     1.367474914316   122.52234197   309.16184569
 O      4   3   2     1.219025282846   123.03598850    54.45979621
 C      4   3   2     1.499958592855   113.02119410   251.18577885
 C      6   4   3     1.357714873939   124.55406805   330.32505088
 C      7   6   4     1.514770471914   127.71890643   357.77952470
 N      7   6   4     1.398447892510   119.77801111   181.54987329
 C      9   7   6     1.370074135806   124.90077834     6.60429967
 S     10   9   7     1.653887318816   121.76624999   175.63017669
 N     10   9   7     1.372056640678   116.51930389   355.53942838
 C     12  10   9     1.475151666551   125.00369844   353.27666530
 C     13  12  10     1.526515019728   110.62024802   250.22088996
 C     14  13  12     1.407050293778   120.45324923   234.28372256
 C     15  14  13     1.404890449248   120.66921809   180.83419618
 C     16  15  14     1.405197245873   119.65857336     0.03905777
 C     17  16  15     1.401401505521   119.85975625     0.16821943
 O     18  17  16     1.356874082348   120.01501893   179.53011727
 C     18  17  16     1.398357647972   120.35099646   359.86908295
 H      1   2   3     1.097329094491   110.85616138   312.66913341
 H      1   2   3     1.096483049632   110.34488017   192.88444480
 H      1   2   3     1.097412860158   111.20682222    73.67105319
 H      2   1   3     1.097532896515   108.92510825   121.04992712
 H      2   1   3     1.098144584043   108.71714724   237.96551580
 H      8   7   6     1.097342695175   110.89726703   317.00708744
 H      8   7   6     1.096844694929   112.53397842   197.36632718
 H      8   7   6     1.096889702624   110.72293447    76.74287791
 H      9   7   6     1.007553753895   119.67332111   181.91369323
 H     12  10   9     1.011947848023   114.90942539   181.90590216
 H     13  12  10     1.099740239876   107.68037435   131.97222916
 H     15  14  13     1.087441407731   119.78623518   359.61066056
 H     16  15  14     1.088568936417   119.90739695   179.62965874
 H     17  16  15     1.084913183721   119.88728902   179.85756475
 H     19  18  17     0.969066447567   107.39120173     3.95266428
 H     20  18  17     1.084560141550   119.13581778   180.15935685

---------------------------
INTERNAL COORDINATES (A.U.)
---------------------------
 C      0   0   0     0.000000000000     0.00000000     0.00000000
 C      1   0   0     2.916141511743     0.00000000     0.00000000
 O      2   1   0     2.734506582388   113.40041524     0.00000000
 C      3   2   1     2.584153083065   122.52234197   309.16184569
 O      4   3   2     2.303623934904   123.03598850    54.45979621
 C      4   3   2     2.834510952718   113.02119410   251.18577885
 C      6   4   3     2.565709279696   124.55406805   330.32505088
 C      7   6   4     2.862501347668   127.71890643   357.77952470
 N      7   6   4     2.642683529404   119.77801111   181.54987329
 C      9   7   6     2.589064899842   124.90077834     6.60429967
 S     10   9   7     3.125394088928   121.76624999   175.63017669
 N     10   9   7     2.592811291110   116.51930389   355.53942838
 C     12  10   9     2.787632655779   125.00369844   353.27666530
 C     13  12  10     2.884695326603   110.62024802   250.22088996
 C     14  13  12     2.658939711894   120.45324923   234.28372256
 C     15  14  13     2.654858197240   120.66921809   180.83419618
 C     16  15  14     2.655437958841   119.65857336     0.03905777
 C     17  16  15     2.648265049100   119.85975625     0.16821943
 O     18  17  16     2.564120413853   120.01501893   179.53011727
 C     18  17  16     2.642512991941   120.35099646   359.86908295
 H      1   2   3     2.073651467372   110.85616138   312.66913341
 H      1   2   3     2.072052674292   110.34488017   192.88444480
 H      1   2   3     2.073809761541   111.20682222    73.67105319
 H      2   1   3     2.074036597383   108.92510825   121.04992712
 H      2   1   3     2.075192519290   108.71714724   237.96551580
 H      8   7   6     2.073677168939   110.89726703   317.00708744
 H      8   7   6     2.072736084860   112.53397842   197.36632718
 H      8   7   6     2.072821137077   110.72293447    76.74287791
 H      9   7   6     1.904000660066   119.67332111   181.91369323
 H     12  10   9     1.912304294574   114.90942539   181.90590216
 H     13  12  10     2.078207871818   107.68037435   131.97222916
 H     15  14  13     2.054966447298   119.78623518   359.61066056
 H     16  15  14     2.057097167722   119.90739695   179.62965874
 H     17  16  15     2.050188796314   119.88728902   179.85756475
 H     19  18  17     1.831270191474   107.39120173     3.95266428
 H     20  18  17     2.049521643296   119.13581778   180.15935685

---------------------
BASIS SET INFORMATION
---------------------
There are 5 groups of distinct atoms

 Group   1 Type C   : 18s5p2d1f contracted to 4s3p2d1f pattern {8811/311/11/1}
 Group   2 Type O   : 18s5p2d1f contracted to 4s3p2d1f pattern {8811/311/11/1}
 Group   3 Type N   : 18s5p2d1f contracted to 4s3p2d1f pattern {8811/311/11/1}
 Group   4 Type S   : 41s16p2d1f contracted to 5s4p2d1f pattern {13131311/7711/11/1}
 Group   5 Type H   : 5s2p1d contracted to 3s2p1d pattern {311/11/1}

Atom   0C    basis set group =>   1
Atom   1C    basis set group =>   1
Atom   2O    basis set group =>   2
Atom   3C    basis set group =>   1
Atom   4O    basis set group =>   2
Atom   5C    basis set group =>   1
Atom   6C    basis set group =>   1
Atom   7C    basis set group =>   1
Atom   8N    basis set group =>   3
Atom   9C    basis set group =>   1
Atom  10S    basis set group =>   4
Atom  11N    basis set group =>   3
Atom  12C    basis set group =>   1
Atom  13C    basis set group =>   1
Atom  14C    basis set group =>   1
Atom  15C    basis set group =>   1
Atom  16C    basis set group =>   1
Atom  17C    basis set group =>   1
Atom  18O    basis set group =>   2
Atom  19C    basis set group =>   1
Atom  20H    basis set group =>   5
Atom  21H    basis set group =>   5
Atom  22H    basis set group =>   5
Atom  23H    basis set group =>   5
Atom  24H    basis set group =>   5
Atom  25H    basis set group =>   5
Atom  26H    basis set group =>   5
Atom  27H    basis set group =>   5
Atom  28H    basis set group =>   5
Atom  29H    basis set group =>   5
Atom  30H    basis set group =>   5
Atom  31H    basis set group =>   5
Atom  32H    basis set group =>   5
Atom  33H    basis set group =>   5
Atom  34H    basis set group =>   5
Atom  35H    basis set group =>   5
---------------------------------
AUXILIARY/C BASIS SET INFORMATION
---------------------------------
There are 5 groups of distinct atoms

 Group   1 Type C   : 8s6p5d3f1g contracted to 8s6p5d3f1g pattern {11111111/111111/11111/111/1}
 Group   2 Type O   : 8s6p5d3f1g contracted to 8s6p5d3f1g pattern {11111111/111111/11111/111/1}
 Group   3 Type N   : 8s6p5d3f1g contracted to 8s6p5d3f1g pattern {11111111/111111/11111/111/1}
 Group   4 Type S   : 10s8p7d5f2g contracted to 10s8p7d5f2g pattern {1111111111/11111111/1111111/11111/11}
 Group   5 Type H   : 4s3p2d1f contracted to 4s3p2d1f pattern {1111/111/11/1}

Atom   0C    basis set group =>   1
Atom   1C    basis set group =>   1
Atom   2O    basis set group =>   2
Atom   3C    basis set group =>   1
Atom   4O    basis set group =>   2
Atom   5C    basis set group =>   1
Atom   6C    basis set group =>   1
Atom   7C    basis set group =>   1
Atom   8N    basis set group =>   3
Atom   9C    basis set group =>   1
Atom  10S    basis set group =>   4
Atom  11N    basis set group =>   3
Atom  12C    basis set group =>   1
Atom  13C    basis set group =>   1
Atom  14C    basis set group =>   1
Atom  15C    basis set group =>   1
Atom  16C    basis set group =>   1
Atom  17C    basis set group =>   1
Atom  18O    basis set group =>   2
Atom  19C    basis set group =>   1
Atom  20H    basis set group =>   5
Atom  21H    basis set group =>   5
Atom  22H    basis set group =>   5
Atom  23H    basis set group =>   5
Atom  24H    basis set group =>   5
Atom  25H    basis set group =>   5
Atom  26H    basis set group =>   5
Atom  27H    basis set group =>   5
Atom  28H    basis set group =>   5
Atom  29H    basis set group =>   5
Atom  30H    basis set group =>   5
Atom  31H    basis set group =>   5
Atom  32H    basis set group =>   5
Atom  33H    basis set group =>   5
Atom  34H    basis set group =>   5
Atom  35H    basis set group =>   5
------------------------------------------------------------------------------
                           ORCA GTO INTEGRAL CALCULATION
------------------------------------------------------------------------------
------------------------------------------------------------------------------
                   ___                                                        
                  /   \      - P O W E R E D   B Y -                         
                 /     \                                                     
                 |  |  |   _    _      __       _____    __    __             
                 |  |  |  | |  | |    /  \     |  _  \  |  |  /  |          
                  \  \/   | |  | |   /    \    | | | |  |  | /  /          
                 / \  \   | |__| |  /  /\  \   | |_| |  |  |/  /          
                |  |  |   |  __  | /  /__\  \  |    /   |      \           
                |  |  |   | |  | | |   __   |  |    \   |  |\   \          
                \     /   | |  | | |  |  |  |  | |\  \  |  | \   \       
                 \___/    |_|  |_| |__|  |__|  |_| \__\ |__|  \__/        
                                                                              
                      - O R C A' S   B I G   F R I E N D -                    
                                      &                                       
                       - I N T E G R A L  F E E D E R -                       
                                                                              
 v1 FN, 2020, v2 2021                                                         
------------------------------------------------------------------------------


Reading SHARK input file CONFS/Conf348.orca.SHARKINP.tmp ... ok
----------------------
SHARK INTEGRAL PACKAGE
----------------------

Number of atoms                             ...     36
Number of basis functions                   ...    828
Number of shells                            ...    298
Maximum angular momentum                    ...      3
Integral batch strategy                     ... SHARK/LIBINT Hybrid
RI-J (if used) integral strategy            ... SPLIT-RIJ (Revised 2003 algorithm where possible)
Printlevel                                  ...      1
Contraction scheme used                     ... SEGMENTED contraction
Coulomb Range Separation                    ... NOT USED
Exchange Range Separation                   ... NOT USED
Finite Nucleus Model                        ... NOT USED
Auxiliary Coulomb fitting basis             ... NOT available
Auxiliary J/K fitting basis                 ... NOT available
Auxiliary Correlation fitting basis         ... AVAILABLE
   # of basis functions in Aux-C            ...   2141
   # of shells in Aux-C                     ...    629
   Maximum angular momentum in Aux-C        ...      4
Auxiliary 'external' fitting basis          ... NOT available
Integral threshold                          ...     2.500000e-11
Primitive cut-off                           ...     2.500000e-12
Primitive pair pre-selection threshold      ...     2.500000e-12

Calculating pre-screening integrals         ... done (  0.6 sec) Dimension = 298
Organizing shell pair data                  ... done (  1.4 sec)
Shell pair information
Total number of shell pairs                 ...     44551
Shell pairs after pre-screening             ...     33673
Total number of primitive shell pairs       ...    234348
Primitive shell pairs kept                  ...     96008
          la=0 lb=0:   6718 shell pairs
          la=1 lb=0:   9344 shell pairs
          la=1 lb=1:   3307 shell pairs
          la=2 lb=0:   5372 shell pairs
          la=2 lb=1:   3706 shell pairs
          la=2 lb=2:   1057 shell pairs
          la=3 lb=0:   1952 shell pairs
          la=3 lb=1:   1329 shell pairs
          la=3 lb=2:    738 shell pairs
          la=3 lb=3:    150 shell pairs

Calculating one electron integrals          ... done (  0.4 sec)
Calculating RI/C V-Matrix + Cholesky decomp.... done (  1.4 sec)
Calculating Nuclear repulsion               ... done (  0.0 sec) ENN=   1713.149579997297 Eh

SHARK setup successfully completed in   4.4 seconds

Maximum memory used throughout the entire GTOINT-calculation: 498.5 MB
-------------------------------------------------------------------------------
                                 ORCA SCF
-------------------------------------------------------------------------------

------------
SCF SETTINGS
------------
Hamiltonian:
 Ab initio Hamiltonian  Method          .... Hartree-Fock(GTOs)


General Settings:
 Integral files         IntName         .... CONFS/Conf348.orca
 Hartree-Fock type      HFTyp           .... RHF
 Total Charge           Charge          ....    0
 Multiplicity           Mult            ....    1
 Number of Electrons    NEL             ....  154
 Basis Dimension        Dim             ....  828
 Nuclear Repulsion      ENuc            ....   1713.1495799973 Eh

Convergence Acceleration:
 DIIS                   CNVDIIS         .... on
   Start iteration      DIISMaxIt       ....    12
   Startup error        DIISStart       ....  0.200000
   # of expansion vecs  DIISMaxEq       ....     5
   Bias factor          DIISBfac        ....   1.050
   Max. coefficient     DIISMaxC        ....  10.000
 Trust-Rad. Augm. Hess. CNVTRAH         .... auto
   Auto Start mean grad. ratio tolernc. ....  1.125000
   Auto Start start iteration           ....    20
   Auto Start num. interpolation iter.  ....    10
   Max. Number of Micro iterations      ....    16
   Max. Number of Macro iterations      .... Maxiter - #DIIS iter
   Number of Davidson start vectors     ....     2
   Converg. threshold I  (grad. norm)   ....   1.000e-05
   Converg. threshold II (energy diff.) ....   1.000e-08
   Grad. Scal. Fac. for Micro threshold ....   0.100
   Minimum threshold for Micro iter.    ....   0.010
   NR start threshold (gradient norm)   ....   0.001
   Initial trust radius                 ....   0.400
   Minimum AH scaling param. (alpha)    ....   1.000
   Maximum AH scaling param. (alpha)    .... 1000.000
   Orbital update algorithm             .... Taylor
   White noise on init. David. guess    .... on
   Maximum white noise                  ....   0.010
   Quad. conv. algorithm                .... NR
 SOSCF                  CNVSOSCF        .... on
   Start iteration      SOSCFMaxIt      ....   150
   Startup grad/error   SOSCFStart      ....  0.003300
 Level Shifting         CNVShift        .... on
   Level shift para.    LevelShift      ....    0.2500
   Turn off err/grad.   ShiftErr        ....    0.0010
 Zerner damping         CNVZerner       .... off
 Static damping         CNVDamp         .... on
   Fraction old density DampFac         ....    0.7000
   Max. Damping (<1)    DampMax         ....    0.9800
   Min. Damping (>=0)   DampMin         ....    0.0000
   Turn off err/grad.   DampErr         ....    0.1000
 Fernandez-Rico         CNVRico         .... off

SCF Procedure:
 Maximum # iterations   MaxIter         ....   125
 SCF integral mode      SCFMode         .... Direct
   Integral package                     .... SHARK and LIBINT hybrid scheme
 Reset frequency        DirectResetFreq ....    20
 Integral Threshold     Thresh          ....  2.500e-11 Eh
 Primitive CutOff       TCut            ....  2.500e-12 Eh

Convergence Tolerance:
 Convergence Check Mode ConvCheckMode   .... Total+1el-Energy
 Convergence forced     ConvForced      .... 1
 Energy Change          TolE            ....  1.000e-08 Eh
 1-El. energy change                    ....  1.000e-05 Eh
 Orbital Gradient       TolG            ....  1.000e-05
 Orbital Rotation angle TolX            ....  1.000e-05
 DIIS Error             TolErr          ....  5.000e-07


Diagonalization of the overlap matrix:
Smallest eigenvalue                        ... 3.442e-05
Time for diagonalization                   ...    0.137 sec
Threshold for overlap eigenvalues          ... 1.000e-08
Number of eigenvalues below threshold      ... 0
Time for construction of square roots      ...    0.098 sec
Total time needed                          ...    0.237 sec

Time for model grid setup =    1.443 sec

------------------------------
INITIAL GUESS: MODEL POTENTIAL
------------------------------
Loading Hartree-Fock densities                     ... done
Calculating cut-offs                               ... done
Initializing the effective Hamiltonian             ... done
Setting up the integral package (SHARK)            ... done
Starting the Coulomb interaction                   ... done (   4.8 sec)
Reading the grid                                   ... done
Mapping shells                                     ... done
Starting the XC term evaluation                    ... done (   1.5 sec)
Transforming the Hamiltonian                       ... done (   0.1 sec)
Diagonalizing the Hamiltonian                      ... done (   0.2 sec)
Back transforming the eigenvectors                 ... done (   0.0 sec)
Now organizing SCF variables                       ... done
                      ------------------
                      INITIAL GUESS DONE (   8.1 sec)
                      ------------------
--------------
SCF ITERATIONS
--------------
ITER       Energy         Delta-E        Max-DP      RMS-DP      [F,P]     Damp
               ***  Starting incremental Fock matrix formation  ***
  0  -1269.9974055293   0.000000000000 0.04931318  0.00043122  0.3060391 0.7000
  1  -1270.2659966270  -0.268591097659 0.03607916  0.00034660  0.1794689 0.7000
                               ***Turning on DIIS***
  2  -1270.4333336571  -0.167337030178 0.02583647  0.00023293  0.1097050 0.7000
  3  -1272.5909496078  -2.157615950646 0.06313186  0.00050901  0.0827888 0.0000
  4  -1270.7400257084   1.850923899339 0.00953673  0.00009798  0.0070288 0.0000
  5  -1270.8041612007  -0.064135492218 0.00454293  0.00005248  0.0036847 0.0000
                      *** Initiating the SOSCF procedure ***
                           *** Shutting down DIIS ***
                      *** Re-Reading the Fockian *** 
                      *** Removing any level shift *** 
ITER      Energy       Delta-E        Grad      Rot      Max-DP    RMS-DP
  6  -1270.78222143   0.0219397699  0.001816  0.001816  0.002391  0.000027
               *** Restarting incremental Fock matrix formation ***
  7  -1270.79675768  -0.0145362499  0.001038  0.002677  0.001438  0.000017
  8  -1270.79680823  -0.0000505541  0.000483  0.003211  0.001679  0.000019
  9  -1270.79682779  -0.0000195576  0.000189  0.000380  0.000371  0.000005
 10  -1270.79683033  -0.0000025333  0.000057  0.000153  0.000123  0.000001
 11  -1270.79683057  -0.0000002489  0.000022  0.000132  0.000057  0.000001
 12  -1270.79683064  -0.0000000702  0.000011  0.000041  0.000028  0.000000
                 **** Energy Check signals convergence ****
              ***Rediagonalizing the Fockian in SOSCF/NRSCF***

               *****************************************************
               *                     SUCCESS                       *
               *           SCF CONVERGED AFTER  13 CYCLES          *
               *****************************************************


----------------
TOTAL SCF ENERGY
----------------

Total Energy       :        -1270.79683065 Eh          -34580.13978 eV

Components:
Nuclear Repulsion  :         1713.14958000 Eh           46617.17004 eV
Electronic Energy  :        -2983.94641065 Eh          -81197.30983 eV
One Electron Energy:        -5147.62062036 Eh         -140073.87830 eV
Two Electron Energy:         2163.67420972 Eh           58876.56847 eV

Virial components:
Potential Energy   :        -2539.75822754 Eh          -69110.33487 eV
Kinetic Energy     :         1268.96139689 Eh           34530.19509 eV
Virial Ratio       :            2.00144641


---------------
SCF CONVERGENCE
---------------

  Last Energy change         ...   -3.2455e-09  Tolerance :   1.0000e-08
  Last MAX-Density change    ...    5.4837e-06  Tolerance :   1.0000e-07
  Last RMS-Density change    ...    9.2239e-08  Tolerance :   5.0000e-09
  Last Orbital Gradient      ...    2.6731e-06  Tolerance :   1.0000e-05
  Last Orbital Rotation      ...    7.7704e-06  Tolerance :   1.0000e-05

             **** THE GBW FILE WAS UPDATED (CONFS/Conf348.orca.gbw) ****
             **** DENSITY CONFS/Conf348.orca.scfp WAS UPDATED ****
             **** ENERGY FILE WAS UPDATED (CONFS/Conf348.orca.en.tmp) ****
             **** THE GBW FILE WAS UPDATED (CONFS/Conf348.orca.gbw) ****
             **** DENSITY CONFS/Conf348.orca.scfp WAS UPDATED ****
----------------
ORBITAL ENERGIES
----------------

  NO   OCC          E(Eh)            E(eV) 
   0   2.0000     -91.888650     -2500.4173 
   1   2.0000     -20.595284      -560.4262 
   2   2.0000     -20.587593      -560.2169 
   3   2.0000     -20.552357      -559.2581 
   4   2.0000     -15.628415      -425.2708 
   5   2.0000     -15.607845      -424.7111 
   6   2.0000     -11.396594      -310.1171 
   7   2.0000     -11.383900      -309.7717 
   8   2.0000     -11.334623      -308.4308 
   9   2.0000     -11.311454      -307.8003 
  10   2.0000     -11.307260      -307.6862 
  11   2.0000     -11.305171      -307.6293 
  12   2.0000     -11.259415      -306.3843 
  13   2.0000     -11.259128      -306.3764 
  14   2.0000     -11.256988      -306.3182 
  15   2.0000     -11.251562      -306.1706 
  16   2.0000     -11.241154      -305.8873 
  17   2.0000     -11.237170      -305.7789 
  18   2.0000     -11.234188      -305.6978 
  19   2.0000     -11.221078      -305.3411 
  20   2.0000      -8.893722      -242.0105 
  21   2.0000      -6.575301      -178.9230 
  22   2.0000      -6.573292      -178.8684 
  23   2.0000      -6.572707      -178.8525 
  24   2.0000      -1.446966       -39.3739 
  25   2.0000      -1.415054       -38.5056 
  26   2.0000      -1.357362       -36.9357 
  27   2.0000      -1.339529       -36.4505 
  28   2.0000      -1.237634       -33.6777 
  29   2.0000      -1.155548       -31.4441 
  30   2.0000      -1.120433       -30.4885 
  31   2.0000      -1.043470       -28.3943 
  32   2.0000      -1.031974       -28.0815 
  33   2.0000      -1.013056       -27.5667 
  34   2.0000      -0.998620       -27.1738 
  35   2.0000      -0.983853       -26.7720 
  36   2.0000      -0.923034       -25.1170 
  37   2.0000      -0.890449       -24.2303 
  38   2.0000      -0.849093       -23.1050 
  39   2.0000      -0.838291       -22.8111 
  40   2.0000      -0.831631       -22.6298 
  41   2.0000      -0.823098       -22.3976 
  42   2.0000      -0.745203       -20.2780 
  43   2.0000      -0.728121       -19.8132 
  44   2.0000      -0.727205       -19.7883 
  45   2.0000      -0.693456       -18.8699 
  46   2.0000      -0.685097       -18.6424 
  47   2.0000      -0.680256       -18.5107 
  48   2.0000      -0.672572       -18.3016 
  49   2.0000      -0.666752       -18.1432 
  50   2.0000      -0.647117       -17.6089 
  51   2.0000      -0.645143       -17.5552 
  52   2.0000      -0.636001       -17.3065 
  53   2.0000      -0.606554       -16.5052 
  54   2.0000      -0.603586       -16.4244 
  55   2.0000      -0.601070       -16.3559 
  56   2.0000      -0.598790       -16.2939 
  57   2.0000      -0.576809       -15.6958 
  58   2.0000      -0.573083       -15.5944 
  59   2.0000      -0.571876       -15.5615 
  60   2.0000      -0.559625       -15.2282 
  61   2.0000      -0.547718       -14.9042 
  62   2.0000      -0.535927       -14.5833 
  63   2.0000      -0.524093       -14.2613 
  64   2.0000      -0.519328       -14.1316 
  65   2.0000      -0.511444       -13.9171 
  66   2.0000      -0.499441       -13.5905 
  67   2.0000      -0.493910       -13.4400 
  68   2.0000      -0.480521       -13.0756 
  69   2.0000      -0.464590       -12.6421 
  70   2.0000      -0.456175       -12.4132 
  71   2.0000      -0.447015       -12.1639 
  72   2.0000      -0.354172        -9.6375 
  73   2.0000      -0.347332        -9.4514 
  74   2.0000      -0.327937        -8.9236 
  75   2.0000      -0.318550        -8.6682 
  76   2.0000      -0.315686        -8.5902 
  77   0.0000       0.072910         1.9840 
  78   0.0000       0.106098         2.8871 
  79   0.0000       0.120592         3.2815 
  80   0.0000       0.132867         3.6155 
  81   0.0000       0.138278         3.7627 
  82   0.0000       0.145243         3.9523 
  83   0.0000       0.150107         4.0846 
  84   0.0000       0.157335         4.2813 
  85   0.0000       0.161933         4.4064 
  86   0.0000       0.165609         4.5064 
  87   0.0000       0.178323         4.8524 
  88   0.0000       0.190014         5.1705 
  89   0.0000       0.197210         5.3664 
  90   0.0000       0.203246         5.5306 
  91   0.0000       0.208670         5.6782 
  92   0.0000       0.210268         5.7217 
  93   0.0000       0.216774         5.8987 
  94   0.0000       0.221743         6.0339 
  95   0.0000       0.233567         6.3557 
  96   0.0000       0.240699         6.5497 
  97   0.0000       0.246087         6.6964 
  98   0.0000       0.251185         6.8351 
  99   0.0000       0.278237         7.5712 
 100   0.0000       0.293586         7.9889 
 101   0.0000       0.309677         8.4267 
 102   0.0000       0.314683         8.5630 
 103   0.0000       0.319576         8.6961 
 104   0.0000       0.330176         8.9846 
 105   0.0000       0.334542         9.1034 
 106   0.0000       0.340984         9.2786 
 107   0.0000       0.350044         9.5252 
 108   0.0000       0.354178         9.6377 
 109   0.0000       0.366542         9.9741 
 110   0.0000       0.369753        10.0615 
 111   0.0000       0.378502        10.2996 
 112   0.0000       0.384413        10.4604 
 113   0.0000       0.397677        10.8213 
 114   0.0000       0.403338        10.9754 
 115   0.0000       0.412424        11.2226 
 116   0.0000       0.422726        11.5030 
 117   0.0000       0.426478        11.6051 
 118   0.0000       0.435396        11.8477 
 119   0.0000       0.440790        11.9945 
 120   0.0000       0.444418        12.0932 
 121   0.0000       0.451865        12.2959 
 122   0.0000       0.455418        12.3926 
 123   0.0000       0.460260        12.5243 
 124   0.0000       0.462368        12.5817 
 125   0.0000       0.469050        12.7635 
 126   0.0000       0.479730        13.0541 
 127   0.0000       0.488032        13.2800 
 128   0.0000       0.492492        13.4014 
 129   0.0000       0.496869        13.5205 
 130   0.0000       0.503924        13.7125 
 131   0.0000       0.509118        13.8538 
 132   0.0000       0.513286        13.9672 
 133   0.0000       0.516356        14.0508 
 134   0.0000       0.528146        14.3716 
 135   0.0000       0.532886        14.5006 
 136   0.0000       0.535017        14.5586 
 137   0.0000       0.539540        14.6816 
 138   0.0000       0.542604        14.7650 
 139   0.0000       0.550394        14.9770 
 140   0.0000       0.553995        15.0750 
 141   0.0000       0.561451        15.2778 
 142   0.0000       0.562811        15.3149 
 143   0.0000       0.567924        15.4540 
 144   0.0000       0.570579        15.5262 
 145   0.0000       0.578682        15.7467 
 146   0.0000       0.579455        15.7678 
 147   0.0000       0.588562        16.0156 
 148   0.0000       0.595819        16.2131 
 149   0.0000       0.599627        16.3167 
 150   0.0000       0.600747        16.3471 
 151   0.0000       0.608840        16.5674 
 152   0.0000       0.614058        16.7094 
 153   0.0000       0.617576        16.8051 
 154   0.0000       0.624515        16.9939 
 155   0.0000       0.625494        17.0206 
 156   0.0000       0.631051        17.1718 
 157   0.0000       0.634153        17.2562 
 158   0.0000       0.635921        17.3043 
 159   0.0000       0.640889        17.4395 
 160   0.0000       0.645213        17.5572 
 161   0.0000       0.650972        17.7138 
 162   0.0000       0.659011        17.9326 
 163   0.0000       0.661874        18.0105 
 164   0.0000       0.671277        18.2664 
 165   0.0000       0.673027        18.3140 
 166   0.0000       0.680856        18.5270 
 167   0.0000       0.684855        18.6359 
 168   0.0000       0.691371        18.8132 
 169   0.0000       0.698095        18.9961 
 170   0.0000       0.701022        19.0758 
 171   0.0000       0.704546        19.1717 
 172   0.0000       0.711016        19.3477 
 173   0.0000       0.720741        19.6124 
 174   0.0000       0.727245        19.7893 
 175   0.0000       0.730441        19.8763 
 176   0.0000       0.741237        20.1701 
 177   0.0000       0.744037        20.2463 
 178   0.0000       0.751260        20.4428 
 179   0.0000       0.757148        20.6030 
 180   0.0000       0.761981        20.7346 
 181   0.0000       0.767113        20.8742 
 182   0.0000       0.770876        20.9766 
 183   0.0000       0.784011        21.3340 
 184   0.0000       0.788076        21.4446 
 185   0.0000       0.805414        21.9164 
 186   0.0000       0.820539        22.3280 
 187   0.0000       0.823769        22.4159 
 188   0.0000       0.826011        22.4769 
 189   0.0000       0.827917        22.5288 
 190   0.0000       0.835527        22.7359 
 191   0.0000       0.842911        22.9368 
 192   0.0000       0.844746        22.9867 
 193   0.0000       0.860045        23.4030 
 194   0.0000       0.868190        23.6246 
 195   0.0000       0.872482        23.7414 
 196   0.0000       0.886259        24.1163 
 197   0.0000       0.889936        24.2164 
 198   0.0000       0.893290        24.3076 
 199   0.0000       0.905656        24.6442 
 200   0.0000       0.909591        24.7512 
 201   0.0000       0.924126        25.1468 
 202   0.0000       0.932008        25.3612 
 203   0.0000       0.935023        25.4433 
 204   0.0000       0.945462        25.7273 
 205   0.0000       0.952494        25.9187 
 206   0.0000       0.964390        26.2424 
 207   0.0000       0.971232        26.4286 
 208   0.0000       0.972425        26.4610 
 209   0.0000       0.975057        26.5327 
 210   0.0000       0.985708        26.8225 
 211   0.0000       0.989257        26.9190 
 212   0.0000       0.991932        26.9918 
 213   0.0000       1.001267        27.2459 
 214   0.0000       1.010712        27.5029 
 215   0.0000       1.025420        27.9031 
 216   0.0000       1.027587        27.9621 
 217   0.0000       1.028520        27.9874 
 218   0.0000       1.040137        28.3036 
 219   0.0000       1.047682        28.5089 
 220   0.0000       1.050257        28.5789 
 221   0.0000       1.059272        28.8243 
 222   0.0000       1.071985        29.1702 
 223   0.0000       1.077103        29.3095 
 224   0.0000       1.080561        29.4035 
 225   0.0000       1.093536        29.7566 
 226   0.0000       1.104976        30.0679 
 227   0.0000       1.109022        30.1780 
 228   0.0000       1.113960        30.3124 
 229   0.0000       1.123528        30.5727 
 230   0.0000       1.125958        30.6389 
 231   0.0000       1.136545        30.9270 
 232   0.0000       1.139885        31.0178 
 233   0.0000       1.152929        31.3728 
 234   0.0000       1.160647        31.5828 
 235   0.0000       1.163786        31.6682 
 236   0.0000       1.173266        31.9262 
 237   0.0000       1.174010        31.9464 
 238   0.0000       1.178341        32.0643 
 239   0.0000       1.189037        32.3553 
 240   0.0000       1.194632        32.5076 
 241   0.0000       1.202218        32.7140 
 242   0.0000       1.209874        32.9223 
 243   0.0000       1.216634        33.1063 
 244   0.0000       1.221652        33.2428 
 245   0.0000       1.229029        33.4436 
 246   0.0000       1.232121        33.5277 
 247   0.0000       1.245205        33.8838 
 248   0.0000       1.251566        34.0568 
 249   0.0000       1.264154        34.3994 
 250   0.0000       1.267617        34.4936 
 251   0.0000       1.272241        34.6194 
 252   0.0000       1.280836        34.8533 
 253   0.0000       1.288002        35.0483 
 254   0.0000       1.294099        35.2142 
 255   0.0000       1.302568        35.4447 
 256   0.0000       1.303603        35.4729 
 257   0.0000       1.317146        35.8414 
 258   0.0000       1.324765        36.0487 
 259   0.0000       1.333818        36.2950 
 260   0.0000       1.340907        36.4879 
 261   0.0000       1.344150        36.5762 
 262   0.0000       1.348339        36.6902 
 263   0.0000       1.364689        37.1351 
 264   0.0000       1.367457        37.2104 
 265   0.0000       1.386121        37.7183 
 266   0.0000       1.389177        37.8014 
 267   0.0000       1.395866        37.9835 
 268   0.0000       1.400941        38.1215 
 269   0.0000       1.414370        38.4870 
 270   0.0000       1.417512        38.5725 
 271   0.0000       1.425655        38.7940 
 272   0.0000       1.437488        39.1161 
 273   0.0000       1.444230        39.2995 
 274   0.0000       1.452673        39.5292 
 275   0.0000       1.461520        39.7700 
 276   0.0000       1.469594        39.9897 
 277   0.0000       1.478131        40.2220 
 278   0.0000       1.484035        40.3826 
 279   0.0000       1.489380        40.5281 
 280   0.0000       1.492203        40.6049 
 281   0.0000       1.498443        40.7747 
 282   0.0000       1.502693        40.8904 
 283   0.0000       1.507973        41.0340 
 284   0.0000       1.514481        41.2111 
 285   0.0000       1.520638        41.3787 
 286   0.0000       1.527734        41.5718 
 287   0.0000       1.532713        41.7072 
 288   0.0000       1.544031        42.0152 
 289   0.0000       1.549804        42.1723 
 290   0.0000       1.553939        42.2848 
 291   0.0000       1.561988        42.5038 
 292   0.0000       1.566303        42.6213 
 293   0.0000       1.582183        43.0534 
 294   0.0000       1.594668        43.3931 
 295   0.0000       1.599054        43.5125 
 296   0.0000       1.604885        43.6712 
 297   0.0000       1.615571        43.9619 
 298   0.0000       1.616963        43.9998 
 299   0.0000       1.623068        44.1659 
 300   0.0000       1.629638        44.3447 
 301   0.0000       1.638061        44.5739 
 302   0.0000       1.649467        44.8843 
 303   0.0000       1.655806        45.0568 
 304   0.0000       1.663339        45.2617 
 305   0.0000       1.674888        45.5760 
 306   0.0000       1.679562        45.7032 
 307   0.0000       1.690101        45.9900 
 308   0.0000       1.702683        46.3324 
 309   0.0000       1.709703        46.5234 
 310   0.0000       1.712647        46.6035 
 311   0.0000       1.721724        46.8505 
 312   0.0000       1.732813        47.1522 
 313   0.0000       1.738262        47.3005 
 314   0.0000       1.752175        47.6791 
 315   0.0000       1.753226        47.7077 
 316   0.0000       1.755229        47.7622 
 317   0.0000       1.772105        48.2214 
 318   0.0000       1.778178        48.3867 
 319   0.0000       1.794254        48.8241 
 320   0.0000       1.805001        49.1166 
 321   0.0000       1.823072        49.6083 
 322   0.0000       1.831283        49.8318 
 323   0.0000       1.842418        50.1347 
 324   0.0000       1.846685        50.2509 
 325   0.0000       1.867757        50.8242 
 326   0.0000       1.885547        51.3084 
 327   0.0000       1.894582        51.5542 
 328   0.0000       1.906574        51.8805 
 329   0.0000       1.915591        52.1259 
 330   0.0000       1.933780        52.6208 
 331   0.0000       1.939688        52.7816 
 332   0.0000       1.946364        52.9632 
 333   0.0000       1.950951        53.0881 
 334   0.0000       1.967482        53.5379 
 335   0.0000       1.981454        53.9181 
 336   0.0000       1.990373        54.1608 
 337   0.0000       2.004598        54.5479 
 338   0.0000       2.021853        55.0174 
 339   0.0000       2.024389        55.0864 
 340   0.0000       2.029868        55.2355 
 341   0.0000       2.033556        55.3359 
 342   0.0000       2.050655        55.8011 
 343   0.0000       2.060467        56.0682 
 344   0.0000       2.068794        56.2948 
 345   0.0000       2.099662        57.1347 
 346   0.0000       2.119624        57.6779 
 347   0.0000       2.129738        57.9531 
 348   0.0000       2.146723        58.4153 
 349   0.0000       2.155624        58.6575 
 350   0.0000       2.174341        59.1668 
 351   0.0000       2.187842        59.5342 
 352   0.0000       2.210481        60.1502 
 353   0.0000       2.221303        60.4447 
 354   0.0000       2.236826        60.8671 
 355   0.0000       2.258229        61.4495 
 356   0.0000       2.276352        61.9427 
 357   0.0000       2.288437        62.2715 
 358   0.0000       2.299267        62.5662 
 359   0.0000       2.309965        62.8574 
 360   0.0000       2.313246        62.9466 
 361   0.0000       2.338308        63.6286 
 362   0.0000       2.343971        63.7827 
 363   0.0000       2.357986        64.1640 
 364   0.0000       2.363549        64.3154 
 365   0.0000       2.373614        64.5893 
 366   0.0000       2.390237        65.0416 
 367   0.0000       2.401518        65.3486 
 368   0.0000       2.416469        65.7555 
 369   0.0000       2.433653        66.2231 
 370   0.0000       2.438802        66.3632 
 371   0.0000       2.449604        66.6571 
 372   0.0000       2.470325        67.2210 
 373   0.0000       2.477581        67.4184 
 374   0.0000       2.498072        67.9760 
 375   0.0000       2.503227        68.1163 
 376   0.0000       2.516055        68.4653 
 377   0.0000       2.521622        68.6168 
 378   0.0000       2.541188        69.1492 
 379   0.0000       2.547201        69.3129 
 380   0.0000       2.577108        70.1267 
 381   0.0000       2.587444        70.4079 
 382   0.0000       2.594083        70.5886 
 383   0.0000       2.606329        70.9218 
 384   0.0000       2.616101        71.1877 
 385   0.0000       2.621587        71.3370 
 386   0.0000       2.632702        71.6395 
 387   0.0000       2.645473        71.9870 
 388   0.0000       2.660397        72.3931 
 389   0.0000       2.675284        72.7982 
 390   0.0000       2.681210        72.9594 
 391   0.0000       2.693377        73.2905 
 392   0.0000       2.700271        73.4781 
 393   0.0000       2.711508        73.7839 
 394   0.0000       2.719881        74.0117 
 395   0.0000       2.731770        74.3352 
 396   0.0000       2.742907        74.6383 
 397   0.0000       2.752920        74.9108 
 398   0.0000       2.760691        75.1222 
 399   0.0000       2.764290        75.2201 
 400   0.0000       2.782290        75.7100 
 401   0.0000       2.797874        76.1340 
 402   0.0000       2.799126        76.1681 
 403   0.0000       2.821296        76.7714 
 404   0.0000       2.825018        76.8726 
 405   0.0000       2.834181        77.1220 
 406   0.0000       2.838191        77.2311 
 407   0.0000       2.850714        77.5719 
 408   0.0000       2.859692        77.8162 
 409   0.0000       2.865548        77.9755 
 410   0.0000       2.874263        78.2127 
 411   0.0000       2.877850        78.3103 
 412   0.0000       2.884973        78.5041 
 413   0.0000       2.895135        78.7806 
 414   0.0000       2.909409        79.1690 
 415   0.0000       2.918206        79.4084 
 416   0.0000       2.931574        79.7722 
 417   0.0000       2.940179        80.0063 
 418   0.0000       2.945258        80.1445 
 419   0.0000       2.956636        80.4542 
 420   0.0000       2.958800        80.5130 
 421   0.0000       2.973533        80.9139 
 422   0.0000       2.983027        81.1723 
 423   0.0000       2.990688        81.3807 
 424   0.0000       2.994891        81.4951 
 425   0.0000       3.002948        81.7144 
 426   0.0000       3.008406        81.8629 
 427   0.0000       3.025210        82.3201 
 428   0.0000       3.030896        82.4749 
 429   0.0000       3.038622        82.6851 
 430   0.0000       3.043871        82.8279 
 431   0.0000       3.050058        82.9963 
 432   0.0000       3.059998        83.2668 
 433   0.0000       3.071884        83.5902 
 434   0.0000       3.080667        83.8292 
 435   0.0000       3.086646        83.9919 
 436   0.0000       3.088097        84.0314 
 437   0.0000       3.098516        84.3149 
 438   0.0000       3.103461        84.4495 
 439   0.0000       3.111875        84.6784 
 440   0.0000       3.120261        84.9066 
 441   0.0000       3.123041        84.9823 
 442   0.0000       3.128911        85.1420 
 443   0.0000       3.131055        85.2003 
 444   0.0000       3.140512        85.4577 
 445   0.0000       3.154877        85.8486 
 446   0.0000       3.161955        86.0412 
 447   0.0000       3.170885        86.2842 
 448   0.0000       3.184135        86.6447 
 449   0.0000       3.189861        86.8005 
 450   0.0000       3.194044        86.9144 
 451   0.0000       3.201570        87.1191 
 452   0.0000       3.211468        87.3885 
 453   0.0000       3.217974        87.5655 
 454   0.0000       3.222887        87.6992 
 455   0.0000       3.224209        87.7352 
 456   0.0000       3.236242        88.0626 
 457   0.0000       3.238908        88.1352 
 458   0.0000       3.249457        88.4222 
 459   0.0000       3.255860        88.5964 
 460   0.0000       3.269044        88.9552 
 461   0.0000       3.272022        89.0362 
 462   0.0000       3.274584        89.1060 
 463   0.0000       3.280408        89.2644 
 464   0.0000       3.296227        89.6949 
 465   0.0000       3.301408        89.8359 
 466   0.0000       3.313310        90.1598 
 467   0.0000       3.317873        90.2839 
 468   0.0000       3.326240        90.5116 
 469   0.0000       3.331729        90.6610 
 470   0.0000       3.337270        90.8117 
 471   0.0000       3.341850        90.9364 
 472   0.0000       3.347438        91.0884 
 473   0.0000       3.352554        91.2276 
 474   0.0000       3.356216        91.3273 
 475   0.0000       3.362163        91.4891 
 476   0.0000       3.376198        91.8710 
 477   0.0000       3.379360        91.9571 
 478   0.0000       3.384132        92.0869 
 479   0.0000       3.387147        92.1690 
 480   0.0000       3.394390        92.3660 
 481   0.0000       3.399497        92.5050 
 482   0.0000       3.404059        92.6292 
 483   0.0000       3.407468        92.7219 
 484   0.0000       3.416214        92.9599 
 485   0.0000       3.416342        92.9634 
 486   0.0000       3.421810        93.1122 
 487   0.0000       3.429931        93.3332 
 488   0.0000       3.437965        93.5518 
 489   0.0000       3.441657        93.6522 
 490   0.0000       3.447602        93.8140 
 491   0.0000       3.450379        93.8896 
 492   0.0000       3.456515        94.0566 
 493   0.0000       3.464938        94.2858 
 494   0.0000       3.468655        94.3869 
 495   0.0000       3.473101        94.5079 
 496   0.0000       3.478721        94.6608 
 497   0.0000       3.484631        94.8216 
 498   0.0000       3.491933        95.0203 
 499   0.0000       3.496636        95.1483 
 500   0.0000       3.500122        95.2432 
 501   0.0000       3.513268        95.6009 
 502   0.0000       3.524350        95.9024 
 503   0.0000       3.524840        95.9158 
 504   0.0000       3.544159        96.4415 
 505   0.0000       3.552080        96.6570 
 506   0.0000       3.561076        96.9018 
 507   0.0000       3.567821        97.0854 
 508   0.0000       3.578329        97.3713 
 509   0.0000       3.587029        97.6080 
 510   0.0000       3.591770        97.7370 
 511   0.0000       3.596794        97.8737 
 512   0.0000       3.615235        98.3755 
 513   0.0000       3.619971        98.5044 
 514   0.0000       3.621842        98.5553 
 515   0.0000       3.627632        98.7129 
 516   0.0000       3.631271        98.8119 
 517   0.0000       3.632998        98.8589 
 518   0.0000       3.642929        99.1291 
 519   0.0000       3.645232        99.1918 
 520   0.0000       3.648611        99.2837 
 521   0.0000       3.656623        99.5018 
 522   0.0000       3.666669        99.7751 
 523   0.0000       3.667585        99.8001 
 524   0.0000       3.674865        99.9982 
 525   0.0000       3.681553       100.1801 
 526   0.0000       3.691731       100.4571 
 527   0.0000       3.698729       100.6475 
 528   0.0000       3.702466       100.7492 
 529   0.0000       3.703846       100.7868 
 530   0.0000       3.712119       101.0119 
 531   0.0000       3.728697       101.4630 
 532   0.0000       3.733243       101.5867 
 533   0.0000       3.741530       101.8122 
 534   0.0000       3.747344       101.9704 
 535   0.0000       3.753373       102.1345 
 536   0.0000       3.761592       102.3581 
 537   0.0000       3.762883       102.3932 
 538   0.0000       3.764201       102.4291 
 539   0.0000       3.771124       102.6175 
 540   0.0000       3.781513       102.9002 
 541   0.0000       3.793541       103.2275 
 542   0.0000       3.799752       103.3965 
 543   0.0000       3.804820       103.5344 
 544   0.0000       3.812211       103.7355 
 545   0.0000       3.815084       103.8137 
 546   0.0000       3.821559       103.9899 
 547   0.0000       3.830452       104.2319 
 548   0.0000       3.839473       104.4774 
 549   0.0000       3.847989       104.7091 
 550   0.0000       3.858640       104.9989 
 551   0.0000       3.863296       105.1256 
 552   0.0000       3.870241       105.3146 
 553   0.0000       3.881231       105.6137 
 554   0.0000       3.893841       105.9568 
 555   0.0000       3.903372       106.2162 
 556   0.0000       3.904224       106.2393 
 557   0.0000       3.921070       106.6977 
 558   0.0000       3.925827       106.8272 
 559   0.0000       3.938678       107.1769 
 560   0.0000       3.944032       107.3226 
 561   0.0000       3.948527       107.4449 
 562   0.0000       3.959881       107.7538 
 563   0.0000       3.969682       108.0205 
 564   0.0000       3.973124       108.1142 
 565   0.0000       3.982342       108.3650 
 566   0.0000       3.986141       108.4684 
 567   0.0000       3.988879       108.5429 
 568   0.0000       4.000369       108.8556 
 569   0.0000       4.010816       109.1399 
 570   0.0000       4.027275       109.5877 
 571   0.0000       4.033508       109.7573 
 572   0.0000       4.044840       110.0657 
 573   0.0000       4.048037       110.1527 
 574   0.0000       4.057084       110.3989 
 575   0.0000       4.061977       110.5320 
 576   0.0000       4.081512       111.0636 
 577   0.0000       4.086285       111.1935 
 578   0.0000       4.098056       111.5138 
 579   0.0000       4.102952       111.6470 
 580   0.0000       4.112483       111.9063 
 581   0.0000       4.119914       112.1085 
 582   0.0000       4.123261       112.1996 
 583   0.0000       4.133343       112.4740 
 584   0.0000       4.137158       112.5778 
 585   0.0000       4.150918       112.9522 
 586   0.0000       4.152049       112.9830 
 587   0.0000       4.157481       113.1308 
 588   0.0000       4.172015       113.5263 
 589   0.0000       4.176804       113.6566 
 590   0.0000       4.181306       113.7791 
 591   0.0000       4.189165       113.9930 
 592   0.0000       4.192126       114.0735 
 593   0.0000       4.198935       114.2588 
 594   0.0000       4.206861       114.4745 
 595   0.0000       4.214414       114.6800 
 596   0.0000       4.217703       114.7695 
 597   0.0000       4.225154       114.9723 
 598   0.0000       4.235887       115.2643 
 599   0.0000       4.243968       115.4842 
 600   0.0000       4.254715       115.7767 
 601   0.0000       4.256263       115.8188 
 602   0.0000       4.268838       116.1610 
 603   0.0000       4.271140       116.2236 
 604   0.0000       4.277094       116.3856 
 605   0.0000       4.292540       116.8060 
 606   0.0000       4.299891       117.0060 
 607   0.0000       4.309193       117.2591 
 608   0.0000       4.320321       117.5619 
 609   0.0000       4.333878       117.9308 
 610   0.0000       4.335367       117.9713 
 611   0.0000       4.340295       118.1054 
 612   0.0000       4.343186       118.1841 
 613   0.0000       4.351895       118.4211 
 614   0.0000       4.362222       118.7021 
 615   0.0000       4.366203       118.8104 
 616   0.0000       4.370577       118.9295 
 617   0.0000       4.379547       119.1735 
 618   0.0000       4.387466       119.3890 
 619   0.0000       4.400687       119.7488 
 620   0.0000       4.411429       120.0411 
 621   0.0000       4.415278       120.1458 
 622   0.0000       4.427902       120.4893 
 623   0.0000       4.440722       120.8382 
 624   0.0000       4.444825       120.9498 
 625   0.0000       4.448164       121.0407 
 626   0.0000       4.457118       121.2843 
 627   0.0000       4.463864       121.4679 
 628   0.0000       4.474821       121.7661 
 629   0.0000       4.495120       122.3184 
 630   0.0000       4.505563       122.6026 
 631   0.0000       4.517480       122.9269 
 632   0.0000       4.518622       122.9580 
 633   0.0000       4.523471       123.0899 
 634   0.0000       4.538600       123.5016 
 635   0.0000       4.542414       123.6054 
 636   0.0000       4.544864       123.6720 
 637   0.0000       4.561590       124.1272 
 638   0.0000       4.566332       124.2562 
 639   0.0000       4.567452       124.2867 
 640   0.0000       4.577718       124.5660 
 641   0.0000       4.583163       124.7142 
 642   0.0000       4.603115       125.2571 
 643   0.0000       4.610201       125.4499 
 644   0.0000       4.616599       125.6240 
 645   0.0000       4.625655       125.8705 
 646   0.0000       4.630745       126.0090 
 647   0.0000       4.633993       126.0974 
 648   0.0000       4.643314       126.3510 
 649   0.0000       4.649253       126.5126 
 650   0.0000       4.661969       126.8586 
 651   0.0000       4.666852       126.9915 
 652   0.0000       4.672591       127.1477 
 653   0.0000       4.677240       127.2742 
 654   0.0000       4.690363       127.6313 
 655   0.0000       4.703972       128.0016 
 656   0.0000       4.712874       128.2438 
 657   0.0000       4.717984       128.3829 
 658   0.0000       4.734180       128.8236 
 659   0.0000       4.737603       128.9167 
 660   0.0000       4.754485       129.3761 
 661   0.0000       4.760223       129.5322 
 662   0.0000       4.776559       129.9768 
 663   0.0000       4.792267       130.4042 
 664   0.0000       4.803989       130.7232 
 665   0.0000       4.827632       131.3665 
 666   0.0000       4.839738       131.6960 
 667   0.0000       4.852423       132.0411 
 668   0.0000       4.858280       132.2005 
 669   0.0000       4.881700       132.8378 
 670   0.0000       4.899613       133.3253 
 671   0.0000       4.916034       133.7721 
 672   0.0000       4.922552       133.9495 
 673   0.0000       4.932970       134.2329 
 674   0.0000       4.961635       135.0130 
 675   0.0000       4.971013       135.2681 
 676   0.0000       5.005793       136.2146 
 677   0.0000       5.008780       136.2958 
 678   0.0000       5.019961       136.6001 
 679   0.0000       5.031179       136.9054 
 680   0.0000       5.050798       137.4392 
 681   0.0000       5.058660       137.6531 
 682   0.0000       5.080889       138.2580 
 683   0.0000       5.094543       138.6296 
 684   0.0000       5.111792       139.0989 
 685   0.0000       5.115646       139.2038 
 686   0.0000       5.123611       139.4206 
 687   0.0000       5.143684       139.9668 
 688   0.0000       5.145802       140.0244 
 689   0.0000       5.157597       140.3453 
 690   0.0000       5.172457       140.7497 
 691   0.0000       5.185537       141.1056 
 692   0.0000       5.192122       141.2848 
 693   0.0000       5.196934       141.4158 
 694   0.0000       5.197969       141.4439 
 695   0.0000       5.213079       141.8551 
 696   0.0000       5.221492       142.0840 
 697   0.0000       5.229959       142.3144 
 698   0.0000       5.231493       142.3562 
 699   0.0000       5.244090       142.6989 
 700   0.0000       5.251360       142.8968 
 701   0.0000       5.270809       143.4260 
 702   0.0000       5.288879       143.9177 
 703   0.0000       5.319602       144.7537 
 704   0.0000       5.323981       144.8729 
 705   0.0000       5.336912       145.2247 
 706   0.0000       5.341132       145.3396 
 707   0.0000       5.353948       145.6883 
 708   0.0000       5.374050       146.2353 
 709   0.0000       5.375170       146.2658 
 710   0.0000       5.384950       146.5319 
 711   0.0000       5.404695       147.0692 
 712   0.0000       5.429449       147.7428 
 713   0.0000       5.454756       148.4314 
 714   0.0000       5.466111       148.7404 
 715   0.0000       5.480325       149.1272 
 716   0.0000       5.488635       149.3533 
 717   0.0000       5.506374       149.8360 
 718   0.0000       5.512530       150.0036 
 719   0.0000       5.521501       150.2477 
 720   0.0000       5.528353       150.4341 
 721   0.0000       5.537772       150.6904 
 722   0.0000       5.552566       151.0930 
 723   0.0000       5.571449       151.6068 
 724   0.0000       5.584122       151.9517 
 725   0.0000       5.605706       152.5390 
 726   0.0000       5.613382       152.7479 
 727   0.0000       5.630128       153.2036 
 728   0.0000       5.638037       153.4188 
 729   0.0000       5.640719       153.4918 
 730   0.0000       5.648713       153.7093 
 731   0.0000       5.656826       153.9301 
 732   0.0000       5.671574       154.3314 
 733   0.0000       5.686685       154.7426 
 734   0.0000       5.700719       155.1244 
 735   0.0000       5.707939       155.3209 
 736   0.0000       5.723017       155.7312 
 737   0.0000       5.728862       155.8902 
 738   0.0000       5.736494       156.0979 
 739   0.0000       5.752625       156.5369 
 740   0.0000       5.760840       156.7604 
 741   0.0000       5.768223       156.9613 
 742   0.0000       5.794631       157.6799 
 743   0.0000       5.808147       158.0477 
 744   0.0000       5.819859       158.3664 
 745   0.0000       5.837161       158.8372 
 746   0.0000       5.857886       159.4012 
 747   0.0000       5.878372       159.9586 
 748   0.0000       5.922765       161.1666 
 749   0.0000       5.930349       161.3730 
 750   0.0000       5.935699       161.5186 
 751   0.0000       5.972359       162.5161 
 752   0.0000       5.977409       162.6536 
 753   0.0000       6.000058       163.2699 
 754   0.0000       6.011742       163.5878 
 755   0.0000       6.019416       163.7966 
 756   0.0000       6.056597       164.8084 
 757   0.0000       6.058091       164.8490 
 758   0.0000       6.085119       165.5845 
 759   0.0000       6.088322       165.6717 
 760   0.0000       6.094730       165.8460 
 761   0.0000       6.175472       168.0431 
 762   0.0000       6.220395       169.2656 
 763   0.0000       6.228021       169.4731 
 764   0.0000       6.252901       170.1501 
 765   0.0000       6.260864       170.3668 
 766   0.0000       6.290934       171.1850 
 767   0.0000       6.314931       171.8380 
 768   0.0000       6.320236       171.9824 
 769   0.0000       6.348844       172.7608 
 770   0.0000       6.371015       173.3641 
 771   0.0000       6.383541       173.7050 
 772   0.0000       6.408568       174.3860 
 773   0.0000       6.427573       174.9032 
 774   0.0000       6.450605       175.5299 
 775   0.0000       6.460700       175.8046 
 776   0.0000       6.505757       177.0307 
 777   0.0000       6.557765       178.4459 
 778   0.0000       6.591594       179.3664 
 779   0.0000       6.599237       179.5744 
 780   0.0000       6.660125       181.2312 
 781   0.0000       6.682572       181.8420 
 782   0.0000       6.711603       182.6320 
 783   0.0000       6.768182       184.1716 
 784   0.0000       6.829434       185.8383 
 785   0.0000       6.908962       188.0024 
 786   0.0000       6.914441       188.1515 
 787   0.0000       6.924924       188.4368 
 788   0.0000       6.995965       190.3699 
 789   0.0000       7.010100       190.7545 
 790   0.0000       7.054111       191.9521 
 791   0.0000       7.066390       192.2862 
 792   0.0000       7.084122       192.7688 
 793   0.0000       7.134470       194.1388 
 794   0.0000       7.226202       196.6350 
 795   0.0000       7.236578       196.9173 
 796   0.0000       7.261253       197.5887 
 797   0.0000       7.283790       198.2020 
 798   0.0000       7.342130       199.7895 
 799   0.0000       7.369765       200.5415 
 800   0.0000       7.403803       201.4677 
 801   0.0000       7.583342       206.3532 
 802   0.0000       7.591951       206.5875 
 803   0.0000       7.626449       207.5262 
 804   0.0000       7.663326       208.5297 
 805   0.0000       7.817528       212.7258 
 806   0.0000       7.820480       212.8061 
 807   0.0000       7.889672       214.6889 
 808   0.0000       7.935889       215.9465 
 809   0.0000       9.360370       254.7086 
 810   0.0000       9.573762       260.5153 
 811   0.0000      10.830823       294.7217 
 812   0.0000      11.271902       306.7241 
 813   0.0000      11.721576       318.9603 
 814   0.0000      12.588359       342.5467 
 815   0.0000      12.897622       350.9621 
 816   0.0000      12.941561       352.1578 
 817   0.0000      13.073213       355.7402 
 818   0.0000      13.198527       359.1502 
 819   0.0000      13.405961       364.7948 
 820   0.0000      13.483708       366.9104 
 821   0.0000      13.769758       374.6942 
 822   0.0000      13.942760       379.4018 
 823   0.0000      13.970899       380.1675 
 824   0.0000      14.019472       381.4892 
 825   0.0000      14.558132       396.1469 
 826   0.0000      14.660209       398.9246 
 827   0.0000      15.963498       434.3889 

                    ********************************
                    * MULLIKEN POPULATION ANALYSIS *
                    ********************************

-----------------------
MULLIKEN ATOMIC CHARGES
-----------------------
   0 C :   -0.277570
   1 C :    0.039265
   2 O :   -0.381060
   3 C :    0.456977
   4 O :   -0.403402
   5 C :   -0.188444
   6 C :    0.145312
   7 C :   -0.283142
   8 N :   -0.124186
   9 C :    0.202444
  10 S :   -0.439735
  11 N :   -0.201753
  12 C :    0.053545
  13 C :    0.050493
  14 C :   -0.171280
  15 C :   -0.133479
  16 C :   -0.280212
  17 C :    0.313121
  18 O :   -0.358751
  19 C :   -0.280869
  20 H :    0.106388
  21 H :    0.092607
  22 H :    0.113331
  23 H :    0.103734
  24 H :    0.086654
  25 H :    0.128070
  26 H :    0.104241
  27 H :    0.122670
  28 H :    0.197121
  29 H :    0.194447
  30 H :    0.155026
  31 H :    0.157802
  32 H :    0.161753
  33 H :    0.130159
  34 H :    0.240764
  35 H :    0.167958
Sum of atomic charges:   -0.0000000

--------------------------------
MULLIKEN REDUCED ORBITAL CHARGES
--------------------------------
  0 C s       :     3.252160  s :     3.252160
      pz      :     1.040541  p :     2.948781
      px      :     1.007756
      py      :     0.900484
      dz2     :     0.013252  d :     0.072223
      dxz     :     0.016559
      dyz     :     0.014633
      dx2y2   :     0.015801
      dxy     :     0.011978
      f0      :     0.000222  f :     0.004405
      f+1     :     0.001298
      f-1     :     0.000680
      f+2     :     0.000359
      f-2     :     0.000150
      f+3     :     0.000413
      f-3     :     0.001283
  1 C s       :     3.174399  s :     3.174399
      pz      :     0.984843  p :     2.621017
      px      :     0.764727
      py      :     0.871447
      dz2     :     0.022477  d :     0.153829
      dxz     :     0.033558
      dyz     :     0.022924
      dx2y2   :     0.037268
      dxy     :     0.037602
      f0      :     0.001178  f :     0.011490
      f+1     :     0.001681
      f-1     :     0.001160
      f+2     :     0.001100
      f-2     :     0.001201
      f+3     :     0.002864
      f-3     :     0.002308
  2 O s       :     3.717521  s :     3.717521
      pz      :     1.681509  p :     4.630268
      px      :     1.213611
      py      :     1.735147
      dz2     :     0.003253  d :     0.030993
      dxz     :     0.010795
      dyz     :     0.003230
      dx2y2   :     0.005979
      dxy     :     0.007736
      f0      :     0.000209  f :     0.002277
      f+1     :     0.000354
      f-1     :     0.000073
      f+2     :     0.000425
      f-2     :     0.000268
      f+3     :     0.000444
      f-3     :     0.000505
[...]
 15 C s       :     2.705782  s :     2.705782
      pz      :     0.896506  p :     2.796461
      px      :     0.934719
      py      :     0.965235
      dz2     :     0.088985  d :     0.415871
      dxz     :     0.071384
      dyz     :     0.057645
      dx2y2   :     0.115879
      dxy     :     0.081977
      f0      :     0.003263  f :     0.041013
      f+1     :     0.005181
      f-1     :     0.005811
      f+2     :     0.007266
      f-2     :     0.006063
      f+3     :     0.007274
      f-3     :     0.006155
 16 C s       :     2.701879  s :     2.701879
      pz      :     0.935311  p :     2.869034
      px      :     0.958910
      py      :     0.974813
      dz2     :     0.041846  d :     0.391011
      dxz     :     0.058206
      dyz     :     0.086092
      dx2y2   :     0.097408
      dxy     :     0.107459
      f0      :     0.003915  f :     0.040330
      f+1     :     0.004284
      f-1     :     0.004497
      f+2     :     0.006374
      f-2     :     0.004756
      f+3     :     0.009610
      f-3     :     0.006893
 17 C s       :     2.701556  s :     2.701556
      pz      :     0.855734  p :     2.684578
      px      :     0.824862
      py      :     1.003983
      dz2     :     0.122594  d :     0.708307
      dxz     :     0.105166
      dyz     :     0.139558
      dx2y2   :     0.166539
      dxy     :     0.174449
      f0      :     0.008678  f :     0.099250
      f+1     :     0.015010
      f-1     :     0.010029
      f+2     :     0.016507
      f-2     :     0.013453
      f+3     :     0.019673
      f-3     :     0.015900
 18 O s       :     3.177319  s :     3.177319
      pz      :     1.437742  p :     4.348772
      px      :     1.399601
      py      :     1.511429
      dz2     :     0.007834  d :     0.075560
      dxz     :     0.016897
      dyz     :     0.017913
      dx2y2   :     0.014304
      dxy     :     0.018613
      f0      :     0.000574  f :     0.005075
      f+1     :     0.000696
      f-1     :     0.000438
      f+2     :     0.000607
      f-2     :     0.001028
      f+3     :     0.000823
      f-3     :     0.000910
 19 C s       :     2.695435  s :     2.695435
      pz      :     0.931270  p :     2.847330
      px      :     0.952282
      py      :     0.963779
      dz2     :     0.072913  d :     0.388525
      dxz     :     0.069957
      dyz     :     0.058292
      dx2y2   :     0.101791
      dxy     :     0.085572
      f0      :     0.003332  f :     0.040809
      f+1     :     0.005335
      f-1     :     0.005333
      f+2     :     0.007294
      f-2     :     0.006549
      f+3     :     0.007167
      f-3     :     0.005800
 20 H s       :     0.845556  s :     0.845556
      pz      :     0.060780  p :     0.149926
      px      :     0.048785
      py      :     0.040361
      dz2     :     0.008552  d :     0.027595
      dxz     :     0.006669
      dyz     :     0.005746
      dx2y2   :     0.003502
      dxy     :     0.003127
 21 H s       :     0.849455  s :     0.849455
      pz      :     0.041283  p :     0.152135
      px      :     0.064107
      py      :     0.046744
      dz2     :     0.002286  d :     0.027513
      dxz     :     0.007797
      dyz     :     0.001761
      dx2y2   :     0.008372
      dxy     :     0.007298
 22 H s       :     0.845631  s :     0.845631
      pz      :     0.062685  p :     0.152879
      px      :     0.050011
      py      :     0.040183
      dz2     :     0.008791  d :     0.027635
      dxz     :     0.006952
      dyz     :     0.005982
      dx2y2   :     0.003170
      dxy     :     0.002740
 23 H s       :     0.852956  s :     0.852956
      pz      :     0.056542  p :     0.143702
      px      :     0.049105
      py      :     0.038055
      dz2     :     0.006996  d :     0.026860
      dxz     :     0.007405
      dyz     :     0.003731
      dx2y2   :     0.003994
      dxy     :     0.004733
 24 H s       :     0.859205  s :     0.859205
      pz      :     0.072017  p :     0.146813
      px      :     0.034619
      py      :     0.040176
      dz2     :     0.009516  d :     0.027031
      dxz     :     0.007254
      dyz     :     0.006471
      dx2y2   :     0.001758
      dxy     :     0.002032
 25 H s       :     0.829402  s :     0.829402
      pz      :     0.063418  p :     0.150086
      px      :     0.041966
      py      :     0.044703
      dz2     :     0.008853  d :     0.027694
      dxz     :     0.007036
      dyz     :     0.006812
      dx2y2   :     0.003235
      dxy     :     0.001758
 26 H s       :     0.842455  s :     0.842455
      pz      :     0.037367  p :     0.150003
      px      :     0.039811
      py      :     0.072826
      dz2     :     0.002328  d :     0.027692
      dxz     :     0.000157
      dyz     :     0.009225
      dx2y2   :     0.007036
      dxy     :     0.008945
 27 H s       :     0.831157  s :     0.831157
      pz      :     0.038305  p :     0.151589
      px      :     0.072202
      py      :     0.041082
      dz2     :     0.002456  d :     0.027734
      dxz     :     0.008715
      dyz     :     0.000274
      dx2y2   :     0.007933
      dxy     :     0.008357
 28 H s       :     0.742927  s :     0.742927
      pz      :     0.060287  p :     0.254035
      px      :     0.079076
      py      :     0.114671
      dz2     :     0.006161  d :     0.061849
      dxz     :     0.001979
      dyz     :     0.017513
      dx2y2   :     0.016434
      dxy     :     0.019762
 29 H s       :     0.748574  s :     0.748574
      pz      :     0.112417  p :     0.254050
      px      :     0.099337
      py      :     0.042296
      dz2     :     0.021215  d :     0.061330
      dxz     :     0.015626
      dyz     :     0.009890
      dx2y2   :     0.008603
      dxy     :     0.005995
 30 H s       :     0.828216  s :     0.828216
      pz      :     0.040662  p :     0.148544
      px      :     0.061516
      py      :     0.046366
      dz2     :     0.003158  d :     0.028340
      dxz     :     0.006826
      dyz     :     0.003611
      dx2y2   :     0.007123
      dxy     :     0.007621
 31 H s       :     0.841262  s :     0.841262
      pz      :     0.051997  p :     0.155991
      px      :     0.064206
      py      :     0.039787
      dz2     :     0.004929  d :     0.027467
      dxz     :     0.006449
      dyz     :     0.003616
      dx2y2   :     0.006202
      dxy     :     0.006271
 32 H s       :     0.842804  s :     0.842804
      pz      :     0.037583  p :     0.151279
      px      :     0.037697
      py      :     0.076000
      dz2     :     0.002719  d :     0.026470
      dxz     :     0.000560
      dyz     :     0.007498
      dx2y2   :     0.007710
      dxy     :     0.007982
 33 H s       :     0.848913  s :     0.848913
      pz      :     0.059007  p :     0.159123
      px      :     0.051674
      py      :     0.048441
      dz2     :     0.006236  d :     0.027764
      dxz     :     0.005336
      dyz     :     0.005596
      dx2y2   :     0.005529
      dxy     :     0.005067
 34 H s       :     0.706702  s :     0.706702
      pz      :     0.118443  p :     0.347932
      px      :     0.088951
      py      :     0.140538
      dz2     :     0.024820  d :     0.099578
      dxz     :     0.013322
      dyz     :     0.023335
      dx2y2   :     0.019326
      dxy     :     0.018777
 35 H s       :     0.839425  s :     0.839425
      pz      :     0.040749  p :     0.157030
      px      :     0.039201
      py      :     0.077080
      dz2     :     0.002756  d :     0.028030
      dxz     :     0.000682
      dyz     :     0.008233
      dx2y2   :     0.007901
      dxy     :     0.008459


                      *****************************
                      * MAYER POPULATION ANALYSIS *
                      *****************************

  NA   - Mulliken gross atomic population
  ZA   - Total nuclear charge
  QA   - Mulliken gross atomic charge
  VA   - Mayer's total valence
  BVA  - Mayer's bonded valence
  FA   - Mayer's free valence

  ATOM       NA         ZA         QA         VA         BVA        FA
  0 C      6.2776     6.0000    -0.2776     3.8766     3.8766    -0.0000
  1 C      5.9607     6.0000     0.0393     3.8910     3.8910    -0.0000
  2 O      8.3811     8.0000    -0.3811     1.9906     1.9906    -0.0000
  3 C      5.5430     6.0000     0.4570     4.1783     4.1783    -0.0000
  4 O      8.4034     8.0000    -0.4034     2.0999     2.0999    -0.0000
  5 C      6.1884     6.0000    -0.1884     3.6423     3.6423    -0.0000
  6 C      5.8547     6.0000     0.1453     3.8328     3.8328     0.0000
  7 C      6.2831     6.0000    -0.2831     3.8975     3.8975     0.0000
  8 N      7.1242     7.0000    -0.1242     3.2894     3.2894     0.0000
  9 C      5.7976     6.0000     0.2024     4.1553     4.1553     0.0000
 10 S     16.4397    16.0000    -0.4397     1.7555     1.7555    -0.0000
 11 N      7.2018     7.0000    -0.2018     3.2598     3.2598     0.0000
 12 C      5.9465     6.0000     0.0535     3.9535     3.9535    -0.0000
 13 C      5.9495     6.0000     0.0505     3.7353     3.7353    -0.0000
 14 C      6.1713     6.0000    -0.1713     3.8621     3.8621    -0.0000
 15 C      6.1335     6.0000    -0.1335     3.8054     3.8054    -0.0000
 16 C      6.2802     6.0000    -0.2802     3.7936     3.7936     0.0000
 17 C      5.6869     6.0000     0.3131     3.8721     3.8721     0.0000
 18 O      8.3588     8.0000    -0.3588     2.1153     2.1153    -0.0000
 19 C      6.2809     6.0000    -0.2809     3.8473     3.8473     0.0000
 20 H      0.8936     1.0000     0.1064     0.9869     0.9869     0.0000
 21 H      0.9074     1.0000     0.0926     0.9803     0.9803     0.0000
 22 H      0.8867     1.0000     0.1133     0.9814     0.9814    -0.0000
 23 H      0.8963     1.0000     0.1037     0.9737     0.9737    -0.0000
 24 H      0.9133     1.0000     0.0867     0.9730     0.9730    -0.0000
 25 H      0.8719     1.0000     0.1281     0.9818     0.9818    -0.0000
 26 H      0.8958     1.0000     0.1042     0.9861     0.9861     0.0000
 27 H      0.8773     1.0000     0.1227     0.9765     0.9765    -0.0000
 28 H      0.8029     1.0000     0.1971     1.0228     1.0228    -0.0000
 29 H      0.8056     1.0000     0.1944     1.0180     1.0180     0.0000
 30 H      0.8450     1.0000     0.1550     0.9954     0.9954    -0.0000
 31 H      0.8422     1.0000     0.1578     0.9878     0.9878     0.0000
 32 H      0.8382     1.0000     0.1618     0.9767     0.9767    -0.0000
 33 H      0.8698     1.0000     0.1302     0.9916     0.9916    -0.0000
 34 H      0.7592     1.0000     0.2408     1.0106     1.0106     0.0000
 35 H      0.8320     1.0000     0.1680     0.9873     0.9873    -0.0000

  Mayer bond orders larger than 0.100000
B(  0-C ,  1-C ) :   0.9822 B(  0-C , 20-H ) :   0.9741 B(  0-C , 21-H ) :   0.9739 
B(  0-C , 22-H ) :   0.9706 B(  1-C ,  2-O ) :   0.9031 B(  1-C , 23-H ) :   0.9802 
B(  1-C , 24-H ) :   0.9727 B(  2-O ,  3-C ) :   1.0801 B(  3-C ,  4-O ) :   2.0230 
B(  3-C ,  5-C ) :   1.0306 B(  5-C ,  6-C ) :   1.6648 B(  5-C , 12-C ) :   0.9634 
B(  6-C ,  7-C ) :   0.9523 B(  6-C ,  8-N ) :   1.1415 B(  7-C , 25-H ) :   0.9680 
B(  7-C , 26-H ) :   0.9891 B(  7-C , 27-H ) :   0.9649 B(  8-N ,  9-C ) :   1.1833 
B(  8-N , 28-H ) :   0.9492 B(  9-C , 10-S ) :   1.6104 B(  9-C , 11-N ) :   1.3014 
B( 11-N , 12-C ) :   0.9917 B( 11-N , 29-H ) :   0.9516 B( 12-C , 13-C ) :   0.9433 
B( 12-C , 30-H ) :   0.9989 B( 13-C , 14-C ) :   1.3756 B( 13-C , 19-C ) :   1.3669 
B( 14-C , 15-C ) :   1.3932 B( 14-C , 31-H ) :   0.9636 B( 15-C , 16-C ) :   1.3630 
B( 15-C , 32-H ) :   0.9704 B( 16-C , 17-C ) :   1.3315 B( 16-C , 33-H ) :   0.9852 
B( 17-C , 18-O ) :   1.1092 B( 17-C , 19-C ) :   1.3738 B( 18-O , 34-H ) :   0.9800 
B( 19-C , 35-H ) :   0.9580 

-------
TIMINGS
-------

Total SCF time: 0 days 1 hours 56 min 36 sec 

Total time                  ....    6996.676 sec
Sum of individual times     ....    6986.740 sec  ( 99.9%)

Fock matrix formation       ....    6966.871 sec  ( 99.6%)
Diagonalization             ....       2.345 sec  (  0.0%)
Density matrix formation    ....       0.288 sec  (  0.0%)
Population analysis         ....       0.261 sec  (  0.0%)
Initial guess               ....       6.612 sec  (  0.1%)
Orbital Transformation      ....       0.000 sec  (  0.0%)
Orbital Orthonormalization  ....       0.000 sec  (  0.0%)
DIIS solution               ....       5.805 sec  (  0.1%)
SOSCF solution              ....       3.113 sec  (  0.0%)

Maximum memory used throughout the entire SCF-calculation: 740.9 MB

------------------------------------------------------------------------------
                                ORCA  MP2 
------------------------------------------------------------------------------

Freezing NCore=48 chemical core electrons

-------------
RI-MP2 ENERGY
-------------
Dimension of the basis                    ...  828
Memory devoted to MP2                     ...  256 MB   
Data format for buffers                   ... DOUBLE
Compression type for matrix containers    ... UNCOMPRESSED
Overall scaling of the MP2 energy         ...   1.000e+00
Calculating two index integrals           ... done (    0.040 sec)
Cholesky decomposition of V**-1           ... done (    0.562 sec)

-----------------
RI-TRANSFORMATION (AUX index driven)
-----------------

Dimension of the orbital-basis         ... 828
Dimension of the aux-basis             ... 2141
Transformation of internal/external MOs...   24-  76 to   77- 827
Number Format for Storage              ... Double (8 Byte)
Integral mode                          ... Direct

First Phase: integral generation and transformation of MO indices
  Aux angular momentum 0               ... done (    4.753 sec)
  Aux angular momentum 1               ... done (    7.706 sec)
  Aux angular momentum 2               ... done (   10.441 sec)
  Aux angular momentum 3               ... done (    8.342 sec)
  Aux angular momentum 4               ... done (    2.799 sec)
Closing buffer VIA ( 0.63 GB; CompressionRatio= 1.00)
  Phase 1 completed in    34.504 sec
Second Phase: sorting and transformation of aux index

IA-Transformation
Memory available                       ... 157 MB 
Max. # MO pairs treated in a batch     ... 11    
# of internal orbitals                 ... 53
# batches for internal orbitals        ... 5
Closing buffer IAV ( 0.63 GB; CompressionRatio= 1.00)
(ia|v) transformation done in    28.118 sec

  Phase 2 completed in    28.129 sec
RI-Integral transformation completed in    62.803 sec
Opening buffers                              ... done

Starting loop over batches of integrals:

Operator 0  - window                       ... ( 24- 76)x( 77-827)
Operator 0  - Memory available             ...   256 MB
Operator 0  - Memory needed per MO         ...  12.3 MB
Operator 0  - Number of orbitals per batch ... 13
Operator 0  - Number of batches            ... 5

OPERATOR  0   PASS   0:  MOs    24 ...   36
  Reading integrals       ... ok
  Internal MO  26
  Internal MO  29
  Internal MO  32
  Internal MO  35
OPERATOR  0   PASS   1:  MOs    37 ...   49
  Reading integrals       ... ok
  Internal MO  38
  Internal MO  41
  Internal MO  44
  Internal MO  47
OPERATOR  0   PASS   2:  MOs    50 ...   62
  Reading integrals       ... ok
  Internal MO  50
  Internal MO  53
  Internal MO  56
  Internal MO  59
  Internal MO  62
OPERATOR  0   PASS   3:  MOs    63 ...   75
  Reading integrals       ... ok
  Internal MO  65
  Internal MO  68
  Internal MO  71
  Internal MO  74
OPERATOR  0   PASS   4:  MOs    76 ...   76
  Reading integrals       ... ok
Time spent in pair loops =    97.736 sec
Deleting buffer (Ka|jb)[aa] ...done

-----------------------------------------------
 RI-MP2 CORRELATION ENERGY:     -3.532194705 Eh
-----------------------------------------------


-------
TIMINGS
-------

Total time                :  161.305 sec
Integral trafo            :   62.824 sec ( 38.9%)
I/O of integrals          :    4.279 sec (  2.7%)
K(i,j) Operators          :   64.300 sec ( 39.9%)
T(i,j) pair energies      :    9.081 sec (  5.6%)
V-calculation             :    0.040 sec (  0.0%)
V**(-1/2)                 :    0.562 sec (  0.3%)
Gamma(ia|P)               :    0.000 sec (  0.0%)
Gamma-Trafo               :    0.000 sec (  0.0%)
D(virtual)                :    0.000 sec (  0.0%)
D(internal)               :    0.000 sec (  0.0%)
W(virtual)                :    0.000 sec (  0.0%)
W(internal)               :    0.000 sec (  0.0%)
L(virtual)                :    0.000 sec (  0.0%)
L(internal)               :    0.000 sec (  0.0%)
G(D)                      :    0.000 sec (  0.0%)
G(Z)                      :    0.000 sec (  0.0%)
Z-Vector Solution         :    0.000 sec (  0.0%)
3-Index Derivative        :    0.000 sec (  0.0%)
2-Index Derivative        :    0.000 sec (  0.0%)
Separable Gradient        :    0.000 sec (  0.0%)


---------------------------------------
MP2 TOTAL ENERGY:    -1274.329025353 Eh
---------------------------------------

Maximum memory used throughout the entire MP2-calculation: 304.7 MB

-------------------------   --------------------
FINAL SINGLE POINT ENERGY     -1274.329025353301
-------------------------   --------------------


                            ***************************************
                            *     ORCA property calculations      *
                            ***************************************


  WARNING: The energy has been calculated at the MP2 level but the densities
           used in the property calculations are still SCF densities
           MP2 response densities have not been calculated 
           use %mp2 Density relaxed end
           or  %mp2 Density unrelaxed end

                                    ---------------------
                                    Active property flags
                                    ---------------------
   (+) Dipole Moment


------------------------------------------------------------------------------
                       ORCA ELECTRIC PROPERTIES CALCULATION
------------------------------------------------------------------------------

Dipole Moment Calculation                       ... on
Quadrupole Moment Calculation                   ... off
Polarizability Calculation                      ... off
GBWName                                         ... CONFS/Conf348.orca.gbw
Electron density file                           ... CONFS/Conf348.orca.scfp
The origin for moment calculation is the CENTER OF MASS  = (32.873189, 31.527213 35.315482)

-------------
DIPOLE MOMENT
-------------
                                X             Y             Z
Electronic contribution:     10.23872      10.35504       7.77425
Nuclear contribution   :    -11.81183     -11.49602      -8.43304
                        -----------------------------------------
Total Dipole Moment    :     -1.57311      -1.14098      -0.65880
                        -----------------------------------------
Magnitude (a.u.)       :      2.05195
Magnitude (Debye)      :      5.21565



--------------------
Rotational spectrum 
--------------------
 
Rotational constants in cm-1:     0.011757     0.009071     0.006352 
Rotational constants in MHz :   352.473436   271.956346   190.434511 

 Dipole components along the rotational axes: 
x,y,z [a.u.] :    -1.793183    -0.487186     0.870429 
x,y,z [Debye]:    -4.557910    -1.238328     2.212454 

 

Timings for individual modules:

Sum of individual times         ...     7163.606 sec (= 119.393 min)
GTO integral calculation        ...        4.526 sec (=   0.075 min)   0.1 %
SCF iterations                  ...     6996.968 sec (= 116.616 min)  97.7 %
MP2 module                      ...      162.112 sec (=   2.702 min)   2.3 %
                             ****ORCA TERMINATED NORMALLY****
TOTAL RUN TIME: 0 days 1 hours 59 minutes 25 seconds 807 msec
