
                                        *****************
                                        * O   R   C   A *
                                        *****************

                                            #,                                       
                                            ###                                      
                                            ####                                     
                                            #####                                    
                                            ######                                   
                                           ########,                                 
                                     ,,################,,,,,                         
                               ,,#################################,,                 
                          ,,##########################################,,             
                       ,#########################################, ''#####,          
                    ,#############################################,,   '####,        
                  ,##################################################,,,,####,       
                ,###########''''           ''''###############################       
              ,#####''   ,,,,##########,,,,          '''####'''          '####       
            ,##' ,,,,###########################,,,                        '##       
           ' ,,###''''                  '''############,,,                           
         ,,##''                                '''############,,,,        ,,,,,,###''
      ,#''                                            '''#######################'''  
     '                                                          ''''####''''         
             ,#######,   #######,   ,#######,      ##                                
            ,#'     '#,  ##    ##  ,#'     '#,    #''#        ######   ,####,        
            ##       ##  ##   ,#'  ##            #'  '#       #        #'  '#        
            ##       ##  #######   ##           ,######,      #####,   #    #        
            '#,     ,#'  ##    ##  '#,     ,#' ,#      #,         ##   #,  ,#        
             '#######'   ##     ##  '#######'  #'      '#     #####' # '####'        



                  #######################################################
                  #                        -***-                        #
                  #          Department of theory and spectroscopy      #
                  #    Directorship and core code : Frank Neese         #
                  #        Max Planck Institute fuer Kohlenforschung    #
                  #                Kaiser Wilhelm Platz 1               #
                  #                 D-45470 Muelheim/Ruhr               #
                  #                      Germany                        #
                  #                                                     #
                  #                  All rights reserved                #
                  #                        -***-                        #
                  #######################################################


                         Program Version 5.0.0 -  RELEASE  -
                                (SVN: $Rev: 19529$)
                ($Date: 2021-06-28 11:36:33 +0200 (Mo, 28 Jun 2021) $)


 With contributions from (in alphabetic order):
   Daniel Aravena         : Magnetic Suceptibility
   Michael Atanasov       : Ab Initio Ligand Field Theory (pilot matlab implementation)
   Alexander A. Auer      : GIAO ZORA, VPT2 properties, NMR spectrum
   Ute Becker             : Parallelization
   Giovanni Bistoni       : ED, misc. LED, open-shell LED, HFLD
   Martin Brehm           : Molecular dynamics
   Dmytro Bykov           : SCF Hessian
   Vijay G. Chilkuri      : MRCI spin determinant printing, contributions to CSF-ICE
   Dipayan Datta          : RHF DLPNO-CCSD density
   Achintya Kumar Dutta   : EOM-CC, STEOM-CC
   Dmitry Ganyushin       : Spin-Orbit,Spin-Spin,Magnetic field MRCI
   Miquel Garcia          : C-PCM Hessian, Gaussian charge scheme
   Yang Guo               : DLPNO-NEVPT2, F12-NEVPT2, CIM, IAO-localization
   Andreas Hansen         : Spin unrestricted coupled pair/coupled cluster methods
   Benjamin Helmich-Paris : MC-RPA, TRAH-SCF, COSX integrals
   Lee Huntington         : MR-EOM, pCC
   Robert Izsak           : Overlap fitted RIJCOSX, COSX-SCS-MP3, EOM
   Marcus Kettner         : VPT2
   Christian Kollmar      : KDIIS, OOCD, Brueckner-CCSD(T), CCSD density, CASPT2, CASPT2-K
   Simone Kossmann        : Meta GGA functionals, TD-DFT gradient, OOMP2, MP2 Hessian
   Martin Krupicka        : Initial AUTO-CI
   Lucas Lang             : DCDCAS
   Marvin Lechner         : AUTO-CI (C++ implementation), FIC-MRCC
   Dagmar Lenk            : GEPOL surface, SMD
   Dimitrios Liakos       : Extrapolation schemes; Compound Job, initial MDCI parallelization
   Dimitrios Manganas     : Further ROCIS development; embedding schemes
   Dimitrios Pantazis     : SARC Basis sets
   Anastasios Papadopoulos: AUTO-CI, single reference methods and gradients
   Taras Petrenko         : DFT Hessian,TD-DFT gradient, ASA, ECA, R-Raman, ABS, FL, XAS/XES, NRVS
   Peter Pinski           : DLPNO-MP2, DLPNO-MP2 Gradient
   Christoph Reimann      : Effective Core Potentials
   Marius Retegan         : Local ZFS, SOC
   Christoph Riplinger    : Optimizer, TS searches, QM/MM, DLPNO-CCSD(T), (RO)-DLPNO pert. Triples
   Tobias Risthaus        : Range-separated hybrids, TD-DFT gradient, RPA, STAB
   Michael Roemelt        : Original ROCIS implementation
   Masaaki Saitow         : Open-shell DLPNO-CCSD energy and density
   Barbara Sandhoefer     : DKH picture change effects
   Avijit Sen             : IP-ROCIS
   Kantharuban Sivalingam : CASSCF convergence, NEVPT2, FIC-MRCI
   Bernardo de Souza      : ESD, SOC TD-DFT
   Georgi Stoychev        : AutoAux, RI-MP2 NMR
   Willem Van den Heuvel  : Paramagnetic NMR
   Boris Wezisla          : Elementary symmetry handling
   Frank Wennmohs         : Technical directorship


 We gratefully acknowledge several colleagues who have allowed us to
 interface, adapt or use parts of their codes:
   Stefan Grimme, W. Hujo, H. Kruse, P. Pracht,  : VdW corrections, initial TS optimization,
                  C. Bannwarth, S. Ehlert          DFT functionals, gCP, sTDA/sTD-DF
   Ed Valeev, F. Pavosevic, A. Kumar             : LibInt (2-el integral package), F12 methods
   Garnet Chan, S. Sharma, J. Yang, R. Olivares  : DMRG
   Ulf Ekstrom                                   : XCFun DFT Library
   Mihaly Kallay                                 : mrcc  (arbitrary order and MRCC methods)
   Jiri Pittner, Ondrej Demel                    : Mk-CCSD
   Frank Weinhold                                : gennbo (NPA and NBO analysis)
   Christopher J. Cramer and Donald G. Truhlar   : smd solvation model
   Lars Goerigk                                  : TD-DFT with DH, B97 family of functionals
   V. Asgeirsson, H. Jonsson                     : NEB implementation
   FAccTs GmbH                                   : IRC, NEB, NEB-TS, DLPNO-Multilevel, CI-OPT
                                                   MM, QMMM, 2- and 3-layer-ONIOM, Crystal-QMMM,
                                                   LR-CPCM, SF, NACMEs, symmetry and pop. for TD-DFT,
                                                   nearIR, NL-DFT gradient (VV10), updates on ESD,
                                                   ML-optimized integration grids
   S Lehtola, MJT Oliveira, MAL Marques          : LibXC Library
   Liviu Ungur et al                             : ANISO software


 Your calculation uses the libint2 library for the computation of 2-el integrals
 For citations please refer to: http://libint.valeyev.net

 Your ORCA version has been built with support for libXC version: 5.1.0
 For citations please refer to: https://tddft.org/programs/libxc/

 This ORCA versions uses:
   CBLAS   interface :  Fast vector & matrix operations
   LAPACKE interface :  Fast linear algebra routines
   SCALAPACK package :  Parallel linear algebra routines
   Shared memory     :  Shared parallel matrices
   BLAS/LAPACK       :  OpenBLAS 0.3.15  USE64BITINT DYNAMIC_ARCH NO_AFFINITY Zen SINGLE_THREADED
        Core in use  :  Zen
   Copyright (c) 2011-2014, The OpenBLAS Project


================================================================================

----- Orbital basis set information -----
Your calculation utilizes the basis: cc-pVTZ 
       H, B-Ne : Obtained from the ccRepo (grant-hill.group.shef.ac.uk/ccrepo) Feb. 2017
                 T. H. Dunning, Jr., J. Chem. Phys. 90, 1007 (1989)
            He : Obtained from the ccRepo (grant-hill.group.shef.ac.uk/ccrepo) Feb. 2017
                 D. E. Woon, T. H. Dunning, Jr., J. Chem. Phys. 100, 2975 (1994)
  Li-Be, Na-Mg : Obtained from the ccRepo (grant-hill.group.shef.ac.uk/ccrepo) Feb. 2017
                 B. P. Prascher, D. E. Woon, K. A. Peterson, T. H. Dunning, Jr., A. K. Wilson, Theor. Chem. Acc. 128, 69 (2011)
         Al-Ar : Obtained from the ccRepo (grant-hill.group.shef.ac.uk/ccrepo) Feb. 2017
                 D. E. Woon, T. H. Dunning, Jr., J. Chem. Phys. 98, 1358 (1993)
            Ca : Obtained from the Peterson Research Group Website (tyr0.chem.wsu.edu/~kipeters) Feb. 2017
                 J. Koput, K. A. Peterson, J. Phys. Chem. 106, 9595 (2002)
         Sc-Zn : Obtained from the ccRepo (grant-hill.group.shef.ac.uk/ccrepo) Feb. 2017
                 N. B. Balabanov, K. A. Peterson, J. Chem. Phys. 123, 064107 (2005)
                 N. B. Balabanov, K. A. Peterson, J. Chem. Phys. 125, 074110 (2006)
         Ga-Kr : Obtained from the ccRepo (grant-hill.group.shef.ac.uk/ccrepo) Feb. 2017
                 A. K. Wilson, D. E. Woon, K. A. Peterson, T. H. Dunning, Jr., J. Chem. Phys. 110, 7667 (1999)
             Y : Obtained from the ccRepo (grant-hill.group.shef.ac.uk/ccrepo) Feb. 2017
                 K. A. Peterson, D. Figgen, M. Dolg, H. Stoll, J. Chem. Phys. 126, 124101 (2007)
        Ag, Au : Obtained from the Peterson Research Group Website (tyr0.chem.wsu.edu/~kipeters) Feb. 2017
                 K. A. Peterson, C. Puzzarini, Theor. Chem. Acc. 114, 283 (2005)

----- AuxC basis set information -----
Your calculation utilizes the auxiliary basis: cc-pVTZ/C 
  Obtained from the EMSL Basis Set Exchange (bse.pnl.gov) Feb. 2017
  H-He, B-F, Al-Ar, Ga-Kr : F. Weigend, A. Kohn, C. Hattig, J. Chem. Phys. 116, 3175 (2002)
             Li-Be, Na-Mg : C. Haettig, Phys. Chem. Chem. Phys. 7, 59 (2005)
                       Ne : C. Haettig, Phys. Chem. Chem. Phys. 7, 59 (2005)
                            F. Weigend, A. Kohn, C. Hattig, J. Chem. Phys. 116, 3175 (2002)
                    Sc-Zn : J. G. Hill, J. A. Platts, J. Chem. Phys. 128, 044104 (2008)

================================================================================
                                        WARNINGS
                       Please study these warnings very carefully!
================================================================================


WARNING: No MP2 level density has been requested!
         To caclulate MP2 level properties use
         %mp2 Density relaxed end
         or
         %mp2 Density unrelaxed end

WARNING: Post HF methods need fully converged wavefunctions
  ===> : Setting SCFConvForced true
         You can overwrite this default with %scf ConvForced false 


INFO   : the flag for use of the SHARK integral package has been found!

================================================================================
                                       INPUT FILE
================================================================================
NAME = CONFS/Conf209.orca
|  1> ! ri-mp2 cc-pvtz cc-pvtz/c TightSCF NoKeepInts
|  2> 
|  3> %scf
|  4>   MaxCore 4096
|  5> end
|  6> *xyz  0  1
|  7>     C       15.2839167   14.5979128   17.4732271
|  8>     C       16.1520275   14.4790758   16.2113075
|  9>     O       17.5217302   14.8370107   16.4977372
| 10>     C       17.9348668   16.0856099   16.1359653
| 11>     O       17.8039128   16.4393084   14.9770542
| 12>     C       17.8620037   17.0567551   17.2786822
| 13>     C       17.3754442   18.3159655   17.1419494
| 14>     C       16.6783456   18.9042535   15.9343428
| 15>     N       17.5391667   19.2416999   18.1767717
| 16>     C       18.3744624   19.0624131   19.2481945
| 17>     S       18.6760606   20.2710380   20.3359297
| 18>     N       18.9533603   17.8234823   19.3692666
| 19>     C       18.5658009   16.6377243   18.5805826
| 20>     C       17.7641969   15.6838437   19.4616213
| 21>     C       18.1831235   14.3493870   19.6237658
| 22>     C       17.4826409   13.4765178   20.4735095
| 23>     C       16.3544643   13.9412078   21.1707250
| 24>     C       15.9365757   15.2700545   21.0165270
| 25>     O       14.8460336   15.7210784   21.6856059
| 26>     C       16.6372648   16.1373307   20.1724479
| 27>     H       15.6709873   13.9555599   18.2716508
| 28>     H       14.2553173   14.2843950   17.2585239
| 29>     H       15.2520976   15.6339752   17.8291848
| 30>     H       16.1258863   13.4358217   15.8713104
| 31>     H       15.7341825   15.0975190   15.4048871
| 32>     H       15.9236439   18.2098758   15.5446723
| 33>     H       17.3997022   19.0890757   15.1278501
| 34>     H       16.1697661   19.8498812   16.1555660
| 35>     H       17.1363367   20.1612281   18.0905971
| 36>     H       19.5433756   17.7115046   20.1839078
| 37>     H       19.4935686   16.1228970   18.2940766
| 38>     H       19.0543579   13.9851304   19.0857134
| 39>     H       17.8145091   12.4460611   20.5887701
| 40>     H       15.8096838   13.2705318   21.8270620
| 41>     H       14.5354648   15.0020439   22.2561682
| 42>     H       16.3027222   17.1648303   20.0788462
| 43> *
| 44> 
| 45>                          ****END OF INPUT****
================================================================================

                       ****************************
                       * Single Point Calculation *
                       ****************************

---------------------------------
CARTESIAN COORDINATES (ANGSTROEM)
---------------------------------
  C     15.283917   14.597913   17.473227
  C     16.152027   14.479076   16.211308
  O     17.521730   14.837011   16.497737
  C     17.934867   16.085610   16.135965
  O     17.803913   16.439308   14.977054
  C     17.862004   17.056755   17.278682
  C     17.375444   18.315965   17.141949
  C     16.678346   18.904253   15.934343
  N     17.539167   19.241700   18.176772
  C     18.374462   19.062413   19.248195
  S     18.676061   20.271038   20.335930
  N     18.953360   17.823482   19.369267
  C     18.565801   16.637724   18.580583
  C     17.764197   15.683844   19.461621
  C     18.183124   14.349387   19.623766
  C     17.482641   13.476518   20.473509
  C     16.354464   13.941208   21.170725
  C     15.936576   15.270054   21.016527
  O     14.846034   15.721078   21.685606
  C     16.637265   16.137331   20.172448
  H     15.670987   13.955560   18.271651
  H     14.255317   14.284395   17.258524
  H     15.252098   15.633975   17.829185
  H     16.125886   13.435822   15.871310
  H     15.734182   15.097519   15.404887
  H     15.923644   18.209876   15.544672
  H     17.399702   19.089076   15.127850
  H     16.169766   19.849881   16.155566
  H     17.136337   20.161228   18.090597
  H     19.543376   17.711505   20.183908
  H     19.493569   16.122897   18.294077
  H     19.054358   13.985130   19.085713
  H     17.814509   12.446061   20.588770
  H     15.809684   13.270532   21.827062
  H     14.535465   15.002044   22.256168
  H     16.302722   17.164830   20.078846

----------------------------
CARTESIAN COORDINATES (A.U.)
----------------------------
  NO LB      ZA    FRAG     MASS         X           Y           Z
   0 C     6.0000    0    12.011   28.882417   27.586057   33.019614
   1 C     6.0000    0    12.011   30.522908   27.361488   30.634931
   2 O     8.0000    0    15.999   33.111271   28.037887   31.176205
   3 C     6.0000    0    12.011   33.891987   30.397397   30.492555
   4 O     8.0000    0    15.999   33.644519   31.065791   28.302531
   5 C     6.0000    0    12.011   33.754295   32.232596   32.651977
   6 C     6.0000    0    12.011   32.834831   34.612159   32.393590
   7 C     6.0000    0    12.011   31.517506   35.723862   30.111544
   8 N     7.0000    0    14.007   33.144222   36.361543   34.349121
   9 C     6.0000    0    12.011   34.722702   36.022740   36.373816
  10 S    16.0000    0    32.060   35.292640   38.306710   38.429338
  11 N     7.0000    0    14.007   35.816660   33.681500   36.602609
  12 C     6.0000    0    12.011   35.084279   31.440742   35.112213
  13 C     6.0000    0    12.011   33.569467   29.638169   36.777134
  14 C     6.0000    0    12.011   34.361124   27.116412   37.083543
  15 C     6.0000    0    12.011   33.037403   25.466928   38.689326
  16 C     6.0000    0    12.011   30.905459   26.345065   40.006872
  17 C     6.0000    0    12.011   30.115764   28.856221   39.715480
  18 O     8.0000    0    15.999   28.054938   29.708533   40.979856
  19 C     6.0000    0    12.011   31.439874   30.495136   38.120402
  20 H     1.0000    0     1.008   29.613874   26.372186   34.528416
  21 H     1.0000    0     1.008   26.938646   26.993595   32.613884
  22 H     1.0000    0     1.008   28.822287   29.543932   33.692276
  23 H     1.0000    0     1.008   30.473509   25.390023   29.992430
  24 H     1.0000    0     1.008   29.733296   28.530176   29.111018
  25 H     1.0000    0     1.008   30.091326   34.411678   29.375173
  26 H     1.0000    0     1.008   32.880672   36.073125   28.587494
  27 H     1.0000    0     1.008   30.556430   37.510839   30.529595
  28 H     1.0000    0     1.008   32.382983   38.099200   34.186274
  29 H     1.0000    0     1.008   36.931628   33.469893   38.142058
  30 H     1.0000    0     1.008   36.837506   30.467860   34.570795
  31 H     1.0000    0     1.008   36.007518   26.428066   36.066771
  32 H     1.0000    0     1.008   33.664543   23.519647   38.907137
  33 H     1.0000    0     1.008   29.875973   25.077671   41.247169
  34 H     1.0000    0     1.008   27.468048   28.349754   42.058063
  35 H     1.0000    0     1.008   30.807680   32.436828   37.943520

--------------------------------
INTERNAL COORDINATES (ANGSTROEM)
--------------------------------
 C      0   0   0     0.000000000000     0.00000000     0.00000000
 C      1   0   0     1.536287626231     0.00000000     0.00000000
 O      2   1   0     1.444383900515   110.71959121     0.00000000
 C      3   2   1     1.364023724181   117.48178099   259.23872143
 O      4   3   2     1.218739724765   119.03328944   304.78343779
 C      4   3   2     1.501410651478   112.05693856    96.41771453
 C      6   4   3     1.356851811033   122.75042642   223.60088487
 C      7   6   4     1.513387897873   127.32508519     8.44638612
 N      7   6   4     1.398086702936   119.86203108   190.74290516
 C      9   7   6     1.370331886607   124.29600452    12.54190137
 S     10   9   7     1.653754361585   121.99280069   171.84848075
 N     10   9   7     1.372854966561   116.36317537   352.05302477
 C     12  10   9     1.475888469685   124.55442709   349.10527757
 C     13  12  10     1.526003395399   109.36717128   254.66924492
 C     14  13  12     1.408035872854   120.17322533   236.08296897
 C     15  14  13     1.405219153336   120.66555163   177.50609772
 C     16  15  14     1.405285981688   119.65690355   359.85495959
 C     17  16  15     1.401513987556   119.88856203   359.90234334
 O     18  17  16     1.356602817581   120.04340805   179.84250148
 C     18  17  16     1.398428671403   120.33352615   359.95991990
 H      1   2   3     1.095409193975   110.71241567   301.67845493
 H      1   2   3     1.096543478704   110.31061168   182.37927450
 H      1   2   3     1.095966986733   110.87406553    62.96712704
 H      2   1   3     1.097570274521   108.33163353   119.02921896
 H      2   1   3     1.098808580776   110.14630144   236.19662374
 H      8   7   6     1.097077091553   110.74799087    45.66317851
 H      8   7   6     1.097699897572   110.42701487   286.92770045
 H      8   7   6     1.096268470333   112.82853950   166.04716515
 H      9   7   6     1.007586314506   119.61397302   183.05969436
 H     12  10   9     1.012075760143   114.62391219   181.70856822
 H     13  12  10     1.099038553475   107.09658657   138.43328511
 H     15  14  13     1.086845267521   119.94239319   357.28752860
 H     16  15  14     1.088697624990   119.99993976   179.83499025
 H     17  16  15     1.085066978451   119.91958251   179.92587262
 H     19  18  17     0.969022667385   107.53822340     3.75594168
 H     20  18  17     1.084636094484   119.01599375   180.78096157

---------------------------
INTERNAL COORDINATES (A.U.)
---------------------------
 C      0   0   0     0.000000000000     0.00000000     0.00000000
 C      1   0   0     2.903162876508     0.00000000     0.00000000
 O      2   1   0     2.729490004219   110.71959121     0.00000000
 C      3   2   1     2.577631278874   117.48178099   259.23872143
 O      4   3   2     2.303084308337   119.03328944   304.78343779
 C      4   3   2     2.837254945845   112.05693856    96.41771453
 C      6   4   3     2.564078327168   122.75042642   223.60088487
 C      7   6   4     2.859888661371   127.32508519     8.44638612
 N      7   6   4     2.642000980026   119.86203108   190.74290516
 C      9   7   6     2.589551978267   124.29600452    12.54190137
 S     10   9   7     3.125142836174   121.99280069   171.84848075
 N     10   9   7     2.594319908394   116.36317537   352.05302477
 C     12  10   9     2.789025011916   124.55442709   349.10527757
 C     13  12  10     2.883728496739   109.36717128   254.66924492
 C     14  13  12     2.660802186430   120.17322533   236.08296897
 C     15  14  13     2.655479357945   120.66555163   177.50609772
 C     16  15  14     2.655605645228   119.65690355   359.85495959
 C     17  16  15     2.648477609341   119.88856203   359.90234334
 O     18  17  16     2.563607797734   120.04340805   179.84250148
 C     18  17  16     2.642647206775   120.33352615   359.95991990
 H      1   2   3     2.070023381192   110.71241567   301.67845493
 H      1   2   3     2.072166868687   110.31061168   182.37927450
 H      1   2   3     2.071077456744   110.87406553    62.96712704
 H      2   1   3     2.074107231578   108.33163353   119.02921896
 H      2   1   3     2.076447291270   110.14630144   236.19662374
 H      8   7   6     2.073175250834   110.74799087    45.66317851
 H      8   7   6     2.074352183645   110.42701487   286.92770045
 H      8   7   6     2.071647178182   112.82853950   166.04716515
 H      9   7   6     1.904062190704   119.61397302   183.05969436
 H     12  10   9     1.912546013450   114.62391219   181.70856822
 H     13  12  10     2.076881876689   107.09658657   138.43328511
 H     15  14  13     2.053839905563   119.94239319   357.28752860
 H     16  15  14     2.057340353881   119.99993976   179.83499025
 H     17  16  15     2.050479426234   119.91958251   179.92587262
 H     19  18  17     1.831187458919   107.53822340     3.75594168
 H     20  18  17     2.049665173541   119.01599375   180.78096157

---------------------
BASIS SET INFORMATION
---------------------
There are 5 groups of distinct atoms

 Group   1 Type C   : 18s5p2d1f contracted to 4s3p2d1f pattern {8811/311/11/1}
 Group   2 Type O   : 18s5p2d1f contracted to 4s3p2d1f pattern {8811/311/11/1}
 Group   3 Type N   : 18s5p2d1f contracted to 4s3p2d1f pattern {8811/311/11/1}
 Group   4 Type S   : 41s16p2d1f contracted to 5s4p2d1f pattern {13131311/7711/11/1}
 Group   5 Type H   : 5s2p1d contracted to 3s2p1d pattern {311/11/1}

Atom   0C    basis set group =>   1
Atom   1C    basis set group =>   1
Atom   2O    basis set group =>   2
Atom   3C    basis set group =>   1
Atom   4O    basis set group =>   2
Atom   5C    basis set group =>   1
Atom   6C    basis set group =>   1
Atom   7C    basis set group =>   1
Atom   8N    basis set group =>   3
Atom   9C    basis set group =>   1
Atom  10S    basis set group =>   4
Atom  11N    basis set group =>   3
Atom  12C    basis set group =>   1
Atom  13C    basis set group =>   1
Atom  14C    basis set group =>   1
Atom  15C    basis set group =>   1
Atom  16C    basis set group =>   1
Atom  17C    basis set group =>   1
Atom  18O    basis set group =>   2
Atom  19C    basis set group =>   1
Atom  20H    basis set group =>   5
Atom  21H    basis set group =>   5
Atom  22H    basis set group =>   5
Atom  23H    basis set group =>   5
Atom  24H    basis set group =>   5
Atom  25H    basis set group =>   5
Atom  26H    basis set group =>   5
Atom  27H    basis set group =>   5
Atom  28H    basis set group =>   5
Atom  29H    basis set group =>   5
Atom  30H    basis set group =>   5
Atom  31H    basis set group =>   5
Atom  32H    basis set group =>   5
Atom  33H    basis set group =>   5
Atom  34H    basis set group =>   5
Atom  35H    basis set group =>   5
---------------------------------
AUXILIARY/C BASIS SET INFORMATION
---------------------------------
There are 5 groups of distinct atoms

 Group   1 Type C   : 8s6p5d3f1g contracted to 8s6p5d3f1g pattern {11111111/111111/11111/111/1}
 Group   2 Type O   : 8s6p5d3f1g contracted to 8s6p5d3f1g pattern {11111111/111111/11111/111/1}
 Group   3 Type N   : 8s6p5d3f1g contracted to 8s6p5d3f1g pattern {11111111/111111/11111/111/1}
 Group   4 Type S   : 10s8p7d5f2g contracted to 10s8p7d5f2g pattern {1111111111/11111111/1111111/11111/11}
 Group   5 Type H   : 4s3p2d1f contracted to 4s3p2d1f pattern {1111/111/11/1}

Atom   0C    basis set group =>   1
Atom   1C    basis set group =>   1
Atom   2O    basis set group =>   2
Atom   3C    basis set group =>   1
Atom   4O    basis set group =>   2
Atom   5C    basis set group =>   1
Atom   6C    basis set group =>   1
Atom   7C    basis set group =>   1
Atom   8N    basis set group =>   3
Atom   9C    basis set group =>   1
Atom  10S    basis set group =>   4
Atom  11N    basis set group =>   3
Atom  12C    basis set group =>   1
Atom  13C    basis set group =>   1
Atom  14C    basis set group =>   1
Atom  15C    basis set group =>   1
Atom  16C    basis set group =>   1
Atom  17C    basis set group =>   1
Atom  18O    basis set group =>   2
Atom  19C    basis set group =>   1
Atom  20H    basis set group =>   5
Atom  21H    basis set group =>   5
Atom  22H    basis set group =>   5
Atom  23H    basis set group =>   5
Atom  24H    basis set group =>   5
Atom  25H    basis set group =>   5
Atom  26H    basis set group =>   5
Atom  27H    basis set group =>   5
Atom  28H    basis set group =>   5
Atom  29H    basis set group =>   5
Atom  30H    basis set group =>   5
Atom  31H    basis set group =>   5
Atom  32H    basis set group =>   5
Atom  33H    basis set group =>   5
Atom  34H    basis set group =>   5
Atom  35H    basis set group =>   5
------------------------------------------------------------------------------
                           ORCA GTO INTEGRAL CALCULATION
------------------------------------------------------------------------------
------------------------------------------------------------------------------
                   ___                                                        
                  /   \      - P O W E R E D   B Y -                         
                 /     \                                                     
                 |  |  |   _    _      __       _____    __    __             
                 |  |  |  | |  | |    /  \     |  _  \  |  |  /  |          
                  \  \/   | |  | |   /    \    | | | |  |  | /  /          
                 / \  \   | |__| |  /  /\  \   | |_| |  |  |/  /          
                |  |  |   |  __  | /  /__\  \  |    /   |      \           
                |  |  |   | |  | | |   __   |  |    \   |  |\   \          
                \     /   | |  | | |  |  |  |  | |\  \  |  | \   \       
                 \___/    |_|  |_| |__|  |__|  |_| \__\ |__|  \__/        
                                                                              
                      - O R C A' S   B I G   F R I E N D -                    
                                      &                                       
                       - I N T E G R A L  F E E D E R -                       
                                                                              
 v1 FN, 2020, v2 2021                                                         
------------------------------------------------------------------------------


Reading SHARK input file CONFS/Conf209.orca.SHARKINP.tmp ... ok
----------------------
SHARK INTEGRAL PACKAGE
----------------------

Number of atoms                             ...     36
Number of basis functions                   ...    828
Number of shells                            ...    298
Maximum angular momentum                    ...      3
Integral batch strategy                     ... SHARK/LIBINT Hybrid
RI-J (if used) integral strategy            ... SPLIT-RIJ (Revised 2003 algorithm where possible)
Printlevel                                  ...      1
Contraction scheme used                     ... SEGMENTED contraction
Coulomb Range Separation                    ... NOT USED
Exchange Range Separation                   ... NOT USED
Finite Nucleus Model                        ... NOT USED
Auxiliary Coulomb fitting basis             ... NOT available
Auxiliary J/K fitting basis                 ... NOT available
Auxiliary Correlation fitting basis         ... AVAILABLE
   # of basis functions in Aux-C            ...   2141
   # of shells in Aux-C                     ...    629
   Maximum angular momentum in Aux-C        ...      4
Auxiliary 'external' fitting basis          ... NOT available
Integral threshold                          ...     2.500000e-11
Primitive cut-off                           ...     2.500000e-12
Primitive pair pre-selection threshold      ...     2.500000e-12

Calculating pre-screening integrals         ... done (  0.8 sec) Dimension = 298
Organizing shell pair data                  ... done (  1.4 sec)
Shell pair information
Total number of shell pairs                 ...     44551
Shell pairs after pre-screening             ...     34704
Total number of primitive shell pairs       ...    234348
Primitive shell pairs kept                  ...     99306
          la=0 lb=0:   6897 shell pairs
          la=1 lb=0:   9625 shell pairs
          la=1 lb=1:   3401 shell pairs
          la=2 lb=0:   5541 shell pairs
          la=2 lb=1:   3816 shell pairs
          la=2 lb=2:   1093 shell pairs
          la=3 lb=0:   2005 shell pairs
          la=3 lb=1:   1389 shell pairs
          la=3 lb=2:    785 shell pairs
          la=3 lb=3:    152 shell pairs

Calculating one electron integrals          ... done (  0.3 sec)
Calculating RI/C V-Matrix + Cholesky decomp.... done (  1.5 sec)
Calculating Nuclear repulsion               ... done (  0.0 sec) ENN=   1735.048593428294 Eh

SHARK setup successfully completed in   4.8 seconds

Maximum memory used throughout the entire GTOINT-calculation: 517.5 MB
-------------------------------------------------------------------------------
                                 ORCA SCF
-------------------------------------------------------------------------------

------------
SCF SETTINGS
------------
Hamiltonian:
 Ab initio Hamiltonian  Method          .... Hartree-Fock(GTOs)


General Settings:
 Integral files         IntName         .... CONFS/Conf209.orca
 Hartree-Fock type      HFTyp           .... RHF
 Total Charge           Charge          ....    0
 Multiplicity           Mult            ....    1
 Number of Electrons    NEL             ....  154
 Basis Dimension        Dim             ....  828
 Nuclear Repulsion      ENuc            ....   1735.0485934283 Eh

Convergence Acceleration:
 DIIS                   CNVDIIS         .... on
   Start iteration      DIISMaxIt       ....    12
   Startup error        DIISStart       ....  0.200000
   # of expansion vecs  DIISMaxEq       ....     5
   Bias factor          DIISBfac        ....   1.050
   Max. coefficient     DIISMaxC        ....  10.000
 Trust-Rad. Augm. Hess. CNVTRAH         .... auto
   Auto Start mean grad. ratio tolernc. ....  1.125000
   Auto Start start iteration           ....    20
   Auto Start num. interpolation iter.  ....    10
   Max. Number of Micro iterations      ....    16
   Max. Number of Macro iterations      .... Maxiter - #DIIS iter
   Number of Davidson start vectors     ....     2
   Converg. threshold I  (grad. norm)   ....   1.000e-05
   Converg. threshold II (energy diff.) ....   1.000e-08
   Grad. Scal. Fac. for Micro threshold ....   0.100
   Minimum threshold for Micro iter.    ....   0.010
   NR start threshold (gradient norm)   ....   0.001
   Initial trust radius                 ....   0.400
   Minimum AH scaling param. (alpha)    ....   1.000
   Maximum AH scaling param. (alpha)    .... 1000.000
   Orbital update algorithm             .... Taylor
   White noise on init. David. guess    .... on
   Maximum white noise                  ....   0.010
   Quad. conv. algorithm                .... NR
 SOSCF                  CNVSOSCF        .... on
   Start iteration      SOSCFMaxIt      ....   150
   Startup grad/error   SOSCFStart      ....  0.003300
 Level Shifting         CNVShift        .... on
   Level shift para.    LevelShift      ....    0.2500
   Turn off err/grad.   ShiftErr        ....    0.0010
 Zerner damping         CNVZerner       .... off
 Static damping         CNVDamp         .... on
   Fraction old density DampFac         ....    0.7000
   Max. Damping (<1)    DampMax         ....    0.9800
   Min. Damping (>=0)   DampMin         ....    0.0000
   Turn off err/grad.   DampErr         ....    0.1000
 Fernandez-Rico         CNVRico         .... off

SCF Procedure:
 Maximum # iterations   MaxIter         ....   125
 SCF integral mode      SCFMode         .... Direct
   Integral package                     .... SHARK and LIBINT hybrid scheme
 Reset frequency        DirectResetFreq ....    20
 Integral Threshold     Thresh          ....  2.500e-11 Eh
 Primitive CutOff       TCut            ....  2.500e-12 Eh

Convergence Tolerance:
 Convergence Check Mode ConvCheckMode   .... Total+1el-Energy
 Convergence forced     ConvForced      .... 1
 Energy Change          TolE            ....  1.000e-08 Eh
 1-El. energy change                    ....  1.000e-05 Eh
 Orbital Gradient       TolG            ....  1.000e-05
 Orbital Rotation angle TolX            ....  1.000e-05
 DIIS Error             TolErr          ....  5.000e-07


Diagonalization of the overlap matrix:
Smallest eigenvalue                        ... 3.161e-05
Time for diagonalization                   ...    0.108 sec
Threshold for overlap eigenvalues          ... 1.000e-08
Number of eigenvalues below threshold      ... 0
Time for construction of square roots      ...    0.124 sec
Total time needed                          ...    0.233 sec

Time for model grid setup =    1.404 sec

------------------------------
INITIAL GUESS: MODEL POTENTIAL
------------------------------
Loading Hartree-Fock densities                     ... done
Calculating cut-offs                               ... done
Initializing the effective Hamiltonian             ... done
Setting up the integral package (SHARK)            ... done
Starting the Coulomb interaction                   ... done (   3.9 sec)
Reading the grid                                   ... done
Mapping shells                                     ... done
Starting the XC term evaluation                    ... done (   1.3 sec)
Transforming the Hamiltonian                       ... done (   0.1 sec)
Diagonalizing the Hamiltonian                      ... done (   0.1 sec)
Back transforming the eigenvectors                 ... done (   0.0 sec)
Now organizing SCF variables                       ... done
                      ------------------
                      INITIAL GUESS DONE (   7.4 sec)
                      ------------------
--------------
SCF ITERATIONS
--------------
ITER       Energy         Delta-E        Max-DP      RMS-DP      [F,P]     Damp
               ***  Starting incremental Fock matrix formation  ***
  0  -1269.9772953608   0.000000000000 0.04936149  0.00043435  0.3233080 0.7000
  1  -1270.2464124307  -0.269117069897 0.03610618  0.00034937  0.1950804 0.7000
                               ***Turning on DIIS***
  2  -1270.4136047240  -0.167192293328 0.02585145  0.00023485  0.1104136 0.7000
  3  -1272.5566123651  -2.143007641109 0.06314786  0.00050987  0.0827702 0.0000
  4  -1270.7235166237   1.833095741395 0.00719067  0.00009605  0.0070195 0.0000
  5  -1270.7821821214  -0.058665497643 0.00335121  0.00005048  0.0050917 0.0000
  6  -1270.7615744802   0.020607641198 0.00193839  0.00002668  0.0038362 0.0000
                      *** Initiating the SOSCF procedure ***
                           *** Shutting down DIIS ***
                      *** Re-Reading the Fockian *** 
                      *** Removing any level shift *** 
ITER      Energy       Delta-E        Grad      Rot      Max-DP    RMS-DP
  7  -1270.77662586  -0.0150513828  0.001276  0.001276  0.001106  0.000014
               *** Restarting incremental Fock matrix formation ***
  8  -1270.77671646  -0.0000905958  0.000688  0.001781  0.000718  0.000009
  9  -1270.77673342  -0.0000169568  0.000326  0.002146  0.000927  0.000011
 10  -1270.77674051  -0.0000070987  0.000098  0.000131  0.000224  0.000002
 11  -1270.77674126  -0.0000007479  0.000035  0.000071  0.000070  0.000001
 12  -1270.77674140  -0.0000001411  0.000013  0.000052  0.000033  0.000000
 13  -1270.77674142  -0.0000000183  0.000009  0.000041  0.000021  0.000000
                  ***Gradient check signals convergence***
              ***Rediagonalizing the Fockian in SOSCF/NRSCF***

               *****************************************************
               *                     SUCCESS                       *
               *           SCF CONVERGED AFTER  14 CYCLES          *
               *****************************************************


----------------
TOTAL SCF ENERGY
----------------

Total Energy       :        -1270.77674143 Eh          -34579.59313 eV

Components:
Nuclear Repulsion  :         1735.04859343 Eh           47213.07249 eV
Electronic Energy  :        -3005.82533486 Eh          -81792.66562 eV
One Electron Energy:        -5191.16485700 Eh         -141258.77722 eV
Two Electron Energy:         2185.33952214 Eh           59466.11160 eV

Virial components:
Potential Energy   :        -2539.81587717 Eh          -69111.90360 eV
Kinetic Energy     :         1269.03913574 Eh           34532.31047 eV
Virial Ratio       :            2.00136923


---------------
SCF CONVERGENCE
---------------

  Last Energy change         ...   -8.5079e-09  Tolerance :   1.0000e-08
  Last MAX-Density change    ...    3.3870e-06  Tolerance :   1.0000e-07
  Last RMS-Density change    ...    5.1835e-08  Tolerance :   5.0000e-09
  Last Orbital Gradient      ...    2.4514e-06  Tolerance :   1.0000e-05
  Last Orbital Rotation      ...    7.3562e-06  Tolerance :   1.0000e-05

             **** THE GBW FILE WAS UPDATED (CONFS/Conf209.orca.gbw) ****
             **** DENSITY CONFS/Conf209.orca.scfp WAS UPDATED ****
             **** ENERGY FILE WAS UPDATED (CONFS/Conf209.orca.en.tmp) ****
             **** THE GBW FILE WAS UPDATED (CONFS/Conf209.orca.gbw) ****
             **** DENSITY CONFS/Conf209.orca.scfp WAS UPDATED ****
----------------
ORBITAL ENERGIES
----------------

  NO   OCC          E(Eh)            E(eV) 
   0   2.0000     -91.890313     -2500.4625 
   1   2.0000     -20.597883      -560.4969 
   2   2.0000     -20.582018      -560.0652 
   3   2.0000     -20.556908      -559.3819 
   4   2.0000     -15.629325      -425.2956 
   5   2.0000     -15.609437      -424.7544 
   6   2.0000     -11.395322      -310.0825 
   7   2.0000     -11.385003      -309.8017 
   8   2.0000     -11.334191      -308.4190 
   9   2.0000     -11.314857      -307.8929 
  10   2.0000     -11.313547      -307.8573 
  11   2.0000     -11.297784      -307.4283 
  12   2.0000     -11.261280      -306.4350 
  13   2.0000     -11.261088      -306.4298 
  14   2.0000     -11.256178      -306.2962 
  15   2.0000     -11.254989      -306.2638 
  16   2.0000     -11.244807      -305.9868 
  17   2.0000     -11.239481      -305.8418 
  18   2.0000     -11.239394      -305.8395 
  19   2.0000     -11.220720      -305.3313 
  20   2.0000      -8.895343      -242.0546 
  21   2.0000      -6.576913      -178.9669 
  22   2.0000      -6.574914      -178.9125 
  23   2.0000      -6.574321      -178.8964 
  24   2.0000      -1.452086       -39.5133 
  25   2.0000      -1.417642       -38.5760 
  26   2.0000      -1.354030       -36.8450 
  27   2.0000      -1.341007       -36.4907 
  28   2.0000      -1.239668       -33.7331 
  29   2.0000      -1.158351       -31.5203 
  30   2.0000      -1.121094       -30.5065 
  31   2.0000      -1.044049       -28.4100 
  32   2.0000      -1.033388       -28.1199 
  33   2.0000      -1.016564       -27.6621 
  34   2.0000      -0.999435       -27.1960 
  35   2.0000      -0.986044       -26.8316 
  36   2.0000      -0.924769       -25.1642 
  37   2.0000      -0.887684       -24.1551 
  38   2.0000      -0.847671       -23.0663 
  39   2.0000      -0.840826       -22.8800 
  40   2.0000      -0.835592       -22.7376 
  41   2.0000      -0.820020       -22.3139 
  42   2.0000      -0.757887       -20.6232 
  43   2.0000      -0.733369       -19.9560 
  44   2.0000      -0.724926       -19.7262 
  45   2.0000      -0.697396       -18.9771 
  46   2.0000      -0.690324       -18.7847 
  47   2.0000      -0.681075       -18.5330 
  48   2.0000      -0.671493       -18.2723 
  49   2.0000      -0.666274       -18.1302 
  50   2.0000      -0.649858       -17.6835 
  51   2.0000      -0.646780       -17.5998 
  52   2.0000      -0.636356       -17.3161 
  53   2.0000      -0.608146       -16.5485 
  54   2.0000      -0.602581       -16.3971 
  55   2.0000      -0.600736       -16.3469 
  56   2.0000      -0.586930       -15.9712 
  57   2.0000      -0.579702       -15.7745 
  58   2.0000      -0.576787       -15.6952 
  59   2.0000      -0.571516       -15.5517 
  60   2.0000      -0.564486       -15.3604 
  61   2.0000      -0.550470       -14.9791 
  62   2.0000      -0.539948       -14.6927 
  63   2.0000      -0.525488       -14.2993 
  64   2.0000      -0.514871       -14.0103 
  65   2.0000      -0.513596       -13.9757 
  66   2.0000      -0.505117       -13.7449 
  67   2.0000      -0.502303       -13.6684 
  68   2.0000      -0.477307       -12.9882 
  69   2.0000      -0.463965       -12.6251 
  70   2.0000      -0.453745       -12.3470 
  71   2.0000      -0.447779       -12.1847 
  72   2.0000      -0.357130        -9.7180 
  73   2.0000      -0.348570        -9.4851 
  74   2.0000      -0.329422        -8.9640 
  75   2.0000      -0.323327        -8.7982 
  76   2.0000      -0.317292        -8.6340 
  77   0.0000       0.069201         1.8831 
  78   0.0000       0.103724         2.8225 
  79   0.0000       0.115607         3.1458 
  80   0.0000       0.129927         3.5355 
  81   0.0000       0.131173         3.5694 
  82   0.0000       0.142891         3.8883 
  83   0.0000       0.146096         3.9755 
  84   0.0000       0.148314         4.0358 
  85   0.0000       0.159282         4.3343 
  86   0.0000       0.174064         4.7365 
  87   0.0000       0.177145         4.8204 
  88   0.0000       0.184252         5.0137 
  89   0.0000       0.190023         5.1708 
  90   0.0000       0.201153         5.4737 
  91   0.0000       0.203401         5.5348 
  92   0.0000       0.219836         5.9821 
  93   0.0000       0.222705         6.0601 
  94   0.0000       0.227634         6.1942 
  95   0.0000       0.231908         6.3105 
  96   0.0000       0.244740         6.6597 
  97   0.0000       0.260639         7.0923 
  98   0.0000       0.271839         7.3971 
  99   0.0000       0.291072         7.9205 
 100   0.0000       0.297452         8.0941 
 101   0.0000       0.306839         8.3495 
 102   0.0000       0.312136         8.4936 
 103   0.0000       0.314893         8.5687 
 104   0.0000       0.316723         8.6185 
 105   0.0000       0.335232         9.1221 
 106   0.0000       0.338591         9.2135 
 107   0.0000       0.344976         9.3873 
 108   0.0000       0.363225         9.8839 
 109   0.0000       0.365902         9.9567 
 110   0.0000       0.372562        10.1379 
 111   0.0000       0.377749        10.2791 
 112   0.0000       0.384523        10.4634 
 113   0.0000       0.388021        10.5586 
 114   0.0000       0.397616        10.8197 
 115   0.0000       0.410007        11.1568 
 116   0.0000       0.417385        11.3576 
 117   0.0000       0.427437        11.6312 
 118   0.0000       0.430685        11.7195 
 119   0.0000       0.433553        11.7976 
 120   0.0000       0.439190        11.9510 
 121   0.0000       0.446163        12.1407 
 122   0.0000       0.453286        12.3345 
 123   0.0000       0.461600        12.5608 
 124   0.0000       0.463166        12.6034 
 125   0.0000       0.467628        12.7248 
 126   0.0000       0.478975        13.0336 
 127   0.0000       0.490811        13.3556 
 128   0.0000       0.492548        13.4029 
 129   0.0000       0.504533        13.7290 
 130   0.0000       0.505763        13.7625 
 131   0.0000       0.514265        13.9939 
 132   0.0000       0.517429        14.0799 
 133   0.0000       0.524392        14.2694 
 134   0.0000       0.530515        14.4361 
 135   0.0000       0.533865        14.5272 
 136   0.0000       0.539680        14.6854 
 137   0.0000       0.543250        14.7826 
 138   0.0000       0.545374        14.8404 
 139   0.0000       0.553305        15.0562 
 140   0.0000       0.560412        15.2496 
 141   0.0000       0.561941        15.2912 
 142   0.0000       0.565309        15.3828 
 143   0.0000       0.568984        15.4828 
 144   0.0000       0.577052        15.7024 
 145   0.0000       0.586789        15.9673 
 146   0.0000       0.593615        16.1531 
 147   0.0000       0.596229        16.2242 
 148   0.0000       0.598196        16.2777 
 149   0.0000       0.603737        16.4285 
 150   0.0000       0.606164        16.4946 
 151   0.0000       0.608838        16.5673 
 152   0.0000       0.613634        16.6978 
 153   0.0000       0.618622        16.8335 
 154   0.0000       0.624747        17.0002 
 155   0.0000       0.625567        17.0225 
 156   0.0000       0.628170        17.0934 
 157   0.0000       0.630676        17.1616 
 158   0.0000       0.636440        17.3184 
 159   0.0000       0.644763        17.5449 
 160   0.0000       0.651124        17.7180 
 161   0.0000       0.655664        17.8415 
 162   0.0000       0.664549        18.0833 
 163   0.0000       0.668064        18.1790 
 164   0.0000       0.669084        18.2067 
 165   0.0000       0.673069        18.3151 
 166   0.0000       0.683178        18.5902 
 167   0.0000       0.693819        18.8798 
 168   0.0000       0.697097        18.9690 
 169   0.0000       0.701935        19.1006 
 170   0.0000       0.706457        19.2237 
 171   0.0000       0.710013        19.3204 
 172   0.0000       0.718947        19.5635 
 173   0.0000       0.725210        19.7340 
 174   0.0000       0.733753        19.9664 
 175   0.0000       0.738256        20.0890 
 176   0.0000       0.745760        20.2931 
 177   0.0000       0.751363        20.4456 
 178   0.0000       0.756566        20.5872 
 179   0.0000       0.759657        20.6713 
 180   0.0000       0.762184        20.7401 
 181   0.0000       0.776601        21.1324 
 182   0.0000       0.783896        21.3309 
 183   0.0000       0.797012        21.6878 
 184   0.0000       0.801527        21.8106 
 185   0.0000       0.816873        22.2282 
 186   0.0000       0.820378        22.3236 
 187   0.0000       0.827533        22.5183 
 188   0.0000       0.834800        22.7161 
 189   0.0000       0.842770        22.9329 
 190   0.0000       0.845146        22.9976 
 191   0.0000       0.855073        23.2677 
 192   0.0000       0.858881        23.3714 
 193   0.0000       0.863016        23.4839 
 194   0.0000       0.880957        23.9721 
 195   0.0000       0.887040        24.1376 
 196   0.0000       0.895493        24.3676 
 197   0.0000       0.898045        24.4370 
 198   0.0000       0.904715        24.6185 
 199   0.0000       0.910251        24.7692 
 200   0.0000       0.916750        24.9460 
 201   0.0000       0.926514        25.2117 
 202   0.0000       0.932726        25.3808 
 203   0.0000       0.940721        25.5983 
 204   0.0000       0.947471        25.7820 
 205   0.0000       0.954455        25.9720 
 206   0.0000       0.958998        26.0957 
 207   0.0000       0.970151        26.3992 
 208   0.0000       0.972456        26.4619 
 209   0.0000       0.985955        26.8292 
 210   0.0000       0.992604        27.0101 
 211   0.0000       0.997372        27.1399 
 212   0.0000       1.001245        27.2453 
 213   0.0000       1.010670        27.5017 
 214   0.0000       1.016884        27.6708 
 215   0.0000       1.020168        27.7602 
 216   0.0000       1.024230        27.8707 
 217   0.0000       1.035601        28.1801 
 218   0.0000       1.043247        28.3882 
 219   0.0000       1.047653        28.5081 
 220   0.0000       1.061327        28.8802 
 221   0.0000       1.068428        29.0734 
 222   0.0000       1.071992        29.1704 
 223   0.0000       1.082547        29.4576 
 224   0.0000       1.088045        29.6072 
 225   0.0000       1.101195        29.9650 
 226   0.0000       1.106349        30.1053 
 227   0.0000       1.119106        30.4524 
 228   0.0000       1.133570        30.8460 
 229   0.0000       1.136590        30.9282 
 230   0.0000       1.141603        31.0646 
 231   0.0000       1.147810        31.2335 
 232   0.0000       1.151409        31.3314 
 233   0.0000       1.162597        31.6359 
 234   0.0000       1.163128        31.6503 
 235   0.0000       1.174270        31.9535 
 236   0.0000       1.179832        32.1049 
 237   0.0000       1.180612        32.1261 
 238   0.0000       1.187081        32.3021 
 239   0.0000       1.189497        32.3679 
 240   0.0000       1.196999        32.5720 
 241   0.0000       1.202072        32.7101 
 242   0.0000       1.211847        32.9760 
 243   0.0000       1.216867        33.1126 
 244   0.0000       1.219839        33.1935 
 245   0.0000       1.231236        33.5036 
 246   0.0000       1.242090        33.7990 
 247   0.0000       1.247745        33.9529 
 248   0.0000       1.258395        34.2427 
 249   0.0000       1.266297        34.4577 
 250   0.0000       1.274033        34.6682 
 251   0.0000       1.277723        34.7686 
 252   0.0000       1.289887        35.0996 
 253   0.0000       1.298431        35.3321 
 254   0.0000       1.307563        35.5806 
 255   0.0000       1.312575        35.7170 
 256   0.0000       1.322227        35.9796 
 257   0.0000       1.329765        36.1847 
 258   0.0000       1.338390        36.4194 
 259   0.0000       1.351725        36.7823 
 260   0.0000       1.354319        36.8529 
 261   0.0000       1.362605        37.0784 
 262   0.0000       1.371638        37.3242 
 263   0.0000       1.375582        37.4315 
 264   0.0000       1.377909        37.4948 
 265   0.0000       1.391600        37.8674 
 266   0.0000       1.398622        38.0584 
 267   0.0000       1.409807        38.3628 
 268   0.0000       1.417532        38.5730 
 269   0.0000       1.424623        38.7660 
 270   0.0000       1.436487        39.0888 
 271   0.0000       1.441835        39.2343 
 272   0.0000       1.443798        39.2877 
 273   0.0000       1.456804        39.6416 
 274   0.0000       1.458627        39.6913 
 275   0.0000       1.465447        39.8768 
 276   0.0000       1.469184        39.9785 
 277   0.0000       1.476455        40.1764 
 278   0.0000       1.480114        40.2759 
 279   0.0000       1.486574        40.4517 
 280   0.0000       1.495316        40.6896 
 281   0.0000       1.500229        40.8233 
 282   0.0000       1.512310        41.1520 
 283   0.0000       1.513969        41.1972 
 284   0.0000       1.519137        41.3378 
 285   0.0000       1.520654        41.3791 
 286   0.0000       1.535075        41.7715 
 287   0.0000       1.538150        41.8552 
 288   0.0000       1.550667        42.1958 
 289   0.0000       1.552360        42.2419 
 290   0.0000       1.557361        42.3780 
 291   0.0000       1.569718        42.7142 
 292   0.0000       1.574965        42.8570 
 293   0.0000       1.582242        43.0550 
 294   0.0000       1.595796        43.4238 
 295   0.0000       1.609399        43.7940 
 296   0.0000       1.611638        43.8549 
 297   0.0000       1.620673        44.1008 
 298   0.0000       1.627015        44.2733 
 299   0.0000       1.636529        44.5322 
 300   0.0000       1.641692        44.6727 
 301   0.0000       1.655476        45.0478 
 302   0.0000       1.666358        45.3439 
 303   0.0000       1.675610        45.5957 
 304   0.0000       1.684112        45.8270 
 305   0.0000       1.692940        46.0673 
 306   0.0000       1.697173        46.1824 
 307   0.0000       1.702311        46.3222 
 308   0.0000       1.715231        46.6738 
 309   0.0000       1.717127        46.7254 
 310   0.0000       1.729053        47.0499 
 311   0.0000       1.736257        47.2459 
 312   0.0000       1.746697        47.5300 
 313   0.0000       1.751392        47.6578 
 314   0.0000       1.768236        48.1162 
 315   0.0000       1.782528        48.5050 
 316   0.0000       1.786381        48.6099 
 317   0.0000       1.790207        48.7140 
 318   0.0000       1.816723        49.4355 
 319   0.0000       1.822772        49.6001 
 320   0.0000       1.833456        49.8909 
 321   0.0000       1.837600        50.0037 
 322   0.0000       1.845263        50.2122 
 323   0.0000       1.858101        50.5615 
 324   0.0000       1.871228        50.9187 
 325   0.0000       1.878331        51.1120 
 326   0.0000       1.879951        51.1561 
 327   0.0000       1.899560        51.6896 
 328   0.0000       1.912890        52.0524 
 329   0.0000       1.926814        52.4313 
 330   0.0000       1.932217        52.5783 
 331   0.0000       1.941494        52.8307 
 332   0.0000       1.947872        53.0043 
 333   0.0000       1.954455        53.1834 
 334   0.0000       1.959803        53.3289 
 335   0.0000       1.988492        54.1096 
 336   0.0000       2.002515        54.4912 
 337   0.0000       2.006394        54.5968 
 338   0.0000       2.014817        54.8260 
 339   0.0000       2.023342        55.0579 
 340   0.0000       2.031816        55.2885 
 341   0.0000       2.049525        55.7704 
 342   0.0000       2.052941        55.8634 
 343   0.0000       2.060037        56.0565 
 344   0.0000       2.100498        57.1575 
 345   0.0000       2.118897        57.6581 
 346   0.0000       2.124625        57.8140 
 347   0.0000       2.132152        58.0188 
 348   0.0000       2.155362        58.6504 
 349   0.0000       2.164781        58.9067 
 350   0.0000       2.187549        59.5262 
 351   0.0000       2.204273        59.9813 
 352   0.0000       2.217308        60.3360 
 353   0.0000       2.227086        60.6021 
 354   0.0000       2.237192        60.8771 
 355   0.0000       2.259086        61.4729 
 356   0.0000       2.274049        61.8800 
 357   0.0000       2.290148        62.3181 
 358   0.0000       2.292134        62.3721 
 359   0.0000       2.314841        62.9900 
 360   0.0000       2.321534        63.1722 
 361   0.0000       2.328166        63.3526 
 362   0.0000       2.345810        63.8327 
 363   0.0000       2.356204        64.1156 
 364   0.0000       2.369532        64.4782 
 365   0.0000       2.379475        64.7488 
 366   0.0000       2.385072        64.9011 
 367   0.0000       2.409495        65.5657 
 368   0.0000       2.417730        65.7898 
 369   0.0000       2.423497        65.9467 
 370   0.0000       2.448252        66.6203 
 371   0.0000       2.454132        66.7803 
 372   0.0000       2.481228        67.5176 
 373   0.0000       2.488402        67.7129 
 374   0.0000       2.497996        67.9739 
 375   0.0000       2.513642        68.3997 
 376   0.0000       2.517554        68.5061 
 377   0.0000       2.525971        68.7352 
 378   0.0000       2.547794        69.3290 
 379   0.0000       2.552829        69.4660 
 380   0.0000       2.574742        70.0623 
 381   0.0000       2.592322        70.5407 
 382   0.0000       2.598027        70.6959 
 383   0.0000       2.606992        70.9398 
 384   0.0000       2.619359        71.2764 
 385   0.0000       2.628317        71.5201 
 386   0.0000       2.645018        71.9746 
 387   0.0000       2.647357        72.0382 
 388   0.0000       2.657986        72.3275 
 389   0.0000       2.675899        72.8149 
 390   0.0000       2.678477        72.8851 
 391   0.0000       2.697531        73.4035 
 392   0.0000       2.712630        73.8144 
 393   0.0000       2.727816        74.2276 
 394   0.0000       2.735045        74.4243 
 395   0.0000       2.743826        74.6633 
 396   0.0000       2.762031        75.1587 
 397   0.0000       2.764877        75.2361 
 398   0.0000       2.767925        75.3191 
 399   0.0000       2.777084        75.5683 
 400   0.0000       2.785096        75.7863 
 401   0.0000       2.797362        76.1201 
 402   0.0000       2.815303        76.6083 
 403   0.0000       2.819771        76.7299 
 404   0.0000       2.832259        77.0697 
 405   0.0000       2.839362        77.2630 
 406   0.0000       2.848059        77.4996 
 407   0.0000       2.851382        77.5900 
 408   0.0000       2.863655        77.9240 
 409   0.0000       2.867748        78.0354 
 410   0.0000       2.873084        78.1806 
 411   0.0000       2.888054        78.5879 
 412   0.0000       2.897963        78.8576 
 413   0.0000       2.903206        79.0002 
 414   0.0000       2.923314        79.5474 
 415   0.0000       2.928866        79.6985 
 416   0.0000       2.942451        80.0682 
 417   0.0000       2.950184        80.2786 
 418   0.0000       2.952273        80.3354 
 419   0.0000       2.965142        80.6856 
 420   0.0000       2.969080        80.7928 
 421   0.0000       2.979896        81.0871 
 422   0.0000       2.990969        81.3884 
 423   0.0000       2.997333        81.5616 
 424   0.0000       3.007203        81.8301 
 425   0.0000       3.016150        82.0736 
 426   0.0000       3.019891        82.1754 
 427   0.0000       3.022543        82.2476 
 428   0.0000       3.032194        82.5102 
 429   0.0000       3.049078        82.9696 
 430   0.0000       3.053264        83.0835 
 431   0.0000       3.055372        83.1409 
 432   0.0000       3.063939        83.3740 
 433   0.0000       3.072881        83.6173 
 434   0.0000       3.078032        83.7575 
 435   0.0000       3.089071        84.0579 
 436   0.0000       3.090559        84.0984 
 437   0.0000       3.105545        84.5062 
 438   0.0000       3.109688        84.6189 
 439   0.0000       3.116760        84.8113 
 440   0.0000       3.124426        85.0200 
 441   0.0000       3.130893        85.1959 
 442   0.0000       3.132102        85.2288 
 443   0.0000       3.143818        85.5476 
 444   0.0000       3.152553        85.7853 
 445   0.0000       3.156330        85.8881 
 446   0.0000       3.167356        86.1881 
 447   0.0000       3.169115        86.2360 
 448   0.0000       3.173024        86.3424 
 449   0.0000       3.196217        86.9735 
 450   0.0000       3.201628        87.1207 
 451   0.0000       3.203114        87.1612 
 452   0.0000       3.213457        87.4426 
 453   0.0000       3.225029        87.7575 
 454   0.0000       3.234687        88.0203 
 455   0.0000       3.236312        88.0645 
 456   0.0000       3.242034        88.2202 
 457   0.0000       3.248005        88.3827 
 458   0.0000       3.261419        88.7477 
 459   0.0000       3.265752        88.8656 
 460   0.0000       3.273385        89.0733 
 461   0.0000       3.283632        89.3522 
 462   0.0000       3.292518        89.5940 
 463   0.0000       3.303831        89.9018 
 464   0.0000       3.311247        90.1036 
 465   0.0000       3.317607        90.2767 
 466   0.0000       3.323197        90.4288 
 467   0.0000       3.330574        90.6295 
 468   0.0000       3.332698        90.6873 
 469   0.0000       3.339568        90.8743 
 470   0.0000       3.343839        90.9905 
 471   0.0000       3.355933        91.3196 
 472   0.0000       3.358401        91.3867 
 473   0.0000       3.363940        91.5374 
 474   0.0000       3.366981        91.6202 
 475   0.0000       3.373459        91.7965 
 476   0.0000       3.380718        91.9940 
 477   0.0000       3.392902        92.3256 
 478   0.0000       3.394096        92.3580 
 479   0.0000       3.399780        92.5127 
 480   0.0000       3.405786        92.6761 
 481   0.0000       3.412726        92.8650 
 482   0.0000       3.418952        93.0344 
 483   0.0000       3.422024        93.1180 
 484   0.0000       3.425007        93.1992 
 485   0.0000       3.433183        93.4217 
 486   0.0000       3.436819        93.5206 
 487   0.0000       3.444894        93.7403 
 488   0.0000       3.449529        93.8664 
 489   0.0000       3.454637        94.0055 
 490   0.0000       3.456817        94.0648 
 491   0.0000       3.462049        94.2072 
 492   0.0000       3.469266        94.4035 
 493   0.0000       3.479472        94.6812 
 494   0.0000       3.481222        94.7289 
 495   0.0000       3.487726        94.9058 
 496   0.0000       3.491049        94.9963 
 497   0.0000       3.505827        95.3984 
 498   0.0000       3.516704        95.6944 
 499   0.0000       3.521452        95.8236 
 500   0.0000       3.525297        95.9282 
 501   0.0000       3.530487        96.0694 
 502   0.0000       3.539727        96.3209 
 503   0.0000       3.544710        96.4565 
 504   0.0000       3.553360        96.6918 
 505   0.0000       3.558133        96.8217 
 506   0.0000       3.563652        96.9719 
 507   0.0000       3.579157        97.3938 
 508   0.0000       3.583085        97.5007 
 509   0.0000       3.589708        97.6809 
 510   0.0000       3.596423        97.8636 
 511   0.0000       3.607855        98.1747 
 512   0.0000       3.612676        98.3059 
 513   0.0000       3.613975        98.3413 
 514   0.0000       3.622814        98.5818 
 515   0.0000       3.626630        98.6856 
 516   0.0000       3.634784        98.9075 
 517   0.0000       3.636912        98.9654 
 518   0.0000       3.640863        99.0729 
 519   0.0000       3.651117        99.3519 
 520   0.0000       3.653295        99.4112 
 521   0.0000       3.655832        99.4802 
 522   0.0000       3.669904        99.8632 
 523   0.0000       3.676870       100.0527 
 524   0.0000       3.679589       100.1267 
 525   0.0000       3.690318       100.4187 
 526   0.0000       3.697675       100.6188 
 527   0.0000       3.699039       100.6560 
 528   0.0000       3.711761       101.0021 
 529   0.0000       3.715295       101.0983 
 530   0.0000       3.721542       101.2683 
 531   0.0000       3.729390       101.4819 
 532   0.0000       3.743692       101.8710 
 533   0.0000       3.746436       101.9457 
 534   0.0000       3.753063       102.1260 
 535   0.0000       3.759482       102.3007 
 536   0.0000       3.764463       102.4362 
 537   0.0000       3.769187       102.5648 
 538   0.0000       3.774174       102.7005 
 539   0.0000       3.790481       103.1442 
 540   0.0000       3.795730       103.2871 
 541   0.0000       3.797906       103.3463 
 542   0.0000       3.810042       103.6765 
 543   0.0000       3.815272       103.8188 
 544   0.0000       3.821214       103.9805 
 545   0.0000       3.823914       104.0540 
 546   0.0000       3.830914       104.2445 
 547   0.0000       3.842510       104.5600 
 548   0.0000       3.849553       104.7517 
 549   0.0000       3.857830       104.9769 
 550   0.0000       3.864433       105.1566 
 551   0.0000       3.869320       105.2895 
 552   0.0000       3.878707       105.5450 
 553   0.0000       3.885615       105.7329 
 554   0.0000       3.900225       106.1305 
 555   0.0000       3.914372       106.5155 
 556   0.0000       3.917765       106.6078 
 557   0.0000       3.918979       106.6408 
 558   0.0000       3.929168       106.9181 
 559   0.0000       3.940640       107.2303 
 560   0.0000       3.946127       107.3796 
 561   0.0000       3.956297       107.6563 
 562   0.0000       3.962827       107.8340 
 563   0.0000       3.972141       108.0874 
 564   0.0000       3.988446       108.5311 
 565   0.0000       3.995828       108.7320 
 566   0.0000       4.003629       108.9443 
 567   0.0000       4.005889       109.0058 
 568   0.0000       4.013188       109.2044 
 569   0.0000       4.026390       109.5636 
 570   0.0000       4.036012       109.8255 
 571   0.0000       4.038339       109.8888 
 572   0.0000       4.044313       110.0513 
 573   0.0000       4.053537       110.3024 
 574   0.0000       4.064951       110.6129 
 575   0.0000       4.073273       110.8394 
 576   0.0000       4.078553       110.9831 
 577   0.0000       4.084241       111.1378 
 578   0.0000       4.101890       111.6181 
 579   0.0000       4.104886       111.6996 
 580   0.0000       4.117238       112.0358 
 581   0.0000       4.132903       112.4620 
 582   0.0000       4.140392       112.6658 
 583   0.0000       4.153236       113.0153 
 584   0.0000       4.156207       113.0961 
 585   0.0000       4.159344       113.1815 
 586   0.0000       4.165490       113.3488 
 587   0.0000       4.170829       113.4940 
 588   0.0000       4.176491       113.6481 
 589   0.0000       4.187342       113.9434 
 590   0.0000       4.191365       114.0528 
 591   0.0000       4.194816       114.1468 
 592   0.0000       4.199577       114.2763 
 593   0.0000       4.207242       114.4849 
 594   0.0000       4.214019       114.6693 
 595   0.0000       4.215734       114.7160 
 596   0.0000       4.216571       114.7387 
 597   0.0000       4.231949       115.1572 
 598   0.0000       4.241495       115.4169 
 599   0.0000       4.257082       115.8411 
 600   0.0000       4.262589       115.9909 
 601   0.0000       4.270774       116.2137 
 602   0.0000       4.280723       116.4844 
 603   0.0000       4.285359       116.6105 
 604   0.0000       4.290870       116.7605 
 605   0.0000       4.296684       116.9187 
 606   0.0000       4.305783       117.1663 
 607   0.0000       4.317679       117.4900 
 608   0.0000       4.322826       117.6301 
 609   0.0000       4.335897       117.9857 
 610   0.0000       4.337141       118.0196 
 611   0.0000       4.341319       118.1333 
 612   0.0000       4.352021       118.4245 
 613   0.0000       4.364952       118.7764 
 614   0.0000       4.367488       118.8454 
 615   0.0000       4.375274       119.0573 
 616   0.0000       4.388316       119.4121 
 617   0.0000       4.390996       119.4851 
 618   0.0000       4.402160       119.7889 
 619   0.0000       4.414675       120.1294 
 620   0.0000       4.423840       120.3788 
 621   0.0000       4.433319       120.6367 
 622   0.0000       4.440598       120.8348 
 623   0.0000       4.442789       120.8944 
 624   0.0000       4.455936       121.2522 
 625   0.0000       4.464070       121.4735 
 626   0.0000       4.466763       121.5468 
 627   0.0000       4.481660       121.9522 
 628   0.0000       4.492083       122.2358 
 629   0.0000       4.501277       122.4860 
 630   0.0000       4.507488       122.6550 
 631   0.0000       4.512545       122.7926 
 632   0.0000       4.528644       123.2307 
 633   0.0000       4.535339       123.4128 
 634   0.0000       4.542648       123.6117 
 635   0.0000       4.544407       123.6596 
 636   0.0000       4.557931       124.0276 
 637   0.0000       4.569061       124.3305 
 638   0.0000       4.573192       124.4429 
 639   0.0000       4.575102       124.4949 
 640   0.0000       4.588941       124.8714 
 641   0.0000       4.600777       125.1935 
 642   0.0000       4.608461       125.4026 
 643   0.0000       4.619593       125.7055 
 644   0.0000       4.622414       125.7823 
 645   0.0000       4.633099       126.0730 
 646   0.0000       4.642245       126.3219 
 647   0.0000       4.647976       126.4779 
 648   0.0000       4.649750       126.5261 
 649   0.0000       4.653610       126.6312 
 650   0.0000       4.666764       126.9891 
 651   0.0000       4.667797       127.0172 
 652   0.0000       4.680052       127.3507 
 653   0.0000       4.682741       127.4239 
 654   0.0000       4.693941       127.7286 
 655   0.0000       4.698973       127.8656 
 656   0.0000       4.706061       128.0584 
 657   0.0000       4.717646       128.3737 
 658   0.0000       4.724212       128.5523 
 659   0.0000       4.744554       129.1059 
 660   0.0000       4.763884       129.6319 
 661   0.0000       4.776981       129.9883 
 662   0.0000       4.788074       130.2901 
 663   0.0000       4.792902       130.4215 
 664   0.0000       4.821557       131.2012 
 665   0.0000       4.829815       131.4260 
 666   0.0000       4.846918       131.8914 
 667   0.0000       4.858238       132.1994 
 668   0.0000       4.870642       132.5369 
 669   0.0000       4.883662       132.8912 
 670   0.0000       4.917833       133.8210 
 671   0.0000       4.928131       134.1013 
 672   0.0000       4.947198       134.6201 
 673   0.0000       4.954136       134.8089 
 674   0.0000       4.979055       135.4870 
 675   0.0000       4.984307       135.6299 
 676   0.0000       5.017174       136.5242 
 677   0.0000       5.031151       136.9046 
 678   0.0000       5.036112       137.0396 
 679   0.0000       5.051119       137.4479 
 680   0.0000       5.057937       137.6335 
 681   0.0000       5.072442       138.0282 
 682   0.0000       5.088817       138.4738 
 683   0.0000       5.110467       139.0629 
 684   0.0000       5.120371       139.3324 
 685   0.0000       5.123386       139.4144 
 686   0.0000       5.126100       139.4883 
 687   0.0000       5.134450       139.7155 
 688   0.0000       5.150999       140.1658 
 689   0.0000       5.156717       140.3214 
 690   0.0000       5.174495       140.8052 
 691   0.0000       5.179872       140.9515 
 692   0.0000       5.195389       141.3737 
 693   0.0000       5.202854       141.5769 
 694   0.0000       5.210087       141.7737 
 695   0.0000       5.215310       141.9158 
 696   0.0000       5.224623       142.1692 
 697   0.0000       5.233816       142.4194 
 698   0.0000       5.241888       142.6390 
 699   0.0000       5.253843       142.9643 
 700   0.0000       5.271940       143.4568 
 701   0.0000       5.290782       143.9695 
 702   0.0000       5.306261       144.3907 
 703   0.0000       5.317827       144.7054 
 704   0.0000       5.327044       144.9562 
 705   0.0000       5.333983       145.1450 
 706   0.0000       5.345475       145.4578 
 707   0.0000       5.355173       145.7217 
 708   0.0000       5.369465       146.1106 
 709   0.0000       5.374460       146.2465 
 710   0.0000       5.388777       146.6361 
 711   0.0000       5.399087       146.9166 
 712   0.0000       5.422273       147.5475 
 713   0.0000       5.455954       148.4641 
 714   0.0000       5.465766       148.7310 
 715   0.0000       5.483937       149.2255 
 716   0.0000       5.502034       149.7180 
 717   0.0000       5.519333       150.1887 
 718   0.0000       5.524321       150.3244 
 719   0.0000       5.534109       150.5908 
 720   0.0000       5.544419       150.8713 
 721   0.0000       5.552036       151.0786 
 722   0.0000       5.559949       151.2939 
 723   0.0000       5.577028       151.7586 
 724   0.0000       5.589510       152.0983 
 725   0.0000       5.598800       152.3511 
 726   0.0000       5.607710       152.5936 
 727   0.0000       5.621377       152.9655 
 728   0.0000       5.630754       153.2206 
 729   0.0000       5.645923       153.6334 
 730   0.0000       5.652322       153.8075 
 731   0.0000       5.666417       154.1910 
 732   0.0000       5.686879       154.7479 
 733   0.0000       5.712865       155.4550 
 734   0.0000       5.713629       155.4757 
 735   0.0000       5.718896       155.6191 
 736   0.0000       5.735114       156.0604 
 737   0.0000       5.747136       156.3875 
 738   0.0000       5.749172       156.4429 
 739   0.0000       5.754061       156.5760 
 740   0.0000       5.763727       156.8390 
 741   0.0000       5.771315       157.0455 
 742   0.0000       5.803323       157.9164 
 743   0.0000       5.824487       158.4924 
 744   0.0000       5.827819       158.5830 
 745   0.0000       5.843791       159.0176 
 746   0.0000       5.878373       159.9587 
 747   0.0000       5.881017       160.0306 
 748   0.0000       5.892334       160.3386 
 749   0.0000       5.926649       161.2723 
 750   0.0000       5.949293       161.8885 
 751   0.0000       5.973059       162.5352 
 752   0.0000       5.983130       162.8092 
 753   0.0000       6.003346       163.3594 
 754   0.0000       6.016049       163.7050 
 755   0.0000       6.039966       164.3558 
 756   0.0000       6.050970       164.6553 
 757   0.0000       6.055166       164.7695 
 758   0.0000       6.068498       165.1322 
 759   0.0000       6.100245       165.9961 
 760   0.0000       6.122043       166.5892 
 761   0.0000       6.162111       167.6796 
 762   0.0000       6.228000       169.4725 
 763   0.0000       6.235548       169.6779 
 764   0.0000       6.278939       170.8586 
 765   0.0000       6.289660       171.1503 
 766   0.0000       6.300670       171.4499 
 767   0.0000       6.320155       171.9802 
 768   0.0000       6.349393       172.7758 
 769   0.0000       6.363316       173.1546 
 770   0.0000       6.382381       173.6734 
 771   0.0000       6.383388       173.7008 
 772   0.0000       6.400393       174.1635 
 773   0.0000       6.450533       175.5279 
 774   0.0000       6.452737       175.5879 
 775   0.0000       6.473366       176.1492 
 776   0.0000       6.495390       176.7485 
 777   0.0000       6.552967       178.3153 
 778   0.0000       6.569444       178.7636 
 779   0.0000       6.625857       180.2987 
 780   0.0000       6.660933       181.2532 
 781   0.0000       6.705257       182.4593 
 782   0.0000       6.725633       183.0138 
 783   0.0000       6.782669       184.5658 
 784   0.0000       6.800912       185.0622 
 785   0.0000       6.859873       186.6666 
 786   0.0000       6.909353       188.0131 
 787   0.0000       6.923031       188.3852 
 788   0.0000       6.947881       189.0614 
 789   0.0000       7.011019       190.7795 
 790   0.0000       7.052406       191.9057 
 791   0.0000       7.062341       192.1761 
 792   0.0000       7.082877       192.7349 
 793   0.0000       7.124823       193.8763 
 794   0.0000       7.212901       196.2730 
 795   0.0000       7.259825       197.5499 
 796   0.0000       7.283499       198.1941 
 797   0.0000       7.292678       198.4439 
 798   0.0000       7.340676       199.7499 
 799   0.0000       7.347029       199.9228 
 800   0.0000       7.398728       201.3296 
 801   0.0000       7.552315       205.5089 
 802   0.0000       7.587285       206.4605 
 803   0.0000       7.592760       206.6095 
 804   0.0000       7.626245       207.5207 
 805   0.0000       7.810518       212.5350 
 806   0.0000       7.824774       212.9229 
 807   0.0000       7.884918       214.5595 
 808   0.0000       7.936593       215.9657 
 809   0.0000       9.403552       255.8837 
 810   0.0000       9.609991       261.5011 
 811   0.0000      10.765990       292.9575 
 812   0.0000      11.185096       304.3619 
 813   0.0000      11.955685       325.3307 
 814   0.0000      12.627845       343.6211 
 815   0.0000      12.964559       352.7836 
 816   0.0000      13.004056       353.8584 
 817   0.0000      13.150483       357.8428 
 818   0.0000      13.192004       358.9727 
 819   0.0000      13.410789       364.9261 
 820   0.0000      13.462761       366.3403 
 821   0.0000      13.764378       374.5478 
 822   0.0000      13.966039       380.0353 
 823   0.0000      13.996311       380.8590 
 824   0.0000      14.183108       385.9420 
 825   0.0000      14.543952       395.7611 
 826   0.0000      14.641643       398.4194 
 827   0.0000      16.008831       435.6224 

                    ********************************
                    * MULLIKEN POPULATION ANALYSIS *
                    ********************************

-----------------------
MULLIKEN ATOMIC CHARGES
-----------------------
   0 C :   -0.309899
   1 C :    0.039167
   2 O :   -0.374144
   3 C :    0.457901
   4 O :   -0.392855
   5 C :   -0.218167
   6 C :    0.154190
   7 C :   -0.276264
   8 N :   -0.122462
   9 C :    0.194432
  10 S :   -0.434182
  11 N :   -0.192123
  12 C :    0.023468
  13 C :    0.080760
  14 C :   -0.173466
  15 C :   -0.139920
  16 C :   -0.280271
  17 C :    0.325338
  18 O :   -0.358931
  19 C :   -0.288274
  20 H :    0.111001
  21 H :    0.115408
  22 H :    0.100337
  23 H :    0.109315
  24 H :    0.102649
  25 H :    0.120007
  26 H :    0.140644
  27 H :    0.095546
  28 H :    0.197948
  29 H :    0.191285
  30 H :    0.148645
  31 H :    0.144870
  32 H :    0.162110
  33 H :    0.131851
  34 H :    0.240990
  35 H :    0.173094
Sum of atomic charges:    0.0000000

--------------------------------
MULLIKEN REDUCED ORBITAL CHARGES
--------------------------------
  0 C s       :     3.254690  s :     3.254690
      pz      :     0.951398  p :     2.974766
      px      :     1.002185
      py      :     1.021183
      dz2     :     0.013534  d :     0.075877
      dxz     :     0.016330
      dyz     :     0.020451
      dx2y2   :     0.018043
      dxy     :     0.007520
      f0      :     0.000307  f :     0.004566
      f+1     :     0.001316
      f-1     :     0.000488
      f+2     :     0.001064
      f-2     :     0.000531
      f+3     :     0.000251
      f-3     :     0.000608
  1 C s       :     3.166374  s :     3.166374
      pz      :     0.960085  p :     2.627149
      px      :     0.649274
      py      :     1.017790
      dz2     :     0.023550  d :     0.155624
      dxz     :     0.037818
      dyz     :     0.026067
      dx2y2   :     0.041914
      dxy     :     0.026275
      f0      :     0.001346  f :     0.011687
      f+1     :     0.002371
      f-1     :     0.000766
      f+2     :     0.002041
      f-2     :     0.001125
      f+3     :     0.001947
      f-3     :     0.002090
  2 O s       :     3.715847  s :     3.715847
      pz      :     1.814196  p :     4.623666
      px      :     1.391995
      py      :     1.417475
      dz2     :     0.003900  d :     0.032318
      dxz     :     0.005006
      dyz     :     0.005206
      dx2y2   :     0.013095
      dxy     :     0.005111
      f0      :     0.000314  f :     0.002313
      f+1     :     0.000279
      f-1     :     0.000324
      f+2     :     0.000347
      f-2     :     0.000188
[...]
 15 C s       :     2.705325  s :     2.705325
      pz      :     0.895296  p :     2.797320
      px      :     0.937861
      py      :     0.964164
      dz2     :     0.090130  d :     0.417117
      dxz     :     0.071606
      dyz     :     0.055958
      dx2y2   :     0.109741
      dxy     :     0.089682
      f0      :     0.003139  f :     0.041093
      f+1     :     0.005247
      f-1     :     0.005798
      f+2     :     0.007256
      f-2     :     0.006099
      f+3     :     0.007227
      f-3     :     0.006328
 16 C s       :     2.701449  s :     2.701449
      pz      :     0.934928  p :     2.869191
      px      :     0.962597
      py      :     0.971666
      dz2     :     0.041715  d :     0.391272
      dxz     :     0.058934
      dyz     :     0.084763
      dx2y2   :     0.096207
      dxy     :     0.109653
      f0      :     0.004049  f :     0.040386
      f+1     :     0.004679
      f-1     :     0.003872
      f+2     :     0.006097
      f-2     :     0.005095
      f+3     :     0.008938
      f-3     :     0.007655
 17 C s       :     2.700903  s :     2.700903
      pz      :     0.848275  p :     2.681560
      px      :     0.820607
      py      :     1.012678
      dz2     :     0.122168  d :     0.709147
      dxz     :     0.110451
      dyz     :     0.134847
      dx2y2   :     0.169437
      dxy     :     0.172244
      f0      :     0.008765  f :     0.099380
      f+1     :     0.015974
      f-1     :     0.009059
      f+2     :     0.016030
      f-2     :     0.014120
      f+3     :     0.017664
      f-3     :     0.017768
 18 O s       :     3.176920  s :     3.176920
      pz      :     1.439785  p :     4.346126
      px      :     1.403148
      py      :     1.503193
      dz2     :     0.007829  d :     0.075565
      dxz     :     0.017240
      dyz     :     0.017537
      dx2y2   :     0.016060
      dxy     :     0.016900
      f0      :     0.000581  f :     0.005066
      f+1     :     0.000732
      f-1     :     0.000381
      f+2     :     0.000682
      f-2     :     0.000970
      f+3     :     0.000773
      f-3     :     0.000948
 19 C s       :     2.694893  s :     2.694893
      pz      :     0.927723  p :     2.841647
      px      :     0.950933
      py      :     0.962991
      dz2     :     0.072540  d :     0.387927
      dxz     :     0.069503
      dyz     :     0.057753
      dx2y2   :     0.096546
      dxy     :     0.091586
      f0      :     0.003183  f :     0.040826
      f+1     :     0.005360
      f-1     :     0.005340
      f+2     :     0.007231
      f-2     :     0.006705
      f+3     :     0.007066
      f-3     :     0.005942
 20 H s       :     0.841347  s :     0.841347
      pz      :     0.060045  p :     0.154616
      px      :     0.043950
      py      :     0.050620
      dz2     :     0.007870  d :     0.027935
      dxz     :     0.005577
      dyz     :     0.006377
      dx2y2   :     0.004848
      dxy     :     0.003263
 21 H s       :     0.847048  s :     0.847048
      pz      :     0.040403  p :     0.151893
      px      :     0.068209
      py      :     0.043281
      dz2     :     0.002640  d :     0.027505
      dxz     :     0.008237
      dyz     :     0.001066
      dx2y2   :     0.007659
      dxy     :     0.007903
 22 H s       :     0.849418  s :     0.849418
      pz      :     0.045242  p :     0.155853
      px      :     0.039653
      py      :     0.070959
      dz2     :     0.003559  d :     0.027895
      dxz     :     0.001278
      dyz     :     0.008569
      dx2y2   :     0.006352
      dxy     :     0.008137
 23 H s       :     0.853348  s :     0.853348
      pz      :     0.045060  p :     0.144271
      px      :     0.023804
      py      :     0.075407
      dz2     :     0.003646  d :     0.026961
      dxz     :     0.000799
      dyz     :     0.009542
      dx2y2   :     0.007250
      dxy     :     0.005725
 24 H s       :     0.855655  s :     0.855655
      pz      :     0.064414  p :     0.147182
      px      :     0.031874
      py      :     0.050894
      dz2     :     0.008541  d :     0.027268
      dxz     :     0.005482
      dyz     :     0.005929
      dx2y2   :     0.003763
      dxy     :     0.003553
 25 H s       :     0.831642  s :     0.831642
      pz      :     0.043112  p :     0.149776
      px      :     0.054103
      py      :     0.052561
      dz2     :     0.003685  d :     0.027736
      dxz     :     0.005389
      dyz     :     0.004489
      dx2y2   :     0.007732
      dxy     :     0.006441
 26 H s       :     0.824325  s :     0.824325
      pz      :     0.058608  p :     0.151788
      px      :     0.053720
      py      :     0.039460
      dz2     :     0.007720  d :     0.027683
      dxz     :     0.006955
      dyz     :     0.005062
      dx2y2   :     0.003183
      dxy     :     0.004762
 27 H s       :     0.844415  s :     0.844415
      pz      :     0.037397  p :     0.150285
      px      :     0.047872
      py      :     0.065016
      dz2     :     0.002722  d :     0.027677
      dxz     :     0.002651
      dyz     :     0.006436
      dx2y2   :     0.008120
      dxy     :     0.007749
 28 H s       :     0.742616  s :     0.742616
      pz      :     0.054102  p :     0.253741
      px      :     0.084904
      py      :     0.114736
      dz2     :     0.005835  d :     0.061784
      dxz     :     0.002968
      dyz     :     0.015443
      dx2y2   :     0.018711
      dxy     :     0.018827
 29 H s       :     0.749412  s :     0.749412
      pz      :     0.113705  p :     0.254143
      px      :     0.095876
      py      :     0.044562
      dz2     :     0.020937  d :     0.061379
      dxz     :     0.015987
      dyz     :     0.010895
      dx2y2   :     0.008103
      dxy     :     0.005457
 30 H s       :     0.832665  s :     0.832665
      pz      :     0.038217  p :     0.146578
      px      :     0.066714
      py      :     0.041647
      dz2     :     0.002986  d :     0.028494
      dxz     :     0.007322
      dyz     :     0.002996
      dx2y2   :     0.007559
      dxy     :     0.007631
 31 H s       :     0.845214  s :     0.845214
      pz      :     0.052615  p :     0.156744
      px      :     0.066422
      py      :     0.037707
      dz2     :     0.004896  d :     0.027516
      dxz     :     0.006866
      dyz     :     0.003148
      dx2y2   :     0.006204
      dxy     :     0.006401
 32 H s       :     0.842871  s :     0.842871
      pz      :     0.037672  p :     0.151406
      px      :     0.039426
      py      :     0.074308
      dz2     :     0.002676  d :     0.026456
      dxz     :     0.000852
      dyz     :     0.007181
      dx2y2   :     0.007775
      dxy     :     0.007971
 33 H s       :     0.848450  s :     0.848450
      pz      :     0.058393  p :     0.159074
      px      :     0.049032
      py      :     0.051649
      dz2     :     0.006100  d :     0.027749
      dxz     :     0.004887
      dyz     :     0.005913
      dx2y2   :     0.005667
      dxy     :     0.005181
 34 H s       :     0.706355  s :     0.706355
      pz      :     0.116241  p :     0.347673
      px      :     0.085250
      py      :     0.146182
      dz2     :     0.023995  d :     0.099537
      dxz     :     0.012132
      dyz     :     0.024032
      dx2y2   :     0.020036
      dxy     :     0.019341
 35 H s       :     0.838699  s :     0.838699
      pz      :     0.040954  p :     0.157667
      px      :     0.040987
      py      :     0.075727
      dz2     :     0.002653  d :     0.028084
      dxz     :     0.000957
      dyz     :     0.007939
      dx2y2   :     0.008089
      dxy     :     0.008446


                      *****************************
                      * MAYER POPULATION ANALYSIS *
                      *****************************

  NA   - Mulliken gross atomic population
  ZA   - Total nuclear charge
  QA   - Mulliken gross atomic charge
  VA   - Mayer's total valence
  BVA  - Mayer's bonded valence
  FA   - Mayer's free valence

  ATOM       NA         ZA         QA         VA         BVA        FA
  0 C      6.3099     6.0000    -0.3099     3.8701     3.8701    -0.0000
  1 C      5.9608     6.0000     0.0392     3.8613     3.8613     0.0000
  2 O      8.3741     8.0000    -0.3741     1.9856     1.9856    -0.0000
  3 C      5.5421     6.0000     0.4579     4.2159     4.2159     0.0000
  4 O      8.3929     8.0000    -0.3929     2.1018     2.1018     0.0000
  5 C      6.2182     6.0000    -0.2182     3.6378     3.6378    -0.0000
  6 C      5.8458     6.0000     0.1542     3.8563     3.8563    -0.0000
  7 C      6.2763     6.0000    -0.2763     3.9073     3.9073    -0.0000
  8 N      7.1225     7.0000    -0.1225     3.2819     3.2819     0.0000
  9 C      5.8056     6.0000     0.1944     4.1544     4.1544     0.0000
 10 S     16.4342    16.0000    -0.4342     1.7640     1.7640     0.0000
 11 N      7.1921     7.0000    -0.1921     3.2563     3.2563     0.0000
 12 C      5.9765     6.0000     0.0235     3.9697     3.9697     0.0000
 13 C      5.9192     6.0000     0.0808     3.6858     3.6858     0.0000
 14 C      6.1735     6.0000    -0.1735     3.8594     3.8594     0.0000
 15 C      6.1399     6.0000    -0.1399     3.8023     3.8023    -0.0000
 16 C      6.2803     6.0000    -0.2803     3.7905     3.7905     0.0000
 17 C      5.6747     6.0000     0.3253     3.8673     3.8673     0.0000
 18 O      8.3589     8.0000    -0.3589     2.1177     2.1177    -0.0000
 19 C      6.2883     6.0000    -0.2883     3.8210     3.8210     0.0000
 20 H      0.8890     1.0000     0.1110     0.9793     0.9793     0.0000
 21 H      0.8846     1.0000     0.1154     0.9824     0.9824    -0.0000
 22 H      0.8997     1.0000     0.1003     0.9800     0.9800    -0.0000
 23 H      0.8907     1.0000     0.1093     0.9781     0.9781     0.0000
 24 H      0.8974     1.0000     0.1026     0.9865     0.9865     0.0000
 25 H      0.8800     1.0000     0.1200     0.9791     0.9791    -0.0000
 26 H      0.8594     1.0000     0.1406     0.9779     0.9779    -0.0000
 27 H      0.9045     1.0000     0.0955     0.9854     0.9854    -0.0000
 28 H      0.8021     1.0000     0.1979     1.0220     1.0220    -0.0000
 29 H      0.8087     1.0000     0.1913     1.0206     1.0206     0.0000
 30 H      0.8514     1.0000     0.1486     0.9880     0.9880     0.0000
 31 H      0.8551     1.0000     0.1449     0.9910     0.9910     0.0000
 32 H      0.8379     1.0000     0.1621     0.9772     0.9772     0.0000
 33 H      0.8681     1.0000     0.1319     0.9915     0.9915     0.0000
 34 H      0.7590     1.0000     0.2410     1.0107     1.0107    -0.0000
 35 H      0.8269     1.0000     0.1731     0.9867     0.9867    -0.0000

  Mayer bond orders larger than 0.100000
B(  0-C ,  1-C ) :   0.9679 B(  0-C , 20-H ) :   0.9718 B(  0-C , 21-H ) :   0.9772 
B(  0-C , 22-H ) :   0.9720 B(  1-C ,  2-O ) :   0.8819 B(  1-C , 23-H ) :   0.9873 
B(  1-C , 24-H ) :   0.9759 B(  2-O ,  3-C ) :   1.1091 B(  3-C ,  4-O ) :   2.0312 
B(  3-C ,  5-C ) :   1.0219 B(  5-C ,  6-C ) :   1.6756 B(  5-C , 12-C ) :   0.9709 
B(  6-C ,  7-C ) :   0.9624 B(  6-C ,  8-N ) :   1.1310 B(  7-C , 25-H ) :   0.9703 
B(  7-C , 26-H ) :   0.9578 B(  7-C , 27-H ) :   0.9867 B(  8-N ,  9-C ) :   1.1826 
B(  8-N , 28-H ) :   0.9493 B(  9-C , 10-S ) :   1.6190 B(  9-C , 11-N ) :   1.2935 
B( 11-N , 12-C ) :   0.9957 B( 11-N , 29-H ) :   0.9531 B( 12-C , 13-C ) :   0.9372 
B( 12-C , 30-H ) :   1.0093 B( 13-C , 14-C ) :   1.3645 B( 13-C , 19-C ) :   1.3545 
B( 14-C , 15-C ) :   1.3939 B( 14-C , 31-H ) :   0.9716 B( 15-C , 16-C ) :   1.3594 
B( 15-C , 32-H ) :   0.9712 B( 16-C , 17-C ) :   1.3319 B( 16-C , 33-H ) :   0.9849 
B( 17-C , 18-O ) :   1.1113 B( 17-C , 19-C ) :   1.3659 B( 18-O , 34-H ) :   0.9796 
B( 19-C , 35-H ) :   0.9576 

-------
TIMINGS
-------

Total SCF time: 0 days 1 hours 55 min 30 sec 

Total time                  ....    6930.722 sec
Sum of individual times     ....    6920.145 sec  ( 99.8%)

Fock matrix formation       ....    6885.050 sec  ( 99.3%)
Diagonalization             ....       2.137 sec  (  0.0%)
Density matrix formation    ....       0.233 sec  (  0.0%)
Population analysis         ....       1.273 sec  (  0.0%)
Initial guess               ....       5.952 sec  (  0.1%)
Orbital Transformation      ....       0.000 sec  (  0.0%)
Orbital Orthonormalization  ....       0.000 sec  (  0.0%)
DIIS solution               ....      18.772 sec  (  0.3%)
SOSCF solution              ....       5.325 sec  (  0.1%)

Maximum memory used throughout the entire SCF-calculation: 760.0 MB

------------------------------------------------------------------------------
                                ORCA  MP2 
------------------------------------------------------------------------------

Freezing NCore=48 chemical core electrons

-------------
RI-MP2 ENERGY
-------------
Dimension of the basis                    ...  828
Memory devoted to MP2                     ...  256 MB   
Data format for buffers                   ... DOUBLE
Compression type for matrix containers    ... UNCOMPRESSED
Overall scaling of the MP2 energy         ...   1.000e+00
Calculating two index integrals           ... done (    0.035 sec)
Cholesky decomposition of V**-1           ... done (    0.490 sec)

-----------------
RI-TRANSFORMATION (AUX index driven)
-----------------

Dimension of the orbital-basis         ... 828
Dimension of the aux-basis             ... 2141
Transformation of internal/external MOs...   24-  76 to   77- 827
Number Format for Storage              ... Double (8 Byte)
Integral mode                          ... Direct

First Phase: integral generation and transformation of MO indices
  Aux angular momentum 0               ... done (    5.957 sec)
  Aux angular momentum 1               ... done (   16.744 sec)
  Aux angular momentum 2               ... done (   23.060 sec)
  Aux angular momentum 3               ... done (   12.884 sec)
  Aux angular momentum 4               ... done (    6.930 sec)
Closing buffer VIA ( 0.63 GB; CompressionRatio= 1.00)
  Phase 1 completed in    66.891 sec
Second Phase: sorting and transformation of aux index

IA-Transformation
Memory available                       ... 156 MB 
Max. # MO pairs treated in a batch     ... 11    
# of internal orbitals                 ... 53
# batches for internal orbitals        ... 5
Closing buffer IAV ( 0.63 GB; CompressionRatio= 1.00)
(ia|v) transformation done in   143.067 sec

  Phase 2 completed in   143.076 sec
RI-Integral transformation completed in   210.167 sec
Opening buffers                              ... done

Starting loop over batches of integrals:

Operator 0  - window                       ... ( 24- 76)x( 77-827)
Operator 0  - Memory available             ...   256 MB
Operator 0  - Memory needed per MO         ...  12.3 MB
Operator 0  - Number of orbitals per batch ... 13
Operator 0  - Number of batches            ... 5

OPERATOR  0   PASS   0:  MOs    24 ...   36
  Reading integrals       ... ok
  Internal MO  26
  Internal MO  29
  Internal MO  32
  Internal MO  35
OPERATOR  0   PASS   1:  MOs    37 ...   49
  Reading integrals       ... ok
  Internal MO  38
  Internal MO  41
  Internal MO  44
  Internal MO  47
OPERATOR  0   PASS   2:  MOs    50 ...   62
  Reading integrals       ... ok
  Internal MO  50
  Internal MO  53
  Internal MO  56
  Internal MO  59
  Internal MO  62
OPERATOR  0   PASS   3:  MOs    63 ...   75
  Reading integrals       ... ok
  Internal MO  65
  Internal MO  68
  Internal MO  71
  Internal MO  74
OPERATOR  0   PASS   4:  MOs    76 ...   76
  Reading integrals       ... ok
Time spent in pair loops =   181.751 sec
Deleting buffer (Ka|jb)[aa] ...done

-----------------------------------------------
 RI-MP2 CORRELATION ENERGY:     -3.539989426 Eh
-----------------------------------------------


-------
TIMINGS
-------

Total time                :  393.488 sec
Integral trafo            :  210.179 sec ( 53.4%)
I/O of integrals          :    8.635 sec (  2.2%)
K(i,j) Operators          :   81.739 sec ( 20.8%)
T(i,j) pair energies      :    2.849 sec (  0.7%)
V-calculation             :    0.035 sec (  0.0%)
V**(-1/2)                 :    0.490 sec (  0.1%)
Gamma(ia|P)               :    0.000 sec (  0.0%)
Gamma-Trafo               :    0.000 sec (  0.0%)
D(virtual)                :    0.000 sec (  0.0%)
D(internal)               :    0.000 sec (  0.0%)
W(virtual)                :    0.000 sec (  0.0%)
W(internal)               :    0.000 sec (  0.0%)
L(virtual)                :    0.000 sec (  0.0%)
L(internal)               :    0.000 sec (  0.0%)
G(D)                      :    0.000 sec (  0.0%)
G(Z)                      :    0.000 sec (  0.0%)
Z-Vector Solution         :    0.000 sec (  0.0%)
3-Index Derivative        :    0.000 sec (  0.0%)
2-Index Derivative        :    0.000 sec (  0.0%)
Separable Gradient        :    0.000 sec (  0.0%)


---------------------------------------
MP2 TOTAL ENERGY:    -1274.316730856 Eh
---------------------------------------

Maximum memory used throughout the entire MP2-calculation: 305.9 MB

-------------------------   --------------------
FINAL SINGLE POINT ENERGY     -1274.316730855591
-------------------------   --------------------


                            ***************************************
                            *     ORCA property calculations      *
                            ***************************************


  WARNING: The energy has been calculated at the MP2 level but the densities
           used in the property calculations are still SCF densities
           MP2 response densities have not been calculated 
           use %mp2 Density relaxed end
           or  %mp2 Density unrelaxed end

                                    ---------------------
                                    Active property flags
                                    ---------------------
   (+) Dipole Moment


------------------------------------------------------------------------------
                       ORCA ELECTRIC PROPERTIES CALCULATION
------------------------------------------------------------------------------

Dipole Moment Calculation                       ... on
Quadrupole Moment Calculation                   ... off
Polarizability Calculation                      ... off
GBWName                                         ... CONFS/Conf209.orca.gbw
Electron density file                           ... CONFS/Conf209.orca.scfp
The origin for moment calculation is the CENTER OF MASS  = (32.775740, 31.471695 35.192613)

-------------
DIPOLE MOMENT
-------------
                                X             Y             Z
Electronic contribution:      9.56174       8.84711       5.65169
Nuclear contribution   :    -10.64364     -10.49033      -5.81207
                        -----------------------------------------
Total Dipole Moment    :     -1.08190      -1.64322      -0.16038
                        -----------------------------------------
Magnitude (a.u.)       :      1.97393
Magnitude (Debye)      :      5.01734



--------------------
Rotational spectrum 
--------------------
 
Rotational constants in cm-1:     0.011758     0.009903     0.006551 
Rotational constants in MHz :   352.484759   296.874753   196.388936 

 Dipole components along the rotational axes: 
x,y,z [a.u.] :    -1.857651    -0.461449     0.482304 
x,y,z [Debye]:    -4.721773    -1.172909     1.225920 

 

Timings for individual modules:

Sum of individual times         ...     7334.781 sec (= 122.246 min)
GTO integral calculation        ...        5.538 sec (=   0.092 min)   0.1 %
SCF iterations                  ...     6931.624 sec (= 115.527 min)  94.5 %
MP2 module                      ...      397.619 sec (=   6.627 min)   5.4 %
                             ****ORCA TERMINATED NORMALLY****
TOTAL RUN TIME: 0 days 2 hours 2 minutes 22 seconds 335 msec
