
                                        *****************
                                        * O   R   C   A *
                                        *****************

                                            #,                                       
                                            ###                                      
                                            ####                                     
                                            #####                                    
                                            ######                                   
                                           ########,                                 
                                     ,,################,,,,,                         
                               ,,#################################,,                 
                          ,,##########################################,,             
                       ,#########################################, ''#####,          
                    ,#############################################,,   '####,        
                  ,##################################################,,,,####,       
                ,###########''''           ''''###############################       
              ,#####''   ,,,,##########,,,,          '''####'''          '####       
            ,##' ,,,,###########################,,,                        '##       
           ' ,,###''''                  '''############,,,                           
         ,,##''                                '''############,,,,        ,,,,,,###''
      ,#''                                            '''#######################'''  
     '                                                          ''''####''''         
             ,#######,   #######,   ,#######,      ##                                
            ,#'     '#,  ##    ##  ,#'     '#,    #''#        ######   ,####,        
            ##       ##  ##   ,#'  ##            #'  '#       #        #'  '#        
            ##       ##  #######   ##           ,######,      #####,   #    #        
            '#,     ,#'  ##    ##  '#,     ,#' ,#      #,         ##   #,  ,#        
             '#######'   ##     ##  '#######'  #'      '#     #####' # '####'        



                  #######################################################
                  #                        -***-                        #
                  #          Department of theory and spectroscopy      #
                  #    Directorship and core code : Frank Neese         #
                  #        Max Planck Institute fuer Kohlenforschung    #
                  #                Kaiser Wilhelm Platz 1               #
                  #                 D-45470 Muelheim/Ruhr               #
                  #                      Germany                        #
                  #                                                     #
                  #                  All rights reserved                #
                  #                        -***-                        #
                  #######################################################


                         Program Version 5.0.0 -  RELEASE  -
                                (SVN: $Rev: 19529$)
                ($Date: 2021-06-28 11:36:33 +0200 (Mo, 28 Jun 2021) $)


 With contributions from (in alphabetic order):
   Daniel Aravena         : Magnetic Suceptibility
   Michael Atanasov       : Ab Initio Ligand Field Theory (pilot matlab implementation)
   Alexander A. Auer      : GIAO ZORA, VPT2 properties, NMR spectrum
   Ute Becker             : Parallelization
   Giovanni Bistoni       : ED, misc. LED, open-shell LED, HFLD
   Martin Brehm           : Molecular dynamics
   Dmytro Bykov           : SCF Hessian
   Vijay G. Chilkuri      : MRCI spin determinant printing, contributions to CSF-ICE
   Dipayan Datta          : RHF DLPNO-CCSD density
   Achintya Kumar Dutta   : EOM-CC, STEOM-CC
   Dmitry Ganyushin       : Spin-Orbit,Spin-Spin,Magnetic field MRCI
   Miquel Garcia          : C-PCM Hessian, Gaussian charge scheme
   Yang Guo               : DLPNO-NEVPT2, F12-NEVPT2, CIM, IAO-localization
   Andreas Hansen         : Spin unrestricted coupled pair/coupled cluster methods
   Benjamin Helmich-Paris : MC-RPA, TRAH-SCF, COSX integrals
   Lee Huntington         : MR-EOM, pCC
   Robert Izsak           : Overlap fitted RIJCOSX, COSX-SCS-MP3, EOM
   Marcus Kettner         : VPT2
   Christian Kollmar      : KDIIS, OOCD, Brueckner-CCSD(T), CCSD density, CASPT2, CASPT2-K
   Simone Kossmann        : Meta GGA functionals, TD-DFT gradient, OOMP2, MP2 Hessian
   Martin Krupicka        : Initial AUTO-CI
   Lucas Lang             : DCDCAS
   Marvin Lechner         : AUTO-CI (C++ implementation), FIC-MRCC
   Dagmar Lenk            : GEPOL surface, SMD
   Dimitrios Liakos       : Extrapolation schemes; Compound Job, initial MDCI parallelization
   Dimitrios Manganas     : Further ROCIS development; embedding schemes
   Dimitrios Pantazis     : SARC Basis sets
   Anastasios Papadopoulos: AUTO-CI, single reference methods and gradients
   Taras Petrenko         : DFT Hessian,TD-DFT gradient, ASA, ECA, R-Raman, ABS, FL, XAS/XES, NRVS
   Peter Pinski           : DLPNO-MP2, DLPNO-MP2 Gradient
   Christoph Reimann      : Effective Core Potentials
   Marius Retegan         : Local ZFS, SOC
   Christoph Riplinger    : Optimizer, TS searches, QM/MM, DLPNO-CCSD(T), (RO)-DLPNO pert. Triples
   Tobias Risthaus        : Range-separated hybrids, TD-DFT gradient, RPA, STAB
   Michael Roemelt        : Original ROCIS implementation
   Masaaki Saitow         : Open-shell DLPNO-CCSD energy and density
   Barbara Sandhoefer     : DKH picture change effects
   Avijit Sen             : IP-ROCIS
   Kantharuban Sivalingam : CASSCF convergence, NEVPT2, FIC-MRCI
   Bernardo de Souza      : ESD, SOC TD-DFT
   Georgi Stoychev        : AutoAux, RI-MP2 NMR
   Willem Van den Heuvel  : Paramagnetic NMR
   Boris Wezisla          : Elementary symmetry handling
   Frank Wennmohs         : Technical directorship


 We gratefully acknowledge several colleagues who have allowed us to
 interface, adapt or use parts of their codes:
   Stefan Grimme, W. Hujo, H. Kruse, P. Pracht,  : VdW corrections, initial TS optimization,
                  C. Bannwarth, S. Ehlert          DFT functionals, gCP, sTDA/sTD-DF
   Ed Valeev, F. Pavosevic, A. Kumar             : LibInt (2-el integral package), F12 methods
   Garnet Chan, S. Sharma, J. Yang, R. Olivares  : DMRG
   Ulf Ekstrom                                   : XCFun DFT Library
   Mihaly Kallay                                 : mrcc  (arbitrary order and MRCC methods)
   Jiri Pittner, Ondrej Demel                    : Mk-CCSD
   Frank Weinhold                                : gennbo (NPA and NBO analysis)
   Christopher J. Cramer and Donald G. Truhlar   : smd solvation model
   Lars Goerigk                                  : TD-DFT with DH, B97 family of functionals
   V. Asgeirsson, H. Jonsson                     : NEB implementation
   FAccTs GmbH                                   : IRC, NEB, NEB-TS, DLPNO-Multilevel, CI-OPT
                                                   MM, QMMM, 2- and 3-layer-ONIOM, Crystal-QMMM,
                                                   LR-CPCM, SF, NACMEs, symmetry and pop. for TD-DFT,
                                                   nearIR, NL-DFT gradient (VV10), updates on ESD,
                                                   ML-optimized integration grids
   S Lehtola, MJT Oliveira, MAL Marques          : LibXC Library
   Liviu Ungur et al                             : ANISO software


 Your calculation uses the libint2 library for the computation of 2-el integrals
 For citations please refer to: http://libint.valeyev.net

 Your ORCA version has been built with support for libXC version: 5.1.0
 For citations please refer to: https://tddft.org/programs/libxc/

 This ORCA versions uses:
   CBLAS   interface :  Fast vector & matrix operations
   LAPACKE interface :  Fast linear algebra routines
   SCALAPACK package :  Parallel linear algebra routines
   Shared memory     :  Shared parallel matrices
   BLAS/LAPACK       :  OpenBLAS 0.3.15  USE64BITINT DYNAMIC_ARCH NO_AFFINITY SkylakeX SINGLE_THREADED
        Core in use  :  SkylakeX
   Copyright (c) 2011-2014, The OpenBLAS Project


================================================================================

----- Orbital basis set information -----
Your calculation utilizes the basis: cc-pVTZ 
       H, B-Ne : Obtained from the ccRepo (grant-hill.group.shef.ac.uk/ccrepo) Feb. 2017
                 T. H. Dunning, Jr., J. Chem. Phys. 90, 1007 (1989)
            He : Obtained from the ccRepo (grant-hill.group.shef.ac.uk/ccrepo) Feb. 2017
                 D. E. Woon, T. H. Dunning, Jr., J. Chem. Phys. 100, 2975 (1994)
  Li-Be, Na-Mg : Obtained from the ccRepo (grant-hill.group.shef.ac.uk/ccrepo) Feb. 2017
                 B. P. Prascher, D. E. Woon, K. A. Peterson, T. H. Dunning, Jr., A. K. Wilson, Theor. Chem. Acc. 128, 69 (2011)
         Al-Ar : Obtained from the ccRepo (grant-hill.group.shef.ac.uk/ccrepo) Feb. 2017
                 D. E. Woon, T. H. Dunning, Jr., J. Chem. Phys. 98, 1358 (1993)
            Ca : Obtained from the Peterson Research Group Website (tyr0.chem.wsu.edu/~kipeters) Feb. 2017
                 J. Koput, K. A. Peterson, J. Phys. Chem. 106, 9595 (2002)
         Sc-Zn : Obtained from the ccRepo (grant-hill.group.shef.ac.uk/ccrepo) Feb. 2017
                 N. B. Balabanov, K. A. Peterson, J. Chem. Phys. 123, 064107 (2005)
                 N. B. Balabanov, K. A. Peterson, J. Chem. Phys. 125, 074110 (2006)
         Ga-Kr : Obtained from the ccRepo (grant-hill.group.shef.ac.uk/ccrepo) Feb. 2017
                 A. K. Wilson, D. E. Woon, K. A. Peterson, T. H. Dunning, Jr., J. Chem. Phys. 110, 7667 (1999)
             Y : Obtained from the ccRepo (grant-hill.group.shef.ac.uk/ccrepo) Feb. 2017
                 K. A. Peterson, D. Figgen, M. Dolg, H. Stoll, J. Chem. Phys. 126, 124101 (2007)
        Ag, Au : Obtained from the Peterson Research Group Website (tyr0.chem.wsu.edu/~kipeters) Feb. 2017
                 K. A. Peterson, C. Puzzarini, Theor. Chem. Acc. 114, 283 (2005)

----- AuxC basis set information -----
Your calculation utilizes the auxiliary basis: cc-pVTZ/C 
  Obtained from the EMSL Basis Set Exchange (bse.pnl.gov) Feb. 2017
  H-He, B-F, Al-Ar, Ga-Kr : F. Weigend, A. Kohn, C. Hattig, J. Chem. Phys. 116, 3175 (2002)
             Li-Be, Na-Mg : C. Haettig, Phys. Chem. Chem. Phys. 7, 59 (2005)
                       Ne : C. Haettig, Phys. Chem. Chem. Phys. 7, 59 (2005)
                            F. Weigend, A. Kohn, C. Hattig, J. Chem. Phys. 116, 3175 (2002)
                    Sc-Zn : J. G. Hill, J. A. Platts, J. Chem. Phys. 128, 044104 (2008)

================================================================================
                                        WARNINGS
                       Please study these warnings very carefully!
================================================================================


WARNING: No MP2 level density has been requested!
         To caclulate MP2 level properties use
         %mp2 Density relaxed end
         or
         %mp2 Density unrelaxed end

WARNING: Post HF methods need fully converged wavefunctions
  ===> : Setting SCFConvForced true
         You can overwrite this default with %scf ConvForced false 


INFO   : the flag for use of the SHARK integral package has been found!

================================================================================
                                       INPUT FILE
================================================================================
NAME = CONFS/Conf379.orca
|  1> ! ri-mp2 cc-pvtz cc-pvtz/c TightSCF NoKeepInts
|  2> 
|  3> %scf
|  4>   MaxCore 4096
|  5> end
|  6> *xyz  0  1
|  7>     C       15.4285476   13.7961895   16.5293305
|  8>     C       15.2055001   15.2683320   16.1220588
|  9>     O       16.4256183   15.9928446   15.8310340
| 10>     C       17.5763777   15.8322617   16.5512907
| 11>     O       18.1488472   14.7609564   16.6573318
| 12>     C       17.8959875   16.9974306   17.4403555
| 13>     C       17.5048606   18.2772317   17.2101175
| 14>     C       16.7287598   18.8118118   16.0241513
| 15>     N       17.8860395   19.2897461   18.0963023
| 16>     C       18.7471223   19.1274659   19.1494517
| 17>     S       19.2240979   20.4026213   20.0884897
| 18>     N       19.1915283   17.8512961   19.3863743
| 19>     C       18.7100514   16.6441369   18.6887393
| 20>     C       17.8896256   15.7686655   19.6324224
| 21>     C       18.2221182   14.4142188   19.8186458
| 22>     C       17.4579604   13.5994112   20.6706029
| 23>     C       16.3499915   14.1425637   21.3428786
| 24>     C       16.0129487   15.4900914   21.1571498
| 25>     O       14.9380819   16.0153919   21.7973131
| 26>     C       16.7749931   16.2984476   20.3078968
| 27>     H       16.0469489   13.2748973   15.7875772
| 28>     H       14.4687051   13.2708642   16.6000345
| 29>     H       15.9189248   13.7244658   17.5088501
| 30>     H       14.5534067   15.3043570   15.2399332
| 31>     H       14.6775052   15.7733198   16.9415958
| 32>     H       17.1144298   18.3956316   15.0848482
| 33>     H       16.7917640   19.9034264   15.9376782
| 34>     H       15.6679014   18.5442753   16.1014294
| 35>     H       17.5725395   20.2342685   17.9390020
| 36>     H       19.8018981   17.7543127   20.1876845
| 37>     H       19.5915012   16.0723054   18.3638778
| 38>     H       19.0663584   13.9865636   19.2829918
| 39>     H       17.7225287   12.5515129   20.8006915
| 40>     H       15.7558451   13.5160554   21.9997835
| 41>     H       14.5798177   15.3254202   22.3758379
| 42>     H       16.4978679   17.3392092   20.1802474
| 43> *
| 44> 
| 45>                          ****END OF INPUT****
================================================================================

                       ****************************
                       * Single Point Calculation *
                       ****************************

---------------------------------
CARTESIAN COORDINATES (ANGSTROEM)
---------------------------------
  C     15.428548   13.796190   16.529331
  C     15.205500   15.268332   16.122059
  O     16.425618   15.992845   15.831034
  C     17.576378   15.832262   16.551291
  O     18.148847   14.760956   16.657332
  C     17.895988   16.997431   17.440355
  C     17.504861   18.277232   17.210117
  C     16.728760   18.811812   16.024151
  N     17.886039   19.289746   18.096302
  C     18.747122   19.127466   19.149452
  S     19.224098   20.402621   20.088490
  N     19.191528   17.851296   19.386374
  C     18.710051   16.644137   18.688739
  C     17.889626   15.768665   19.632422
  C     18.222118   14.414219   19.818646
  C     17.457960   13.599411   20.670603
  C     16.349992   14.142564   21.342879
  C     16.012949   15.490091   21.157150
  O     14.938082   16.015392   21.797313
  C     16.774993   16.298448   20.307897
  H     16.046949   13.274897   15.787577
  H     14.468705   13.270864   16.600034
  H     15.918925   13.724466   17.508850
  H     14.553407   15.304357   15.239933
  H     14.677505   15.773320   16.941596
  H     17.114430   18.395632   15.084848
  H     16.791764   19.903426   15.937678
  H     15.667901   18.544275   16.101429
  H     17.572540   20.234268   17.939002
  H     19.801898   17.754313   20.187684
  H     19.591501   16.072305   18.363878
  H     19.066358   13.986564   19.282992
  H     17.722529   12.551513   20.800691
  H     15.755845   13.516055   21.999783
  H     14.579818   15.325420   22.375838
  H     16.497868   17.339209   20.180247

----------------------------
CARTESIAN COORDINATES (A.U.)
----------------------------
  NO LB      ZA    FRAG     MASS         X           Y           Z
   0 C     6.0000    0    12.011   29.155730   26.071020   31.235908
   1 C     6.0000    0    12.011   28.734231   28.852966   30.466276
   2 O     8.0000    0    15.999   31.039920   30.222096   29.916319
   3 C     6.0000    0    12.011   33.214540   29.918639   31.277407
   4 O     8.0000    0    15.999   34.296351   27.894165   31.477795
   5 C     6.0000    0    12.011   33.818515   32.120489   32.957496
   6 C     6.0000    0    12.011   33.079393   34.538962   32.522409
   7 C     6.0000    0    12.011   31.612775   35.549172   30.281257
   8 N     7.0000    0    14.007   33.799716   36.452337   34.197055
   9 C     6.0000    0    12.011   35.426927   36.145672   36.187219
  10 S    16.0000    0    32.060   36.328280   38.555367   37.961744
  11 N     7.0000    0    14.007   36.266733   33.734061   36.634938
  12 C     6.0000    0    12.011   35.356873   31.452860   35.316599
  13 C     6.0000    0    12.011   33.806493   29.798459   37.099902
  14 C     6.0000    0    12.011   34.434813   27.238926   37.451813
  15 C     6.0000    0    12.011   32.990764   25.699163   39.061779
  16 C     6.0000    0    12.011   30.897006   26.725572   40.332195
  17 C     6.0000    0    12.011   30.260088   29.272031   39.981219
  18 O     8.0000    0    15.999   28.228884   30.264705   41.190952
  19 C     6.0000    0    12.011   31.700143   30.799602   38.376363
  20 H     1.0000    0     1.008   30.324339   25.085920   29.834197
  21 H     1.0000    0     1.008   27.341890   25.078299   31.369519
  22 H     1.0000    0     1.008   30.082408   25.935482   33.086932
  23 H     1.0000    0     1.008   27.501953   28.921043   28.799300
  24 H     1.0000    0     1.008   27.736465   29.807255   32.014976
  25 H     1.0000    0     1.008   32.341585   34.762706   28.506232
  26 H     1.0000    0     1.008   31.731835   37.612025   30.117847
  27 H     1.0000    0     1.008   29.608043   35.043602   30.427292
  28 H     1.0000    0     1.008   33.207287   38.237226   33.899801
  29 H     1.0000    0     1.008   37.420164   33.550789   38.149195
  30 H     1.0000    0     1.008   37.022572   30.372256   34.702700
  31 H     1.0000    0     1.008   36.030196   26.430775   36.439574
  32 H     1.0000    0     1.008   33.490726   23.718922   39.307610
  33 H     1.0000    0     1.008   29.774232   25.541643   41.573566
  34 H     1.0000    0     1.008   27.551863   28.960847   42.284206
  35 H     1.0000    0     1.008   31.176452   32.766357   38.135141

--------------------------------
INTERNAL COORDINATES (ANGSTROEM)
--------------------------------
 C      0   0   0     0.000000000000     0.00000000     0.00000000
 C      1   0   0     1.543639843093     0.00000000     0.00000000
 O      2   1   0     1.448551816037   114.09785150     0.00000000
 C      3   2   1     1.367041981197   122.98600843   320.98791309
 O      4   3   2     1.219287123334   122.97423754    59.44048382
 C      4   3   2     1.500068401235   113.60196122   252.51766748
 C      6   4   3     1.357895667608   124.76481803   333.01371189
 C      7   6   4     1.514801690856   127.80175999   357.68589987
 N      7   6   4     1.398501435024   119.76284906   181.33168945
 C      9   7   6     1.370008069497   124.93621266     6.34096830
 S     10   9   7     1.653880099218   121.76247569   175.80522478
 N     10   9   7     1.371946926692   116.52107250   355.68895785
 C     12  10   9     1.475041671480   125.01897297   353.47143725
 C     13  12  10     1.526462072490   110.63529320   249.85776588
 C     14  13  12     1.407038146925   120.45801742   234.41490121
 C     15  14  13     1.404877029693   120.66605570   180.96244631
 C     16  15  14     1.405191922278   119.65832825     0.03600602
 C     17  16  15     1.401400705883   119.86122726     0.15439435
 O     18  17  16     1.356867091395   120.01667002   179.53003786
 C     18  17  16     1.398349767282   120.34995519   359.88202517
 H      1   2   3     1.097435047592   110.86105344   307.41211349
 H      1   2   3     1.096477702118   110.33058295   187.79723930
 H      1   2   3     1.097758049028   111.24015667    68.47111282
 H      2   1   3     1.097574223970   109.22009582   122.01414357
 H      2   1   3     1.097921758116   108.13111023   238.59586256
 H      8   7   6     1.097377611145   110.86946607   316.08954708
 H      8   7   6     1.096845276771   112.55160489   196.47804053
 H      8   7   6     1.096799082978   110.75122766    75.86729486
 H      9   7   6     1.007545630968   119.66806916   181.79142983
 H     12  10   9     1.011956080693   114.91468306   181.91198121
 H     13  12  10     1.099763614826   107.67505487   131.59766707
 H     15  14  13     1.087453765959   119.79025355   359.69719738
 H     16  15  14     1.088581772931   119.90624276   179.60994461
 H     17  16  15     1.084917804373   119.88586717   179.84953878
 H     19  18  17     0.969074366608   107.39013201     3.95038741
 H     20  18  17     1.084563254877   119.14131584   180.13637145

---------------------------
INTERNAL COORDINATES (A.U.)
---------------------------
 C      0   0   0     0.000000000000     0.00000000     0.00000000
 C      1   0   0     2.917056552854     0.00000000     0.00000000
 O      2   1   0     2.737366223105   114.09785150     0.00000000
 C      3   2   1     2.583334958036   122.98600843   320.98791309
 O      4   3   2     2.304118741717   122.97423754    59.44048382
 C      4   3   2     2.834718460482   113.60196122   252.51766748
 C      6   4   3     2.566050930217   124.76481803   333.01371189
 C      7   6   4     2.862560342918   127.80175999   357.68589987
 N      7   6   4     2.642784710091   119.76284906   181.33168945
 C      9   7   6     2.588940052612   124.93621266     6.34096830
 S     10   9   7     3.125380445864   121.76247569   175.80522478
 N     10   9   7     2.592603961722   116.52107250   355.68895785
 C     12  10   9     2.787424795219   125.01897297   353.47143725
 C     13  12  10     2.884595270823   110.63529320   249.85776588
 C     14  13  12     2.658916757669   120.45801742   234.41490121
 C     15  14  13     2.654832837957   120.66605570   180.96244631
 C     16  15  14     2.655427898703   119.65832825     0.03600602
 C     17  16  15     2.648263538002   119.86122726     0.15439435
 O     18  17  16     2.564107202866   120.01667002   179.53003786
 C     18  17  16     2.642498099596   120.34995519   359.88202517
 H      1   2   3     2.073851689716   110.86105344   307.41211349
 H      1   2   3     2.072042568955   110.33058295   187.79723930
 H      1   2   3     2.074462073971   111.24015667    68.47111282
 H      2   1   3     2.074114694955   109.22009582   122.01414357
 H      2   1   3     2.074771439312   108.13111023   238.59586256
 H      8   7   6     2.073743150560   110.86946607   316.08954708
 H      8   7   6     2.072737184382   112.55160489   196.47804053
 H      8   7   6     2.072649890765   110.75122766    75.86729486
 H      9   7   6     1.903985309958   119.66806916   181.79142983
 H     12  10   9     1.912319852066   114.91468306   181.91198121
 H     13  12  10     2.078252044072   107.67505487   131.59766707
 H     15  14  13     2.054989800964   119.79025355   359.69719738
 H     16  15  14     2.057121425218   119.90624276   179.60994461
 H     17  16  15     2.050197528080   119.88586717   179.84953878
 H     19  18  17     1.831285156293   107.39013201     3.95038741
 H     20  18  17     2.049527526632   119.14131584   180.13637145

---------------------
BASIS SET INFORMATION
---------------------
There are 5 groups of distinct atoms

 Group   1 Type C   : 18s5p2d1f contracted to 4s3p2d1f pattern {8811/311/11/1}
 Group   2 Type O   : 18s5p2d1f contracted to 4s3p2d1f pattern {8811/311/11/1}
 Group   3 Type N   : 18s5p2d1f contracted to 4s3p2d1f pattern {8811/311/11/1}
 Group   4 Type S   : 41s16p2d1f contracted to 5s4p2d1f pattern {13131311/7711/11/1}
 Group   5 Type H   : 5s2p1d contracted to 3s2p1d pattern {311/11/1}

Atom   0C    basis set group =>   1
Atom   1C    basis set group =>   1
Atom   2O    basis set group =>   2
Atom   3C    basis set group =>   1
Atom   4O    basis set group =>   2
Atom   5C    basis set group =>   1
Atom   6C    basis set group =>   1
Atom   7C    basis set group =>   1
Atom   8N    basis set group =>   3
Atom   9C    basis set group =>   1
Atom  10S    basis set group =>   4
Atom  11N    basis set group =>   3
Atom  12C    basis set group =>   1
Atom  13C    basis set group =>   1
Atom  14C    basis set group =>   1
Atom  15C    basis set group =>   1
Atom  16C    basis set group =>   1
Atom  17C    basis set group =>   1
Atom  18O    basis set group =>   2
Atom  19C    basis set group =>   1
Atom  20H    basis set group =>   5
Atom  21H    basis set group =>   5
Atom  22H    basis set group =>   5
Atom  23H    basis set group =>   5
Atom  24H    basis set group =>   5
Atom  25H    basis set group =>   5
Atom  26H    basis set group =>   5
Atom  27H    basis set group =>   5
Atom  28H    basis set group =>   5
Atom  29H    basis set group =>   5
Atom  30H    basis set group =>   5
Atom  31H    basis set group =>   5
Atom  32H    basis set group =>   5
Atom  33H    basis set group =>   5
Atom  34H    basis set group =>   5
Atom  35H    basis set group =>   5
---------------------------------
AUXILIARY/C BASIS SET INFORMATION
---------------------------------
There are 5 groups of distinct atoms

 Group   1 Type C   : 8s6p5d3f1g contracted to 8s6p5d3f1g pattern {11111111/111111/11111/111/1}
 Group   2 Type O   : 8s6p5d3f1g contracted to 8s6p5d3f1g pattern {11111111/111111/11111/111/1}
 Group   3 Type N   : 8s6p5d3f1g contracted to 8s6p5d3f1g pattern {11111111/111111/11111/111/1}
 Group   4 Type S   : 10s8p7d5f2g contracted to 10s8p7d5f2g pattern {1111111111/11111111/1111111/11111/11}
 Group   5 Type H   : 4s3p2d1f contracted to 4s3p2d1f pattern {1111/111/11/1}

Atom   0C    basis set group =>   1
Atom   1C    basis set group =>   1
Atom   2O    basis set group =>   2
Atom   3C    basis set group =>   1
Atom   4O    basis set group =>   2
Atom   5C    basis set group =>   1
Atom   6C    basis set group =>   1
Atom   7C    basis set group =>   1
Atom   8N    basis set group =>   3
Atom   9C    basis set group =>   1
Atom  10S    basis set group =>   4
Atom  11N    basis set group =>   3
Atom  12C    basis set group =>   1
Atom  13C    basis set group =>   1
Atom  14C    basis set group =>   1
Atom  15C    basis set group =>   1
Atom  16C    basis set group =>   1
Atom  17C    basis set group =>   1
Atom  18O    basis set group =>   2
Atom  19C    basis set group =>   1
Atom  20H    basis set group =>   5
Atom  21H    basis set group =>   5
Atom  22H    basis set group =>   5
Atom  23H    basis set group =>   5
Atom  24H    basis set group =>   5
Atom  25H    basis set group =>   5
Atom  26H    basis set group =>   5
Atom  27H    basis set group =>   5
Atom  28H    basis set group =>   5
Atom  29H    basis set group =>   5
Atom  30H    basis set group =>   5
Atom  31H    basis set group =>   5
Atom  32H    basis set group =>   5
Atom  33H    basis set group =>   5
Atom  34H    basis set group =>   5
Atom  35H    basis set group =>   5
------------------------------------------------------------------------------
                           ORCA GTO INTEGRAL CALCULATION
------------------------------------------------------------------------------
------------------------------------------------------------------------------
                   ___                                                        
                  /   \      - P O W E R E D   B Y -                         
                 /     \                                                     
                 |  |  |   _    _      __       _____    __    __             
                 |  |  |  | |  | |    /  \     |  _  \  |  |  /  |          
                  \  \/   | |  | |   /    \    | | | |  |  | /  /          
                 / \  \   | |__| |  /  /\  \   | |_| |  |  |/  /          
                |  |  |   |  __  | /  /__\  \  |    /   |      \           
                |  |  |   | |  | | |   __   |  |    \   |  |\   \          
                \     /   | |  | | |  |  |  |  | |\  \  |  | \   \       
                 \___/    |_|  |_| |__|  |__|  |_| \__\ |__|  \__/        
                                                                              
                      - O R C A' S   B I G   F R I E N D -                    
                                      &                                       
                       - I N T E G R A L  F E E D E R -                       
                                                                              
 v1 FN, 2020, v2 2021                                                         
------------------------------------------------------------------------------


Reading SHARK input file CONFS/Conf379.orca.SHARKINP.tmp ... ok
----------------------
SHARK INTEGRAL PACKAGE
----------------------

Number of atoms                             ...     36
Number of basis functions                   ...    828
Number of shells                            ...    298
Maximum angular momentum                    ...      3
Integral batch strategy                     ... SHARK/LIBINT Hybrid
RI-J (if used) integral strategy            ... SPLIT-RIJ (Revised 2003 algorithm where possible)
Printlevel                                  ...      1
Contraction scheme used                     ... SEGMENTED contraction
Coulomb Range Separation                    ... NOT USED
Exchange Range Separation                   ... NOT USED
Finite Nucleus Model                        ... NOT USED
Auxiliary Coulomb fitting basis             ... NOT available
Auxiliary J/K fitting basis                 ... NOT available
Auxiliary Correlation fitting basis         ... AVAILABLE
   # of basis functions in Aux-C            ...   2141
   # of shells in Aux-C                     ...    629
   Maximum angular momentum in Aux-C        ...      4
Auxiliary 'external' fitting basis          ... NOT available
Integral threshold                          ...     2.500000e-11
Primitive cut-off                           ...     2.500000e-12
Primitive pair pre-selection threshold      ...     2.500000e-12

Calculating pre-screening integrals         ... done (  0.6 sec) Dimension = 298
Organizing shell pair data                  ... done (  1.3 sec)
Shell pair information
Total number of shell pairs                 ...     44551
Shell pairs after pre-screening             ...     33838
Total number of primitive shell pairs       ...    234348
Primitive shell pairs kept                  ...     96488
          la=0 lb=0:   6746 shell pairs
          la=1 lb=0:   9398 shell pairs
          la=1 lb=1:   3320 shell pairs
          la=2 lb=0:   5405 shell pairs
          la=2 lb=1:   3727 shell pairs
          la=2 lb=2:   1057 shell pairs
          la=3 lb=0:   1957 shell pairs
          la=3 lb=1:   1335 shell pairs
          la=3 lb=2:    741 shell pairs
          la=3 lb=3:    152 shell pairs

Calculating one electron integrals          ... done (  0.4 sec)
Calculating RI/C V-Matrix + Cholesky decomp.... done (  1.2 sec)
Calculating Nuclear repulsion               ... done (  0.0 sec) ENN=   1716.116678554268 Eh

SHARK setup successfully completed in   4.2 seconds

Maximum memory used throughout the entire GTOINT-calculation: 501.7 MB
-------------------------------------------------------------------------------
                                 ORCA SCF
-------------------------------------------------------------------------------

------------
SCF SETTINGS
------------
Hamiltonian:
 Ab initio Hamiltonian  Method          .... Hartree-Fock(GTOs)


General Settings:
 Integral files         IntName         .... CONFS/Conf379.orca
 Hartree-Fock type      HFTyp           .... RHF
 Total Charge           Charge          ....    0
 Multiplicity           Mult            ....    1
 Number of Electrons    NEL             ....  154
 Basis Dimension        Dim             ....  828
 Nuclear Repulsion      ENuc            ....   1716.1166785543 Eh

Convergence Acceleration:
 DIIS                   CNVDIIS         .... on
   Start iteration      DIISMaxIt       ....    12
   Startup error        DIISStart       ....  0.200000
   # of expansion vecs  DIISMaxEq       ....     5
   Bias factor          DIISBfac        ....   1.050
   Max. coefficient     DIISMaxC        ....  10.000
 Trust-Rad. Augm. Hess. CNVTRAH         .... auto
   Auto Start mean grad. ratio tolernc. ....  1.125000
   Auto Start start iteration           ....    20
   Auto Start num. interpolation iter.  ....    10
   Max. Number of Micro iterations      ....    16
   Max. Number of Macro iterations      .... Maxiter - #DIIS iter
   Number of Davidson start vectors     ....     2
   Converg. threshold I  (grad. norm)   ....   1.000e-05
   Converg. threshold II (energy diff.) ....   1.000e-08
   Grad. Scal. Fac. for Micro threshold ....   0.100
   Minimum threshold for Micro iter.    ....   0.010
   NR start threshold (gradient norm)   ....   0.001
   Initial trust radius                 ....   0.400
   Minimum AH scaling param. (alpha)    ....   1.000
   Maximum AH scaling param. (alpha)    .... 1000.000
   Orbital update algorithm             .... Taylor
   White noise on init. David. guess    .... on
   Maximum white noise                  ....   0.010
   Quad. conv. algorithm                .... NR
 SOSCF                  CNVSOSCF        .... on
   Start iteration      SOSCFMaxIt      ....   150
   Startup grad/error   SOSCFStart      ....  0.003300
 Level Shifting         CNVShift        .... on
   Level shift para.    LevelShift      ....    0.2500
   Turn off err/grad.   ShiftErr        ....    0.0010
 Zerner damping         CNVZerner       .... off
 Static damping         CNVDamp         .... on
   Fraction old density DampFac         ....    0.7000
   Max. Damping (<1)    DampMax         ....    0.9800
   Min. Damping (>=0)   DampMin         ....    0.0000
   Turn off err/grad.   DampErr         ....    0.1000
 Fernandez-Rico         CNVRico         .... off

SCF Procedure:
 Maximum # iterations   MaxIter         ....   125
 SCF integral mode      SCFMode         .... Direct
   Integral package                     .... SHARK and LIBINT hybrid scheme
 Reset frequency        DirectResetFreq ....    20
 Integral Threshold     Thresh          ....  2.500e-11 Eh
 Primitive CutOff       TCut            ....  2.500e-12 Eh

Convergence Tolerance:
 Convergence Check Mode ConvCheckMode   .... Total+1el-Energy
 Convergence forced     ConvForced      .... 1
 Energy Change          TolE            ....  1.000e-08 Eh
 1-El. energy change                    ....  1.000e-05 Eh
 Orbital Gradient       TolG            ....  1.000e-05
 Orbital Rotation angle TolX            ....  1.000e-05
 DIIS Error             TolErr          ....  5.000e-07


Diagonalization of the overlap matrix:
Smallest eigenvalue                        ... 3.432e-05
Time for diagonalization                   ...    0.143 sec
Threshold for overlap eigenvalues          ... 1.000e-08
Number of eigenvalues below threshold      ... 0
Time for construction of square roots      ...    0.080 sec
Total time needed                          ...    0.226 sec

Time for model grid setup =    1.480 sec

------------------------------
INITIAL GUESS: MODEL POTENTIAL
------------------------------
Loading Hartree-Fock densities                     ... done
Calculating cut-offs                               ... done
Initializing the effective Hamiltonian             ... done
Setting up the integral package (SHARK)            ... done
Starting the Coulomb interaction                   ... done (   4.7 sec)
Reading the grid                                   ... done
Mapping shells                                     ... done
Starting the XC term evaluation                    ... done (   1.5 sec)
Transforming the Hamiltonian                       ... done (   0.1 sec)
Diagonalizing the Hamiltonian                      ... done (   0.1 sec)
Back transforming the eigenvectors                 ... done (   0.0 sec)
Now organizing SCF variables                       ... done
                      ------------------
                      INITIAL GUESS DONE (   8.0 sec)
                      ------------------
--------------
SCF ITERATIONS
--------------
ITER       Energy         Delta-E        Max-DP      RMS-DP      [F,P]     Damp
               ***  Starting incremental Fock matrix formation  ***
  0  -1270.0001888456   0.000000000000 0.04931693  0.00043137  0.3047906 0.7000
  1  -1270.2680141213  -0.267825275652 0.03608131  0.00034719  0.1782404 0.7000
                               ***Turning on DIIS***
  2  -1270.4349561616  -0.166942040296 0.02583761  0.00023327  0.1097077 0.7000
  3  -1272.5903853089  -2.155429147295 0.06313442  0.00051004  0.0827952 0.0000
  4  -1270.7414687189   1.848916590003 0.01007498  0.00009882  0.0069244 0.0000
  5  -1270.8045628342  -0.063094115372 0.00487118  0.00005319  0.0036956 0.0000
                      *** Initiating the SOSCF procedure ***
                           *** Shutting down DIIS ***
                      *** Re-Reading the Fockian *** 
                      *** Removing any level shift *** 
ITER      Energy       Delta-E        Grad      Rot      Max-DP    RMS-DP
  6  -1270.78309503   0.0214678038  0.001820  0.001820  0.002493  0.000027
               *** Restarting incremental Fock matrix formation ***
  7  -1270.79763886  -0.0145438271  0.001041  0.002683  0.001514  0.000017
  8  -1270.79768902  -0.0000501662  0.000483  0.003211  0.001696  0.000019
  9  -1270.79770839  -0.0000193707  0.000188  0.000377  0.000367  0.000005
 10  -1270.79771090  -0.0000025049  0.000057  0.000152  0.000122  0.000001
 11  -1270.79771115  -0.0000002471  0.000022  0.000133  0.000063  0.000001
 12  -1270.79771122  -0.0000000688  0.000011  0.000041  0.000028  0.000000
                 **** Energy Check signals convergence ****
              ***Rediagonalizing the Fockian in SOSCF/NRSCF***

               *****************************************************
               *                     SUCCESS                       *
               *           SCF CONVERGED AFTER  13 CYCLES          *
               *****************************************************


----------------
TOTAL SCF ENERGY
----------------

Total Energy       :        -1270.79771122 Eh          -34580.16374 eV

Components:
Nuclear Repulsion  :         1716.11667855 Eh           46697.90890 eV
Electronic Energy  :        -2986.91438977 Eh          -81278.07264 eV
One Electron Energy:        -5153.53061138 Eh         -140234.69733 eV
Two Electron Energy:         2166.61622160 Eh           58956.62469 eV

Virial components:
Potential Energy   :        -2539.75061355 Eh          -69110.12769 eV
Kinetic Energy     :         1268.95290233 Eh           34529.96394 eV
Virial Ratio       :            2.00145380


---------------
SCF CONVERGENCE
---------------

  Last Energy change         ...   -3.7694e-09  Tolerance :   1.0000e-08
  Last MAX-Density change    ...    5.0752e-06  Tolerance :   1.0000e-07
  Last RMS-Density change    ...    9.0953e-08  Tolerance :   5.0000e-09
  Last Orbital Gradient      ...    2.7710e-06  Tolerance :   1.0000e-05
  Last Orbital Rotation      ...    7.6777e-06  Tolerance :   1.0000e-05

             **** THE GBW FILE WAS UPDATED (CONFS/Conf379.orca.gbw) ****
             **** DENSITY CONFS/Conf379.orca.scfp WAS UPDATED ****
             **** ENERGY FILE WAS UPDATED (CONFS/Conf379.orca.en.tmp) ****
             **** THE GBW FILE WAS UPDATED (CONFS/Conf379.orca.gbw) ****
             **** DENSITY CONFS/Conf379.orca.scfp WAS UPDATED ****
----------------
ORBITAL ENERGIES
----------------

  NO   OCC          E(Eh)            E(eV) 
   0   2.0000     -91.888838     -2500.4224 
   1   2.0000     -20.595507      -560.4322 
   2   2.0000     -20.587383      -560.2112 
   3   2.0000     -20.551396      -559.2319 
   4   2.0000     -15.628742      -425.2797 
   5   2.0000     -15.607973      -424.7145 
   6   2.0000     -11.396242      -310.1075 
   7   2.0000     -11.384067      -309.7762 
   8   2.0000     -11.335370      -308.4511 
   9   2.0000     -11.311717      -307.8075 
  10   2.0000     -11.307157      -307.6834 
  11   2.0000     -11.306092      -307.6544 
  12   2.0000     -11.259647      -306.3906 
  13   2.0000     -11.259307      -306.3813 
  14   2.0000     -11.257153      -306.3227 
  15   2.0000     -11.251726      -306.1750 
  16   2.0000     -11.241413      -305.8944 
  17   2.0000     -11.237450      -305.7866 
  18   2.0000     -11.234309      -305.7011 
  19   2.0000     -11.222457      -305.3786 
  20   2.0000      -8.893908      -242.0156 
  21   2.0000      -6.575487      -178.9281 
  22   2.0000      -6.573478      -178.8734 
  23   2.0000      -6.572893      -178.8575 
  24   2.0000      -1.445954       -39.3464 
  25   2.0000      -1.415276       -38.5116 
  26   2.0000      -1.356598       -36.9149 
  27   2.0000      -1.339804       -36.4579 
  28   2.0000      -1.237864       -33.6840 
  29   2.0000      -1.155827       -31.4517 
  30   2.0000      -1.120575       -30.4924 
  31   2.0000      -1.043615       -28.3982 
  32   2.0000      -1.032316       -28.0907 
  33   2.0000      -1.013301       -27.5733 
  34   2.0000      -0.999062       -27.1859 
  35   2.0000      -0.984254       -26.7829 
  36   2.0000      -0.923315       -25.1247 
  37   2.0000      -0.892060       -24.2742 
  38   2.0000      -0.849413       -23.1137 
  39   2.0000      -0.838402       -22.8141 
  40   2.0000      -0.831837       -22.6354 
  41   2.0000      -0.822744       -22.3880 
  42   2.0000      -0.744329       -20.2542 
  43   2.0000      -0.727956       -19.8087 
  44   2.0000      -0.726429       -19.7671 
  45   2.0000      -0.693460       -18.8700 
  46   2.0000      -0.684977       -18.6392 
  47   2.0000      -0.679480       -18.4896 
  48   2.0000      -0.673827       -18.3358 
  49   2.0000      -0.666612       -18.1394 
  50   2.0000      -0.647882       -17.6298 
  51   2.0000      -0.645573       -17.5669 
  52   2.0000      -0.636142       -17.3103 
  53   2.0000      -0.611367       -16.6361 
  54   2.0000      -0.604070       -16.4376 
  55   2.0000      -0.601917       -16.3790 
  56   2.0000      -0.599031       -16.3005 
  57   2.0000      -0.576673       -15.6921 
  58   2.0000      -0.573927       -15.6173 
  59   2.0000      -0.568302       -15.4643 
  60   2.0000      -0.557326       -15.1656 
  61   2.0000      -0.547661       -14.9026 
  62   2.0000      -0.536312       -14.5938 
  63   2.0000      -0.526033       -14.3141 
  64   2.0000      -0.519239       -14.1292 
  65   2.0000      -0.511520       -13.9192 
  66   2.0000      -0.499473       -13.5914 
  67   2.0000      -0.493483       -13.4284 
  68   2.0000      -0.481121       -13.0920 
  69   2.0000      -0.464667       -12.6442 
  70   2.0000      -0.455417       -12.3925 
  71   2.0000      -0.448044       -12.1919 
  72   2.0000      -0.354438        -9.6447 
  73   2.0000      -0.347643        -9.4598 
  74   2.0000      -0.328120        -8.9286 
  75   2.0000      -0.318786        -8.6746 
  76   2.0000      -0.315927        -8.5968 
  77   0.0000       0.072836         1.9820 
  78   0.0000       0.105992         2.8842 
  79   0.0000       0.120561         3.2806 
  80   0.0000       0.132790         3.6134 
  81   0.0000       0.138635         3.7725 
  82   0.0000       0.144714         3.9379 
  83   0.0000       0.150663         4.0997 
  84   0.0000       0.158517         4.3135 
  85   0.0000       0.162077         4.4103 
  86   0.0000       0.165613         4.5065 
  87   0.0000       0.177793         4.8380 
  88   0.0000       0.191429         5.2090 
  89   0.0000       0.197994         5.3877 
  90   0.0000       0.202643         5.5142 
  91   0.0000       0.207636         5.6501 
  92   0.0000       0.212671         5.7871 
  93   0.0000       0.219365         5.9692 
  94   0.0000       0.221233         6.0201 
  95   0.0000       0.235365         6.4046 
  96   0.0000       0.239585         6.5194 
  97   0.0000       0.246050         6.6954 
  98   0.0000       0.254689         6.9304 
  99   0.0000       0.278580         7.5805 
 100   0.0000       0.294370         8.0102 
 101   0.0000       0.310072         8.4375 
 102   0.0000       0.314813         8.5665 
 103   0.0000       0.318053         8.6547 
 104   0.0000       0.329226         8.9587 
 105   0.0000       0.334223         9.0947 
 106   0.0000       0.343756         9.3541 
 107   0.0000       0.348560         9.4848 
 108   0.0000       0.353688         9.6243 
 109   0.0000       0.365753         9.9526 
 110   0.0000       0.366974         9.9859 
 111   0.0000       0.377380        10.2690 
 112   0.0000       0.384510        10.4631 
 113   0.0000       0.392789        10.6883 
 114   0.0000       0.398060        10.8318 
 115   0.0000       0.407846        11.0981 
 116   0.0000       0.422049        11.4845 
 117   0.0000       0.426645        11.6096 
 118   0.0000       0.435644        11.8545 
 119   0.0000       0.442855        12.0507 
 120   0.0000       0.445777        12.1302 
 121   0.0000       0.452245        12.3062 
 122   0.0000       0.455097        12.3838 
 123   0.0000       0.460292        12.5252 
 124   0.0000       0.464020        12.6266 
 125   0.0000       0.471076        12.8186 
 126   0.0000       0.483988        13.1700 
 127   0.0000       0.489204        13.3119 
 128   0.0000       0.494638        13.4598 
 129   0.0000       0.499079        13.5806 
 130   0.0000       0.505138        13.7455 
 131   0.0000       0.508181        13.8283 
 132   0.0000       0.512556        13.9474 
 133   0.0000       0.515393        14.0246 
 134   0.0000       0.528227        14.3738 
 135   0.0000       0.531387        14.4598 
 136   0.0000       0.535316        14.5667 
 137   0.0000       0.542008        14.7488 
 138   0.0000       0.544071        14.8049 
 139   0.0000       0.553006        15.0481 
 140   0.0000       0.556458        15.1420 
 141   0.0000       0.562318        15.3015 
 142   0.0000       0.563473        15.3329 
 143   0.0000       0.569927        15.5085 
 144   0.0000       0.576307        15.6821 
 145   0.0000       0.579028        15.7562 
 146   0.0000       0.581343        15.8192 
 147   0.0000       0.593990        16.1633 
 148   0.0000       0.595302        16.1990 
 149   0.0000       0.599317        16.3082 
 150   0.0000       0.601840        16.3769 
 151   0.0000       0.609116        16.5749 
 152   0.0000       0.610165        16.6034 
 153   0.0000       0.615826        16.7575 
 154   0.0000       0.622932        16.9508 
 155   0.0000       0.626619        17.0512 
 156   0.0000       0.629791        17.1375 
 157   0.0000       0.631864        17.1939 
 158   0.0000       0.638347        17.3703 
 159   0.0000       0.642319        17.4784 
 160   0.0000       0.647728        17.6256 
 161   0.0000       0.650855        17.7107 
 162   0.0000       0.655503        17.8371 
 163   0.0000       0.662000        18.0139 
 164   0.0000       0.670522        18.2458 
 165   0.0000       0.673224        18.3194 
 166   0.0000       0.681385        18.5414 
 167   0.0000       0.685709        18.6591 
 168   0.0000       0.690205        18.7814 
 169   0.0000       0.696011        18.9394 
 170   0.0000       0.702449        19.1146 
 171   0.0000       0.704219        19.1628 
 172   0.0000       0.713603        19.4181 
 173   0.0000       0.724414        19.7123 
 174   0.0000       0.726929        19.7807 
 175   0.0000       0.730757        19.8849 
 176   0.0000       0.741258        20.1707 
 177   0.0000       0.746580        20.3155 
 178   0.0000       0.749819        20.4036 
 179   0.0000       0.755527        20.5589 
 180   0.0000       0.758011        20.6265 
 181   0.0000       0.767893        20.8954 
 182   0.0000       0.782469        21.2921 
 183   0.0000       0.785355        21.3706 
 184   0.0000       0.795877        21.6569 
 185   0.0000       0.809602        22.0304 
 186   0.0000       0.816305        22.2128 
 187   0.0000       0.823109        22.3979 
 188   0.0000       0.830139        22.5892 
 189   0.0000       0.831925        22.6378 
 190   0.0000       0.843243        22.9458 
 191   0.0000       0.844616        22.9832 
 192   0.0000       0.852767        23.2050 
 193   0.0000       0.859101        23.3773 
 194   0.0000       0.869707        23.6659 
 195   0.0000       0.875012        23.8103 
 196   0.0000       0.887993        24.1635 
 197   0.0000       0.888310        24.1721 
 198   0.0000       0.896259        24.3885 
 199   0.0000       0.905021        24.6269 
 200   0.0000       0.914029        24.8720 
 201   0.0000       0.925037        25.1715 
 202   0.0000       0.928278        25.2597 
 203   0.0000       0.935238        25.4491 
 204   0.0000       0.946672        25.7603 
 205   0.0000       0.956861        26.0375 
 206   0.0000       0.963035        26.2055 
 207   0.0000       0.968743        26.3608 
 208   0.0000       0.972126        26.4529 
 209   0.0000       0.974841        26.5268 
 210   0.0000       0.982514        26.7356 
 211   0.0000       0.988301        26.8930 
 212   0.0000       0.992823        27.0161 
 213   0.0000       1.004168        27.3248 
 214   0.0000       1.007549        27.4168 
 215   0.0000       1.017660        27.6919 
 216   0.0000       1.028262        27.9804 
 217   0.0000       1.037769        28.2391 
 218   0.0000       1.040537        28.3144 
 219   0.0000       1.047321        28.4991 
 220   0.0000       1.049429        28.5564 
 221   0.0000       1.058643        28.8071 
 222   0.0000       1.078024        29.3345 
 223   0.0000       1.079837        29.3838 
 224   0.0000       1.090293        29.6684 
 225   0.0000       1.094656        29.7871 
 226   0.0000       1.102004        29.9871 
 227   0.0000       1.111615        30.2486 
 228   0.0000       1.116535        30.3825 
 229   0.0000       1.119379        30.4598 
 230   0.0000       1.124984        30.6124 
 231   0.0000       1.131093        30.7786 
 232   0.0000       1.138653        30.9843 
 233   0.0000       1.150695        31.3120 
 234   0.0000       1.162343        31.6290 
 235   0.0000       1.164362        31.6839 
 236   0.0000       1.173173        31.9237 
 237   0.0000       1.174451        31.9584 
 238   0.0000       1.180102        32.1122 
 239   0.0000       1.189392        32.3650 
 240   0.0000       1.195326        32.5265 
 241   0.0000       1.203283        32.7430 
 242   0.0000       1.210732        32.9457 
 243   0.0000       1.216583        33.1049 
 244   0.0000       1.222237        33.2588 
 245   0.0000       1.229756        33.4634 
 246   0.0000       1.235481        33.6191 
 247   0.0000       1.246715        33.9248 
 248   0.0000       1.251027        34.0422 
 249   0.0000       1.266566        34.4650 
 250   0.0000       1.268458        34.5165 
 251   0.0000       1.273083        34.6423 
 252   0.0000       1.280171        34.8352 
 253   0.0000       1.283329        34.9212 
 254   0.0000       1.297410        35.3043 
 255   0.0000       1.301550        35.4170 
 256   0.0000       1.307022        35.5659 
 257   0.0000       1.316567        35.8256 
 258   0.0000       1.326817        36.1045 
 259   0.0000       1.333521        36.2870 
 260   0.0000       1.339267        36.4433 
 261   0.0000       1.348840        36.7038 
 262   0.0000       1.349847        36.7312 
 263   0.0000       1.360998        37.0346 
 264   0.0000       1.371388        37.3174 
 265   0.0000       1.385065        37.6895 
 266   0.0000       1.392364        37.8882 
 267   0.0000       1.396527        38.0014 
 268   0.0000       1.403153        38.1817 
 269   0.0000       1.416434        38.5431 
 270   0.0000       1.419489        38.6263 
 271   0.0000       1.426873        38.8272 
 272   0.0000       1.439301        39.1654 
 273   0.0000       1.445710        39.3398 
 274   0.0000       1.457106        39.6499 
 275   0.0000       1.465787        39.8861 
 276   0.0000       1.467864        39.9426 
 277   0.0000       1.484981        40.4084 
 278   0.0000       1.485778        40.4301 
 279   0.0000       1.488915        40.5154 
 280   0.0000       1.490463        40.5576 
 281   0.0000       1.495539        40.6957 
 282   0.0000       1.499589        40.8059 
 283   0.0000       1.504646        40.9435 
 284   0.0000       1.517700        41.2987 
 285   0.0000       1.522110        41.4187 
 286   0.0000       1.531081        41.6628 
 287   0.0000       1.536765        41.8175 
 288   0.0000       1.542242        41.9665 
 289   0.0000       1.547604        42.1125 
 290   0.0000       1.550142        42.1815 
 291   0.0000       1.561633        42.4942 
 292   0.0000       1.562842        42.5271 
 293   0.0000       1.587760        43.2051 
 294   0.0000       1.595024        43.4028 
 295   0.0000       1.597276        43.4641 
 296   0.0000       1.602614        43.6093 
 297   0.0000       1.614756        43.9398 
 298   0.0000       1.620233        44.0888 
 299   0.0000       1.626538        44.2604 
 300   0.0000       1.630180        44.3595 
 301   0.0000       1.642549        44.6960 
 302   0.0000       1.650391        44.9094 
 303   0.0000       1.656221        45.0681 
 304   0.0000       1.668903        45.4131 
 305   0.0000       1.675111        45.5821 
 306   0.0000       1.678983        45.6875 
 307   0.0000       1.680263        45.7223 
 308   0.0000       1.706507        46.4364 
 309   0.0000       1.711163        46.5631 
 310   0.0000       1.715792        46.6891 
 311   0.0000       1.726661        46.9848 
 312   0.0000       1.731607        47.1194 
 313   0.0000       1.734132        47.1881 
 314   0.0000       1.745233        47.4902 
 315   0.0000       1.755853        47.7792 
 316   0.0000       1.763126        47.9771 
 317   0.0000       1.771080        48.1935 
 318   0.0000       1.784820        48.5674 
 319   0.0000       1.795973        48.8709 
 320   0.0000       1.810934        49.2780 
 321   0.0000       1.825689        49.6795 
 322   0.0000       1.833873        49.9022 
 323   0.0000       1.847399        50.2703 
 324   0.0000       1.856703        50.5235 
 325   0.0000       1.871925        50.9377 
 326   0.0000       1.892527        51.4983 
 327   0.0000       1.900683        51.7202 
 328   0.0000       1.908328        51.9282 
 329   0.0000       1.919039        52.2197 
 330   0.0000       1.934420        52.6383 
 331   0.0000       1.939493        52.7763 
 332   0.0000       1.949020        53.0355 
 333   0.0000       1.964006        53.4433 
 334   0.0000       1.969664        53.5973 
 335   0.0000       1.984265        53.9946 
 336   0.0000       1.989095        54.1260 
 337   0.0000       2.003562        54.5197 
 338   0.0000       2.021608        55.0107 
 339   0.0000       2.024614        55.0925 
 340   0.0000       2.031607        55.2828 
 341   0.0000       2.036050        55.4037 
 342   0.0000       2.049019        55.7567 
 343   0.0000       2.056304        55.9549 
 344   0.0000       2.072205        56.3876 
 345   0.0000       2.101054        57.1726 
 346   0.0000       2.116054        57.5807 
 347   0.0000       2.129465        57.9457 
 348   0.0000       2.142824        58.3092 
 349   0.0000       2.155680        58.6590 
 350   0.0000       2.173112        59.1334 
 351   0.0000       2.191826        59.6426 
 352   0.0000       2.211917        60.1893 
 353   0.0000       2.221243        60.4431 
 354   0.0000       2.239490        60.9396 
 355   0.0000       2.264352        61.6162 
 356   0.0000       2.276278        61.9407 
 357   0.0000       2.289159        62.2912 
 358   0.0000       2.299077        62.5611 
 359   0.0000       2.311421        62.8970 
 360   0.0000       2.318075        63.0780 
 361   0.0000       2.338425        63.6318 
 362   0.0000       2.350398        63.9576 
 363   0.0000       2.358346        64.1739 
 364   0.0000       2.366404        64.3931 
 365   0.0000       2.375253        64.6339 
 366   0.0000       2.391404        65.0734 
 367   0.0000       2.402240        65.3683 
 368   0.0000       2.417574        65.7855 
 369   0.0000       2.435614        66.2764 
 370   0.0000       2.441804        66.4449 
 371   0.0000       2.456975        66.8577 
 372   0.0000       2.474701        67.3400 
 373   0.0000       2.479310        67.4654 
 374   0.0000       2.495043        67.8936 
 375   0.0000       2.505944        68.1902 
 376   0.0000       2.513599        68.3985 
 377   0.0000       2.520605        68.5892 
 378   0.0000       2.546039        69.2813 
 379   0.0000       2.550936        69.4145 
 380   0.0000       2.577600        70.1401 
 381   0.0000       2.588271        70.4304 
 382   0.0000       2.591376        70.5149 
 383   0.0000       2.611897        71.0733 
 384   0.0000       2.617714        71.2316 
 385   0.0000       2.624919        71.4277 
 386   0.0000       2.636309        71.7376 
 387   0.0000       2.653236        72.1982 
 388   0.0000       2.660644        72.3998 
 389   0.0000       2.678782        72.8934 
 390   0.0000       2.682219        72.9869 
 391   0.0000       2.697059        73.3907 
 392   0.0000       2.701490        73.5113 
 393   0.0000       2.707864        73.6847 
 394   0.0000       2.729348        74.2693 
 395   0.0000       2.735731        74.4430 
 396   0.0000       2.744322        74.6768 
 397   0.0000       2.750952        74.8572 
 398   0.0000       2.759663        75.0942 
 399   0.0000       2.766716        75.2862 
 400   0.0000       2.784598        75.7728 
 401   0.0000       2.792059        75.9758 
 402   0.0000       2.798663        76.1555 
 403   0.0000       2.815164        76.6045 
 404   0.0000       2.833110        77.0928 
 405   0.0000       2.837619        77.2155 
 406   0.0000       2.843385        77.3724 
 407   0.0000       2.852699        77.6259 
 408   0.0000       2.857295        77.7510 
 409   0.0000       2.869052        78.0709 
 410   0.0000       2.878784        78.3357 
 411   0.0000       2.883612        78.4671 
 412   0.0000       2.885703        78.5240 
 413   0.0000       2.904307        79.0302 
 414   0.0000       2.906820        79.0986 
 415   0.0000       2.928492        79.6883 
 416   0.0000       2.934017        79.8387 
 417   0.0000       2.940020        80.0020 
 418   0.0000       2.942982        80.0826 
 419   0.0000       2.949219        80.2523 
 420   0.0000       2.960720        80.5653 
 421   0.0000       2.973831        80.9221 
 422   0.0000       2.981748        81.1375 
 423   0.0000       2.990548        81.3770 
 424   0.0000       2.991481        81.4023 
 425   0.0000       3.006744        81.8177 
 426   0.0000       3.009627        81.8961 
 427   0.0000       3.025026        82.3151 
 428   0.0000       3.030499        82.4641 
 429   0.0000       3.037158        82.6453 
 430   0.0000       3.043929        82.8295 
 431   0.0000       3.051945        83.0476 
 432   0.0000       3.060255        83.2738 
 433   0.0000       3.072666        83.6115 
 434   0.0000       3.079671        83.8021 
 435   0.0000       3.086017        83.9748 
 436   0.0000       3.090049        84.0845 
 437   0.0000       3.099427        84.3397 
 438   0.0000       3.103675        84.4553 
 439   0.0000       3.110521        84.6416 
 440   0.0000       3.115928        84.7887 
 441   0.0000       3.119853        84.8955 
 442   0.0000       3.127768        85.1109 
 443   0.0000       3.136478        85.3479 
 444   0.0000       3.141522        85.4851 
 445   0.0000       3.152378        85.7806 
 446   0.0000       3.163168        86.0742 
 447   0.0000       3.172876        86.3383 
 448   0.0000       3.187123        86.7260 
 449   0.0000       3.191410        86.8427 
 450   0.0000       3.195060        86.9420 
 451   0.0000       3.196686        86.9863 
 452   0.0000       3.208681        87.3126 
 453   0.0000       3.221946        87.6736 
 454   0.0000       3.223723        87.7220 
 455   0.0000       3.228317        87.8470 
 456   0.0000       3.236528        88.0704 
 457   0.0000       3.243892        88.2708 
 458   0.0000       3.250195        88.4423 
 459   0.0000       3.258941        88.6803 
 460   0.0000       3.266743        88.8926 
 461   0.0000       3.272644        89.0532 
 462   0.0000       3.274774        89.1111 
 463   0.0000       3.283163        89.3394 
 464   0.0000       3.297933        89.7413 
 465   0.0000       3.305642        89.9511 
 466   0.0000       3.317289        90.2680 
 467   0.0000       3.319604        90.3310 
 468   0.0000       3.324498        90.4642 
 469   0.0000       3.331561        90.6564 
 470   0.0000       3.339533        90.8733 
 471   0.0000       3.342120        90.9437 
 472   0.0000       3.346608        91.0658 
 473   0.0000       3.355148        91.2982 
 474   0.0000       3.356329        91.3304 
 475   0.0000       3.368463        91.6605 
 476   0.0000       3.375924        91.8636 
 477   0.0000       3.380597        91.9907 
 478   0.0000       3.389933        92.2448 
 479   0.0000       3.395154        92.3868 
 480   0.0000       3.395786        92.4040 
 481   0.0000       3.400950        92.5445 
 482   0.0000       3.404359        92.6373 
 483   0.0000       3.410552        92.8058 
 484   0.0000       3.413506        92.8862 
 485   0.0000       3.416857        92.9774 
 486   0.0000       3.423134        93.1482 
 487   0.0000       3.431351        93.3718 
 488   0.0000       3.437769        93.5465 
 489   0.0000       3.440174        93.6119 
 490   0.0000       3.445554        93.7583 
 491   0.0000       3.449989        93.8790 
 492   0.0000       3.454837        94.0109 
 493   0.0000       3.463008        94.2332 
 494   0.0000       3.467325        94.3507 
 495   0.0000       3.472420        94.4894 
 496   0.0000       3.480529        94.7100 
 497   0.0000       3.482266        94.7573 
 498   0.0000       3.489868        94.9641 
 499   0.0000       3.498139        95.1892 
 500   0.0000       3.501624        95.2840 
 501   0.0000       3.514567        95.6362 
 502   0.0000       3.519603        95.7733 
 503   0.0000       3.523499        95.8793 
 504   0.0000       3.543860        96.4333 
 505   0.0000       3.547852        96.5420 
 506   0.0000       3.562498        96.9405 
 507   0.0000       3.570076        97.1467 
 508   0.0000       3.579645        97.4071 
 509   0.0000       3.583884        97.5224 
 510   0.0000       3.592053        97.7447 
 511   0.0000       3.595748        97.8453 
 512   0.0000       3.617876        98.4474 
 513   0.0000       3.618188        98.4559 
 514   0.0000       3.622723        98.5793 
 515   0.0000       3.630585        98.7932 
 516   0.0000       3.631218        98.8105 
 517   0.0000       3.636528        98.9550 
 518   0.0000       3.642849        99.1270 
 519   0.0000       3.648518        99.2812 
 520   0.0000       3.650509        99.3354 
 521   0.0000       3.658164        99.5437 
 522   0.0000       3.668530        99.8258 
 523   0.0000       3.668860        99.8348 
 524   0.0000       3.679956       100.1367 
 525   0.0000       3.686629       100.3183 
 526   0.0000       3.692711       100.4838 
 527   0.0000       3.702257       100.7435 
 528   0.0000       3.702886       100.7606 
 529   0.0000       3.705055       100.8197 
 530   0.0000       3.711265       100.9887 
 531   0.0000       3.727351       101.4264 
 532   0.0000       3.732267       101.5601 
 533   0.0000       3.741223       101.8039 
 534   0.0000       3.746971       101.9603 
 535   0.0000       3.753208       102.1300 
 536   0.0000       3.761532       102.3565 
 537   0.0000       3.762978       102.3958 
 538   0.0000       3.764241       102.4302 
 539   0.0000       3.769006       102.5599 
 540   0.0000       3.782515       102.9275 
 541   0.0000       3.793236       103.2192 
 542   0.0000       3.799725       103.3958 
 543   0.0000       3.807016       103.5942 
 544   0.0000       3.808708       103.6402 
 545   0.0000       3.816452       103.8509 
 546   0.0000       3.821232       103.9810 
 547   0.0000       3.829901       104.2169 
 548   0.0000       3.844858       104.6239 
 549   0.0000       3.846918       104.6800 
 550   0.0000       3.854909       104.8974 
 551   0.0000       3.863254       105.1245 
 552   0.0000       3.872286       105.3703 
 553   0.0000       3.883536       105.6764 
 554   0.0000       3.891415       105.8908 
 555   0.0000       3.902554       106.1939 
 556   0.0000       3.910336       106.4057 
 557   0.0000       3.922519       106.7372 
 558   0.0000       3.930497       106.9543 
 559   0.0000       3.938153       107.1626 
 560   0.0000       3.943497       107.3080 
 561   0.0000       3.955222       107.6271 
 562   0.0000       3.957123       107.6788 
 563   0.0000       3.973875       108.1346 
 564   0.0000       3.975028       108.1660 
 565   0.0000       3.982727       108.3755 
 566   0.0000       3.986988       108.4915 
 567   0.0000       3.995315       108.7181 
 568   0.0000       4.001251       108.8796 
 569   0.0000       4.014399       109.2374 
 570   0.0000       4.026016       109.5535 
 571   0.0000       4.036339       109.8344 
 572   0.0000       4.046819       110.1195 
 573   0.0000       4.047442       110.1365 
 574   0.0000       4.061436       110.5173 
 575   0.0000       4.063476       110.5728 
 576   0.0000       4.080102       111.0252 
 577   0.0000       4.086000       111.1857 
 578   0.0000       4.101675       111.6122 
 579   0.0000       4.105782       111.7240 
 580   0.0000       4.113501       111.9341 
 581   0.0000       4.120008       112.1111 
 582   0.0000       4.124681       112.2383 
 583   0.0000       4.129754       112.3763 
 584   0.0000       4.138648       112.6183 
 585   0.0000       4.148954       112.8988 
 586   0.0000       4.150628       112.9443 
 587   0.0000       4.157194       113.1230 
 588   0.0000       4.173673       113.5714 
 589   0.0000       4.174582       113.5961 
 590   0.0000       4.179429       113.7280 
 591   0.0000       4.188488       113.9746 
 592   0.0000       4.193261       114.1044 
 593   0.0000       4.203790       114.3909 
 594   0.0000       4.204594       114.4128 
 595   0.0000       4.214779       114.6900 
 596   0.0000       4.222005       114.8866 
 597   0.0000       4.227300       115.0307 
 598   0.0000       4.237063       115.2963 
 599   0.0000       4.242956       115.4567 
 600   0.0000       4.254842       115.7801 
 601   0.0000       4.258919       115.8911 
 602   0.0000       4.269850       116.1885 
 603   0.0000       4.273529       116.2886 
 604   0.0000       4.279769       116.4584 
 605   0.0000       4.287756       116.6758 
 606   0.0000       4.299602       116.9981 
 607   0.0000       4.309103       117.2566 
 608   0.0000       4.322238       117.6141 
 609   0.0000       4.329182       117.8030 
 610   0.0000       4.332210       117.8854 
 611   0.0000       4.340917       118.1224 
 612   0.0000       4.344439       118.2182 
 613   0.0000       4.355084       118.5079 
 614   0.0000       4.361765       118.6896 
 615   0.0000       4.364442       118.7625 
 616   0.0000       4.372630       118.9853 
 617   0.0000       4.377825       119.1267 
 618   0.0000       4.386267       119.3564 
 619   0.0000       4.401869       119.7810 
 620   0.0000       4.416826       120.1879 
 621   0.0000       4.420656       120.2922 
 622   0.0000       4.428533       120.5065 
 623   0.0000       4.442564       120.8883 
 624   0.0000       4.445716       120.9741 
 625   0.0000       4.450075       121.0927 
 626   0.0000       4.459343       121.3449 
 627   0.0000       4.462631       121.4344 
 628   0.0000       4.476221       121.8042 
 629   0.0000       4.493111       122.2638 
 630   0.0000       4.506838       122.6373 
 631   0.0000       4.509573       122.7117 
 632   0.0000       4.520630       123.0126 
 633   0.0000       4.526674       123.1771 
 634   0.0000       4.531998       123.3219 
 635   0.0000       4.539367       123.5225 
 636   0.0000       4.546068       123.7048 
 637   0.0000       4.561238       124.1176 
 638   0.0000       4.566696       124.2661 
 639   0.0000       4.579255       124.6079 
 640   0.0000       4.582078       124.6847 
 641   0.0000       4.585390       124.7748 
 642   0.0000       4.604944       125.3069 
 643   0.0000       4.612306       125.5072 
 644   0.0000       4.626479       125.8929 
 645   0.0000       4.631002       126.0160 
 646   0.0000       4.632322       126.0519 
 647   0.0000       4.636590       126.1680 
 648   0.0000       4.642777       126.3364 
 649   0.0000       4.650051       126.5343 
 650   0.0000       4.662438       126.8714 
 651   0.0000       4.668320       127.0314 
 652   0.0000       4.676337       127.2496 
 653   0.0000       4.684586       127.4741 
 654   0.0000       4.690634       127.6386 
 655   0.0000       4.706980       128.0834 
 656   0.0000       4.708751       128.1316 
 657   0.0000       4.721951       128.4908 
 658   0.0000       4.739201       128.9602 
 659   0.0000       4.741990       129.0361 
 660   0.0000       4.754713       129.3823 
 661   0.0000       4.768577       129.7596 
 662   0.0000       4.775468       129.9471 
 663   0.0000       4.789746       130.3356 
 664   0.0000       4.802045       130.6703 
 665   0.0000       4.827193       131.3546 
 666   0.0000       4.838120       131.6519 
 667   0.0000       4.852661       132.0476 
 668   0.0000       4.861078       132.2766 
 669   0.0000       4.884061       132.9021 
 670   0.0000       4.907496       133.5397 
 671   0.0000       4.920219       133.8860 
 672   0.0000       4.925432       134.0278 
 673   0.0000       4.932018       134.2070 
 674   0.0000       4.964539       135.0920 
 675   0.0000       4.971531       135.2822 
 676   0.0000       5.010121       136.3323 
 677   0.0000       5.010964       136.3553 
 678   0.0000       5.018094       136.5493 
 679   0.0000       5.033583       136.9707 
 680   0.0000       5.046955       137.3346 
 681   0.0000       5.055740       137.5737 
 682   0.0000       5.078614       138.1961 
 683   0.0000       5.094353       138.6244 
 684   0.0000       5.111251       139.0842 
 685   0.0000       5.116687       139.2321 
 686   0.0000       5.123032       139.4048 
 687   0.0000       5.140131       139.8701 
 688   0.0000       5.148277       140.0917 
 689   0.0000       5.156060       140.3035 
 690   0.0000       5.169415       140.6669 
 691   0.0000       5.186784       141.1396 
 692   0.0000       5.193020       141.3093 
 693   0.0000       5.197347       141.4270 
 694   0.0000       5.200122       141.5025 
 695   0.0000       5.210809       141.7933 
 696   0.0000       5.221069       142.0725 
 697   0.0000       5.227669       142.2521 
 698   0.0000       5.231158       142.3470 
 699   0.0000       5.245638       142.7411 
 700   0.0000       5.252021       142.9147 
 701   0.0000       5.270364       143.4139 
 702   0.0000       5.291263       143.9826 
 703   0.0000       5.320131       144.7681 
 704   0.0000       5.326212       144.9336 
 705   0.0000       5.336658       145.2179 
 706   0.0000       5.338804       145.2762 
 707   0.0000       5.354308       145.6981 
 708   0.0000       5.376151       146.2925 
 709   0.0000       5.382552       146.4667 
 710   0.0000       5.385977       146.5599 
 711   0.0000       5.405753       147.0980 
 712   0.0000       5.429586       147.7466 
 713   0.0000       5.455682       148.4567 
 714   0.0000       5.466417       148.7488 
 715   0.0000       5.481319       149.1543 
 716   0.0000       5.489515       149.3773 
 717   0.0000       5.509303       149.9158 
 718   0.0000       5.514304       150.0518 
 719   0.0000       5.524859       150.3391 
 720   0.0000       5.527778       150.4185 
 721   0.0000       5.539674       150.7422 
 722   0.0000       5.553023       151.1054 
 723   0.0000       5.572508       151.6357 
 724   0.0000       5.584227       151.9545 
 725   0.0000       5.602804       152.4601 
 726   0.0000       5.609925       152.6538 
 727   0.0000       5.630132       153.2037 
 728   0.0000       5.636252       153.3702 
 729   0.0000       5.645610       153.6249 
 730   0.0000       5.648548       153.7048 
 731   0.0000       5.659718       154.0088 
 732   0.0000       5.674040       154.3985 
 733   0.0000       5.690219       154.8387 
 734   0.0000       5.704162       155.2181 
 735   0.0000       5.712740       155.4516 
 736   0.0000       5.724751       155.7784 
 737   0.0000       5.730851       155.9444 
 738   0.0000       5.737745       156.1320 
 739   0.0000       5.755364       156.6114 
 740   0.0000       5.769444       156.9945 
 741   0.0000       5.774602       157.1349 
 742   0.0000       5.787438       157.4842 
 743   0.0000       5.806861       158.0127 
 744   0.0000       5.819948       158.3688 
 745   0.0000       5.836997       158.8328 
 746   0.0000       5.857067       159.3789 
 747   0.0000       5.877713       159.9407 
 748   0.0000       5.911582       160.8623 
 749   0.0000       5.924853       161.2234 
 750   0.0000       5.928969       161.3354 
 751   0.0000       5.974238       162.5673 
 752   0.0000       5.979538       162.7115 
 753   0.0000       6.000753       163.2888 
 754   0.0000       6.012564       163.6102 
 755   0.0000       6.037211       164.2809 
 756   0.0000       6.058369       164.8566 
 757   0.0000       6.061464       164.9408 
 758   0.0000       6.085512       165.5952 
 759   0.0000       6.089424       165.7017 
 760   0.0000       6.096454       165.8930 
 761   0.0000       6.175214       168.0361 
 762   0.0000       6.220188       169.2599 
 763   0.0000       6.226375       169.4283 
 764   0.0000       6.246072       169.9643 
 765   0.0000       6.271254       170.6495 
 766   0.0000       6.293433       171.2530 
 767   0.0000       6.316741       171.8873 
 768   0.0000       6.320405       171.9870 
 769   0.0000       6.348675       172.7562 
 770   0.0000       6.372257       173.3979 
 771   0.0000       6.383949       173.7161 
 772   0.0000       6.409240       174.4043 
 773   0.0000       6.422460       174.7640 
 774   0.0000       6.450878       175.5373 
 775   0.0000       6.460918       175.8105 
 776   0.0000       6.507013       177.0648 
 777   0.0000       6.557786       178.4464 
 778   0.0000       6.593946       179.4304 
 779   0.0000       6.604730       179.7238 
 780   0.0000       6.659595       181.2168 
 781   0.0000       6.685225       181.9142 
 782   0.0000       6.704155       182.4293 
 783   0.0000       6.766451       184.1245 
 784   0.0000       6.834109       185.9656 
 785   0.0000       6.909734       188.0234 
 786   0.0000       6.918252       188.2552 
 787   0.0000       6.924866       188.4352 
 788   0.0000       6.991344       190.2441 
 789   0.0000       7.012159       190.8105 
 790   0.0000       7.053963       191.9481 
 791   0.0000       7.067441       192.3148 
 792   0.0000       7.083891       192.7625 
 793   0.0000       7.132872       194.0953 
 794   0.0000       7.221296       196.5015 
 795   0.0000       7.240372       197.0205 
 796   0.0000       7.261048       197.5832 
 797   0.0000       7.283564       198.1959 
 798   0.0000       7.342799       199.8077 
 799   0.0000       7.379118       200.7960 
 800   0.0000       7.399849       201.3601 
 801   0.0000       7.583851       206.3671 
 802   0.0000       7.598829       206.7747 
 803   0.0000       7.638634       207.8578 
 804   0.0000       7.664720       208.5676 
 805   0.0000       7.806745       212.4323 
 806   0.0000       7.818962       212.7648 
 807   0.0000       7.897335       214.8974 
 808   0.0000       7.935749       215.9427 
 809   0.0000       9.368061       254.9179 
 810   0.0000       9.595138       261.0970 
 811   0.0000      10.831104       294.7293 
 812   0.0000      11.283675       307.0444 
 813   0.0000      11.732258       319.2510 
 814   0.0000      12.588466       342.5496 
 815   0.0000      12.917375       351.4996 
 816   0.0000      12.943459       352.2094 
 817   0.0000      13.074083       355.7639 
 818   0.0000      13.206454       359.3659 
 819   0.0000      13.406550       364.8108 
 820   0.0000      13.486803       366.9946 
 821   0.0000      13.738891       373.8542 
 822   0.0000      13.943474       379.4212 
 823   0.0000      14.006382       381.1330 
 824   0.0000      14.082752       383.2112 
 825   0.0000      14.559220       396.1765 
 826   0.0000      14.666116       399.0853 
 827   0.0000      15.964920       434.4276 

                    ********************************
                    * MULLIKEN POPULATION ANALYSIS *
                    ********************************

-----------------------
MULLIKEN ATOMIC CHARGES
-----------------------
   0 C :   -0.285111
   1 C :    0.041214
   2 O :   -0.380370
   3 C :    0.451411
   4 O :   -0.400080
   5 C :   -0.191832
   6 C :    0.146872
   7 C :   -0.283604
   8 N :   -0.124149
   9 C :    0.202798
  10 S :   -0.439475
  11 N :   -0.202443
  12 C :    0.056863
  13 C :    0.048671
  14 C :   -0.174567
  15 C :   -0.132656
  16 C :   -0.279722
  17 C :    0.312229
  18 O :   -0.358609
  19 C :   -0.278705
  20 H :    0.111563
  21 H :    0.095596
  22 H :    0.114732
  23 H :    0.104814
  24 H :    0.083634
  25 H :    0.129813
  26 H :    0.104576
  27 H :    0.121916
  28 H :    0.197145
  29 H :    0.194615
  30 H :    0.154727
  31 H :    0.157380
  32 H :    0.161584
  33 H :    0.130373
  34 H :    0.240806
  35 H :    0.167995
Sum of atomic charges:    0.0000000

--------------------------------
MULLIKEN REDUCED ORBITAL CHARGES
--------------------------------
  0 C s       :     3.255063  s :     3.255063
      pz      :     1.032091  p :     2.953341
      px      :     1.011743
      py      :     0.909506
      dz2     :     0.014562  d :     0.072322
      dxz     :     0.014834
      dyz     :     0.015119
      dx2y2   :     0.015207
      dxy     :     0.012601
      f0      :     0.000420  f :     0.004386
      f+1     :     0.001065
      f-1     :     0.000487
      f+2     :     0.000568
      f-2     :     0.000356
      f+3     :     0.000339
      f-3     :     0.001150
  1 C s       :     3.174479  s :     3.174479
      pz      :     0.990520  p :     2.618958
      px      :     0.745134
      py      :     0.883304
      dz2     :     0.020367  d :     0.153901
      dxz     :     0.036231
      dyz     :     0.024194
      dx2y2   :     0.035731
      dxy     :     0.037378
      f0      :     0.001056  f :     0.011448
      f+1     :     0.001770
      f-1     :     0.001008
      f+2     :     0.001200
      f-2     :     0.001355
      f+3     :     0.002849
      f-3     :     0.002210
  2 O s       :     3.718275  s :     3.718275
      pz      :     1.661159  p :     4.629176
      px      :     1.222159
      py      :     1.745858
      dz2     :     0.003522  d :     0.030646
      dxz     :     0.011119
      dyz     :     0.003153
      dx2y2   :     0.005364
      dxy     :     0.007488
      f0      :     0.000192  f :     0.002274
      f+1     :     0.000367
      f-1     :     0.000070
      f+2     :     0.000451
      f-2     :     0.000267
      f+3     :     0.000422
      f-3     :     0.000505
[...]
 15 C s       :     2.705733  s :     2.705733
      pz      :     0.893272  p :     2.796453
      px      :     0.937960
      py      :     0.965221
      dz2     :     0.087161  d :     0.415924
      dxz     :     0.071754
      dyz     :     0.055863
      dx2y2   :     0.116278
      dxy     :     0.084868
      f0      :     0.003165  f :     0.041022
      f+1     :     0.005115
      f-1     :     0.005713
      f+2     :     0.007211
      f-2     :     0.006067
      f+3     :     0.007440
      f-3     :     0.006311
 16 C s       :     2.701835  s :     2.701835
      pz      :     0.934326  p :     2.869030
      px      :     0.960787
      py      :     0.973916
      dz2     :     0.040743  d :     0.391064
      dxz     :     0.058500
      dyz     :     0.084582
      dx2y2   :     0.097854
      dxy     :     0.109385
      f0      :     0.003912  f :     0.040337
      f+1     :     0.004302
      f-1     :     0.004283
      f+2     :     0.006328
      f-2     :     0.004787
      f+3     :     0.009585
      f-3     :     0.007141
 17 C s       :     2.701482  s :     2.701482
      pz      :     0.853539  p :     2.684524
      px      :     0.824389
      py      :     1.006595
      dz2     :     0.120453  d :     0.708296
      dxz     :     0.106856
      dyz     :     0.136560
      dx2y2   :     0.168633
      dxy     :     0.175794
      f0      :     0.008477  f :     0.099253
      f+1     :     0.015208
      f-1     :     0.009582
      f+2     :     0.016300
      f-2     :     0.013494
      f+3     :     0.019593
      f-3     :     0.016599
 18 O s       :     3.177326  s :     3.177326
      pz      :     1.444972  p :     4.348732
      px      :     1.394277
      py      :     1.509482
      dz2     :     0.007646  d :     0.075552
      dxz     :     0.016957
      dyz     :     0.017386
      dx2y2   :     0.014922
      dxy     :     0.018641
      f0      :     0.000570  f :     0.005075
      f+1     :     0.000708
      f-1     :     0.000409
      f+2     :     0.000607
      f-2     :     0.001006
      f+3     :     0.000832
      f-3     :     0.000943
 19 C s       :     2.695385  s :     2.695385
      pz      :     0.929797  p :     2.847522
      px      :     0.954187
      py      :     0.963538
      dz2     :     0.071322  d :     0.388586
      dxz     :     0.069851
      dyz     :     0.056865
      dx2y2   :     0.102080
      dxy     :     0.088469
      f0      :     0.003259  f :     0.040817
      f+1     :     0.005231
      f-1     :     0.005235
      f+2     :     0.007250
      f-2     :     0.006549
      f+3     :     0.007347
      f-3     :     0.005946
 20 H s       :     0.844426  s :     0.844426
      pz      :     0.054070  p :     0.150741
      px      :     0.051103
      py      :     0.045567
      dz2     :     0.007380  d :     0.027606
      dxz     :     0.005573
      dyz     :     0.005061
      dx2y2   :     0.005192
      dxy     :     0.004400
 21 H s       :     0.848144  s :     0.848144
      pz      :     0.041154  p :     0.152117
      px      :     0.064474
      py      :     0.046489
      dz2     :     0.002261  d :     0.027525
      dxz     :     0.007760
      dyz     :     0.001887
      dx2y2   :     0.008206
      dxy     :     0.007411
 22 H s       :     0.844756  s :     0.844756
      pz      :     0.067376  p :     0.152606
      px      :     0.047472
      py      :     0.037757
      dz2     :     0.009146  d :     0.027556
      dxz     :     0.007650
      dyz     :     0.006936
      dx2y2   :     0.002019
      dxy     :     0.001804
 23 H s       :     0.852921  s :     0.852921
      pz      :     0.063638  p :     0.143782
      px      :     0.042536
      py      :     0.037608
      dz2     :     0.007137  d :     0.026835
      dxz     :     0.007909
      dyz     :     0.005910
      dx2y2   :     0.002758
      dxy     :     0.003121
 24 H s       :     0.860305  s :     0.860305
      pz      :     0.062797  p :     0.147177
      px      :     0.039184
      py      :     0.045195
      dz2     :     0.008591  d :     0.027121
      dxz     :     0.006047
      dyz     :     0.005226
      dx2y2   :     0.003254
      dxy     :     0.004002
 25 H s       :     0.828822  s :     0.828822
      pz      :     0.063612  p :     0.150230
      px      :     0.042379
      py      :     0.044238
      dz2     :     0.008880  d :     0.027706
      dxz     :     0.007081
      dyz     :     0.006782
      dx2y2   :     0.003223
      dxy     :     0.001740
 26 H s       :     0.842467  s :     0.842467
      pz      :     0.037259  p :     0.150017
      px      :     0.039742
      py      :     0.073015
      dz2     :     0.002317  d :     0.027696
      dxz     :     0.000115
      dyz     :     0.009230
      dx2y2   :     0.006968
      dxy     :     0.009067
 27 H s       :     0.831518  s :     0.831518
      pz      :     0.038312  p :     0.151529
      px      :     0.071764
      py      :     0.041453
      dz2     :     0.002425  d :     0.027742
      dxz     :     0.008678
      dyz     :     0.000328
      dx2y2   :     0.008058
      dxy     :     0.008253
 28 H s       :     0.742855  s :     0.742855
      pz      :     0.059642  p :     0.254095
      px      :     0.079957
      py      :     0.114496
      dz2     :     0.006159  d :     0.061860
      dxz     :     0.002069
      dyz     :     0.017314
      dx2y2   :     0.016594
      dxy     :     0.019724
 29 H s       :     0.748547  s :     0.748547
      pz      :     0.112663  p :     0.254011
      px      :     0.098956
      py      :     0.042392
      dz2     :     0.021278  d :     0.061325
      dxz     :     0.015742
      dyz     :     0.010091
      dx2y2   :     0.008412
      dxy     :     0.005802
 30 H s       :     0.828221  s :     0.828221
      pz      :     0.040518  p :     0.148530
      px      :     0.062552
      py      :     0.045460
      dz2     :     0.003131  d :     0.028340
      dxz     :     0.006959
      dyz     :     0.003459
      dx2y2   :     0.007178
      dxy     :     0.007612
 31 H s       :     0.841146  s :     0.841146
      pz      :     0.051889  p :     0.155998
      px      :     0.064983
      py      :     0.039126
      dz2     :     0.004865  d :     0.027466
      dxz     :     0.006561
      dyz     :     0.003439
      dx2y2   :     0.006246
      dxy     :     0.006356
 32 H s       :     0.842731  s :     0.842731
      pz      :     0.037655  p :     0.151289
      px      :     0.037906
      py      :     0.075727
      dz2     :     0.002701  d :     0.026469
      dxz     :     0.000609
      dyz     :     0.007420
      dx2y2   :     0.007737
      dxy     :     0.008001
 33 H s       :     0.848875  s :     0.848875
      pz      :     0.058534  p :     0.159091
      px      :     0.051266
      py      :     0.049292
      dz2     :     0.006100  d :     0.027761
      dxz     :     0.005213
      dyz     :     0.005596
      dx2y2   :     0.005673
      dxy     :     0.005180
 34 H s       :     0.706672  s :     0.706672
      pz      :     0.117866  p :     0.347915
      px      :     0.087889
      py      :     0.142160
      dz2     :     0.024425  d :     0.099575
      dxz     :     0.012899
      dyz     :     0.023431
      dx2y2   :     0.019783
      dxy     :     0.019037
 35 H s       :     0.839462  s :     0.839462
      pz      :     0.040881  p :     0.156967
      px      :     0.039323
      py      :     0.076763
      dz2     :     0.002740  d :     0.028027
      dxz     :     0.000741
      dyz     :     0.008162
      dx2y2   :     0.007939
      dxy     :     0.008444


                      *****************************
                      * MAYER POPULATION ANALYSIS *
                      *****************************

  NA   - Mulliken gross atomic population
  ZA   - Total nuclear charge
  QA   - Mulliken gross atomic charge
  VA   - Mayer's total valence
  BVA  - Mayer's bonded valence
  FA   - Mayer's free valence

  ATOM       NA         ZA         QA         VA         BVA        FA
  0 C      6.2851     6.0000    -0.2851     3.8812     3.8812     0.0000
  1 C      5.9588     6.0000     0.0412     3.8897     3.8897    -0.0000
  2 O      8.3804     8.0000    -0.3804     1.9931     1.9931     0.0000
  3 C      5.5486     6.0000     0.4514     4.1951     4.1951     0.0000
  4 O      8.4001     8.0000    -0.4001     2.1044     2.1044     0.0000
  5 C      6.1918     6.0000    -0.1918     3.6223     3.6223    -0.0000
  6 C      5.8531     6.0000     0.1469     3.8326     3.8326     0.0000
  7 C      6.2836     6.0000    -0.2836     3.8977     3.8977     0.0000
  8 N      7.1241     7.0000    -0.1241     3.2907     3.2907     0.0000
  9 C      5.7972     6.0000     0.2028     4.1552     4.1552    -0.0000
 10 S     16.4395    16.0000    -0.4395     1.7558     1.7558    -0.0000
 11 N      7.2024     7.0000    -0.2024     3.2606     3.2606    -0.0000
 12 C      5.9431     6.0000     0.0569     3.9505     3.9505    -0.0000
 13 C      5.9513     6.0000     0.0487     3.7361     3.7361    -0.0000
 14 C      6.1746     6.0000    -0.1746     3.8603     3.8603     0.0000
 15 C      6.1327     6.0000    -0.1327     3.8040     3.8040     0.0000
 16 C      6.2797     6.0000    -0.2797     3.7929     3.7929     0.0000
 17 C      5.6878     6.0000     0.3122     3.8726     3.8726     0.0000
 18 O      8.3586     8.0000    -0.3586     2.1156     2.1156     0.0000
 19 C      6.2787     6.0000    -0.2787     3.8456     3.8456    -0.0000
 20 H      0.8884     1.0000     0.1116     0.9864     0.9864    -0.0000
 21 H      0.9044     1.0000     0.0956     0.9805     0.9805     0.0000
 22 H      0.8853     1.0000     0.1147     0.9737     0.9737     0.0000
 23 H      0.8952     1.0000     0.1048     0.9725     0.9725    -0.0000
 24 H      0.9164     1.0000     0.0836     0.9707     0.9707     0.0000
 25 H      0.8702     1.0000     0.1298     0.9814     0.9814     0.0000
 26 H      0.8954     1.0000     0.1046     0.9862     0.9862    -0.0000
 27 H      0.8781     1.0000     0.1219     0.9757     0.9757     0.0000
 28 H      0.8029     1.0000     0.1971     1.0229     1.0229     0.0000
 29 H      0.8054     1.0000     0.1946     1.0179     1.0179     0.0000
 30 H      0.8453     1.0000     0.1547     0.9954     0.9954     0.0000
 31 H      0.8426     1.0000     0.1574     0.9881     0.9881     0.0000
 32 H      0.8384     1.0000     0.1616     0.9768     0.9768     0.0000
 33 H      0.8696     1.0000     0.1304     0.9915     0.9915    -0.0000
 34 H      0.7592     1.0000     0.2408     1.0105     1.0105     0.0000
 35 H      0.8320     1.0000     0.1680     0.9873     0.9873    -0.0000

  Mayer bond orders larger than 0.100000
B(  0-C ,  1-C ) :   0.9824 B(  0-C , 20-H ) :   0.9730 B(  0-C , 21-H ) :   0.9734 
B(  0-C , 22-H ) :   0.9688 B(  1-C ,  2-O ) :   0.9030 B(  1-C , 23-H ) :   0.9790 
B(  1-C , 24-H ) :   0.9735 B(  2-O ,  3-C ) :   1.0873 B(  3-C ,  4-O ) :   2.0326 
B(  3-C ,  5-C ) :   1.0244 B(  5-C ,  6-C ) :   1.6612 B(  5-C , 12-C ) :   0.9639 
B(  6-C ,  7-C ) :   0.9522 B(  6-C ,  8-N ) :   1.1432 B(  7-C , 25-H ) :   0.9672 
B(  7-C , 26-H ) :   0.9893 B(  7-C , 27-H ) :   0.9657 B(  8-N ,  9-C ) :   1.1828 
B(  8-N , 28-H ) :   0.9491 B(  9-C , 10-S ) :   1.6104 B(  9-C , 11-N ) :   1.3020 
B( 11-N , 12-C ) :   0.9913 B( 11-N , 29-H ) :   0.9516 B( 12-C , 13-C ) :   0.9420 
B( 12-C , 30-H ) :   0.9990 B( 13-C , 14-C ) :   1.3757 B( 13-C , 19-C ) :   1.3676 
B( 14-C , 15-C ) :   1.3931 B( 14-C , 31-H ) :   0.9641 B( 15-C , 16-C ) :   1.3624 
B( 15-C , 32-H ) :   0.9708 B( 16-C , 17-C ) :   1.3315 B( 16-C , 33-H ) :   0.9852 
B( 17-C , 18-O ) :   1.1094 B( 17-C , 19-C ) :   1.3737 B( 18-O , 34-H ) :   0.9799 
B( 19-C , 35-H ) :   0.9578 

-------
TIMINGS
-------

Total SCF time: 0 days 1 hours 56 min 42 sec 

Total time                  ....    7002.640 sec
Sum of individual times     ....    6995.402 sec  ( 99.9%)

Fock matrix formation       ....    6967.270 sec  ( 99.5%)
Diagonalization             ....       2.032 sec  (  0.0%)
Density matrix formation    ....       0.236 sec  (  0.0%)
Population analysis         ....       0.225 sec  (  0.0%)
Initial guess               ....       6.525 sec  (  0.1%)
Orbital Transformation      ....       0.000 sec  (  0.0%)
Orbital Orthonormalization  ....       0.000 sec  (  0.0%)
DIIS solution               ....      15.096 sec  (  0.2%)
SOSCF solution              ....       2.539 sec  (  0.0%)

Maximum memory used throughout the entire SCF-calculation: 744.1 MB

------------------------------------------------------------------------------
                                ORCA  MP2 
------------------------------------------------------------------------------

Freezing NCore=48 chemical core electrons

-------------
RI-MP2 ENERGY
-------------
Dimension of the basis                    ...  828
Memory devoted to MP2                     ...  256 MB   
Data format for buffers                   ... DOUBLE
Compression type for matrix containers    ... UNCOMPRESSED
Overall scaling of the MP2 energy         ...   1.000e+00
Calculating two index integrals           ... done (    0.049 sec)
Cholesky decomposition of V**-1           ... done (    0.712 sec)

-----------------
RI-TRANSFORMATION (AUX index driven)
-----------------

Dimension of the orbital-basis         ... 828
Dimension of the aux-basis             ... 2141
Transformation of internal/external MOs...   24-  76 to   77- 827
Number Format for Storage              ... Double (8 Byte)
Integral mode                          ... Direct

First Phase: integral generation and transformation of MO indices
  Aux angular momentum 0               ... done (    6.261 sec)
  Aux angular momentum 1               ... done (    9.976 sec)
  Aux angular momentum 2               ... done (   11.388 sec)
  Aux angular momentum 3               ... done (    9.488 sec)
  Aux angular momentum 4               ... done (    3.141 sec)
Closing buffer VIA ( 0.63 GB; CompressionRatio= 1.00)
  Phase 1 completed in    40.641 sec
Second Phase: sorting and transformation of aux index

IA-Transformation
Memory available                       ... 157 MB 
Max. # MO pairs treated in a batch     ... 11    
# of internal orbitals                 ... 53
# batches for internal orbitals        ... 5
Closing buffer IAV ( 0.63 GB; CompressionRatio= 1.00)
(ia|v) transformation done in    34.906 sec

  Phase 2 completed in    34.925 sec
RI-Integral transformation completed in    75.576 sec
Opening buffers                              ... done

Starting loop over batches of integrals:

Operator 0  - window                       ... ( 24- 76)x( 77-827)
Operator 0  - Memory available             ...   256 MB
Operator 0  - Memory needed per MO         ...  12.3 MB
Operator 0  - Number of orbitals per batch ... 13
Operator 0  - Number of batches            ... 5

OPERATOR  0   PASS   0:  MOs    24 ...   36
  Reading integrals       ... ok
  Internal MO  26
  Internal MO  29
  Internal MO  32
  Internal MO  35
OPERATOR  0   PASS   1:  MOs    37 ...   49
  Reading integrals       ... ok
  Internal MO  38
  Internal MO  41
  Internal MO  44
  Internal MO  47
OPERATOR  0   PASS   2:  MOs    50 ...   62
  Reading integrals       ... ok
  Internal MO  50
  Internal MO  53
  Internal MO  56
  Internal MO  59
  Internal MO  62
OPERATOR  0   PASS   3:  MOs    63 ...   75
  Reading integrals       ... ok
  Internal MO  65
  Internal MO  68
  Internal MO  71
  Internal MO  74
OPERATOR  0   PASS   4:  MOs    76 ...   76
  Reading integrals       ... ok
Time spent in pair loops =   100.439 sec
Deleting buffer (Ka|jb)[aa] ...done

-----------------------------------------------
 RI-MP2 CORRELATION ENERGY:     -3.532604753 Eh
-----------------------------------------------


-------
TIMINGS
-------

Total time                :  176.899 sec
Integral trafo            :   75.604 sec ( 42.7%)
I/O of integrals          :    3.991 sec (  2.3%)
K(i,j) Operators          :   65.638 sec ( 37.1%)
T(i,j) pair energies      :    8.279 sec (  4.7%)
V-calculation             :    0.049 sec (  0.0%)
V**(-1/2)                 :    0.712 sec (  0.4%)
Gamma(ia|P)               :    0.000 sec (  0.0%)
Gamma-Trafo               :    0.000 sec (  0.0%)
D(virtual)                :    0.000 sec (  0.0%)
D(internal)               :    0.000 sec (  0.0%)
W(virtual)                :    0.000 sec (  0.0%)
W(internal)               :    0.000 sec (  0.0%)
L(virtual)                :    0.000 sec (  0.0%)
L(internal)               :    0.000 sec (  0.0%)
G(D)                      :    0.000 sec (  0.0%)
G(Z)                      :    0.000 sec (  0.0%)
Z-Vector Solution         :    0.000 sec (  0.0%)
3-Index Derivative        :    0.000 sec (  0.0%)
2-Index Derivative        :    0.000 sec (  0.0%)
Separable Gradient        :    0.000 sec (  0.0%)


---------------------------------------
MP2 TOTAL ENERGY:    -1274.330315972 Eh
---------------------------------------

Maximum memory used throughout the entire MP2-calculation: 304.9 MB

-------------------------   --------------------
FINAL SINGLE POINT ENERGY     -1274.330315972117
-------------------------   --------------------


                            ***************************************
                            *     ORCA property calculations      *
                            ***************************************


  WARNING: The energy has been calculated at the MP2 level but the densities
           used in the property calculations are still SCF densities
           MP2 response densities have not been calculated 
           use %mp2 Density relaxed end
           or  %mp2 Density unrelaxed end

                                    ---------------------
                                    Active property flags
                                    ---------------------
   (+) Dipole Moment


------------------------------------------------------------------------------
                       ORCA ELECTRIC PROPERTIES CALCULATION
------------------------------------------------------------------------------

Dipole Moment Calculation                       ... on
Quadrupole Moment Calculation                   ... off
Polarizability Calculation                      ... off
GBWName                                         ... CONFS/Conf379.orca.gbw
Electron density file                           ... CONFS/Conf379.orca.scfp
The origin for moment calculation is the CENTER OF MASS  = (32.865317, 31.515809 35.298031)

-------------
DIPOLE MOMENT
-------------
                                X             Y             Z
Electronic contribution:     10.16808      10.12594       7.40822
Nuclear contribution   :    -11.74815     -11.26979      -8.06918
                        -----------------------------------------
Total Dipole Moment    :     -1.58007      -1.14385      -0.66095
                        -----------------------------------------
Magnitude (a.u.)       :      2.05958
Magnitude (Debye)      :      5.23504



--------------------
Rotational spectrum 
--------------------
 
Rotational constants in cm-1:     0.011827     0.009121     0.006410 
Rotational constants in MHz :   354.549918   273.445714   192.178060 

 Dipole components along the rotational axes: 
x,y,z [a.u.] :     1.771196    -0.552196     0.894325 
x,y,z [Debye]:     4.502022    -1.403572     2.273192 

 

Timings for individual modules:

Sum of individual times         ...     7184.873 sec (= 119.748 min)
GTO integral calculation        ...        4.356 sec (=   0.073 min)   0.1 %
SCF iterations                  ...     7002.758 sec (= 116.713 min)  97.5 %
MP2 module                      ...      177.760 sec (=   2.963 min)   2.5 %
                             ****ORCA TERMINATED NORMALLY****
TOTAL RUN TIME: 0 days 1 hours 59 minutes 46 seconds 147 msec
