
                                        *****************
                                        * O   R   C   A *
                                        *****************

                                            #,                                       
                                            ###                                      
                                            ####                                     
                                            #####                                    
                                            ######                                   
                                           ########,                                 
                                     ,,################,,,,,                         
                               ,,#################################,,                 
                          ,,##########################################,,             
                       ,#########################################, ''#####,          
                    ,#############################################,,   '####,        
                  ,##################################################,,,,####,       
                ,###########''''           ''''###############################       
              ,#####''   ,,,,##########,,,,          '''####'''          '####       
            ,##' ,,,,###########################,,,                        '##       
           ' ,,###''''                  '''############,,,                           
         ,,##''                                '''############,,,,        ,,,,,,###''
      ,#''                                            '''#######################'''  
     '                                                          ''''####''''         
             ,#######,   #######,   ,#######,      ##                                
            ,#'     '#,  ##    ##  ,#'     '#,    #''#        ######   ,####,        
            ##       ##  ##   ,#'  ##            #'  '#       #        #'  '#        
            ##       ##  #######   ##           ,######,      #####,   #    #        
            '#,     ,#'  ##    ##  '#,     ,#' ,#      #,         ##   #,  ,#        
             '#######'   ##     ##  '#######'  #'      '#     #####' # '####'        



                  #######################################################
                  #                        -***-                        #
                  #          Department of theory and spectroscopy      #
                  #    Directorship and core code : Frank Neese         #
                  #        Max Planck Institute fuer Kohlenforschung    #
                  #                Kaiser Wilhelm Platz 1               #
                  #                 D-45470 Muelheim/Ruhr               #
                  #                      Germany                        #
                  #                                                     #
                  #                  All rights reserved                #
                  #                        -***-                        #
                  #######################################################


                         Program Version 5.0.0 -  RELEASE  -
                                (SVN: $Rev: 19529$)
                ($Date: 2021-06-28 11:36:33 +0200 (Mo, 28 Jun 2021) $)


 With contributions from (in alphabetic order):
   Daniel Aravena         : Magnetic Suceptibility
   Michael Atanasov       : Ab Initio Ligand Field Theory (pilot matlab implementation)
   Alexander A. Auer      : GIAO ZORA, VPT2 properties, NMR spectrum
   Ute Becker             : Parallelization
   Giovanni Bistoni       : ED, misc. LED, open-shell LED, HFLD
   Martin Brehm           : Molecular dynamics
   Dmytro Bykov           : SCF Hessian
   Vijay G. Chilkuri      : MRCI spin determinant printing, contributions to CSF-ICE
   Dipayan Datta          : RHF DLPNO-CCSD density
   Achintya Kumar Dutta   : EOM-CC, STEOM-CC
   Dmitry Ganyushin       : Spin-Orbit,Spin-Spin,Magnetic field MRCI
   Miquel Garcia          : C-PCM Hessian, Gaussian charge scheme
   Yang Guo               : DLPNO-NEVPT2, F12-NEVPT2, CIM, IAO-localization
   Andreas Hansen         : Spin unrestricted coupled pair/coupled cluster methods
   Benjamin Helmich-Paris : MC-RPA, TRAH-SCF, COSX integrals
   Lee Huntington         : MR-EOM, pCC
   Robert Izsak           : Overlap fitted RIJCOSX, COSX-SCS-MP3, EOM
   Marcus Kettner         : VPT2
   Christian Kollmar      : KDIIS, OOCD, Brueckner-CCSD(T), CCSD density, CASPT2, CASPT2-K
   Simone Kossmann        : Meta GGA functionals, TD-DFT gradient, OOMP2, MP2 Hessian
   Martin Krupicka        : Initial AUTO-CI
   Lucas Lang             : DCDCAS
   Marvin Lechner         : AUTO-CI (C++ implementation), FIC-MRCC
   Dagmar Lenk            : GEPOL surface, SMD
   Dimitrios Liakos       : Extrapolation schemes; Compound Job, initial MDCI parallelization
   Dimitrios Manganas     : Further ROCIS development; embedding schemes
   Dimitrios Pantazis     : SARC Basis sets
   Anastasios Papadopoulos: AUTO-CI, single reference methods and gradients
   Taras Petrenko         : DFT Hessian,TD-DFT gradient, ASA, ECA, R-Raman, ABS, FL, XAS/XES, NRVS
   Peter Pinski           : DLPNO-MP2, DLPNO-MP2 Gradient
   Christoph Reimann      : Effective Core Potentials
   Marius Retegan         : Local ZFS, SOC
   Christoph Riplinger    : Optimizer, TS searches, QM/MM, DLPNO-CCSD(T), (RO)-DLPNO pert. Triples
   Tobias Risthaus        : Range-separated hybrids, TD-DFT gradient, RPA, STAB
   Michael Roemelt        : Original ROCIS implementation
   Masaaki Saitow         : Open-shell DLPNO-CCSD energy and density
   Barbara Sandhoefer     : DKH picture change effects
   Avijit Sen             : IP-ROCIS
   Kantharuban Sivalingam : CASSCF convergence, NEVPT2, FIC-MRCI
   Bernardo de Souza      : ESD, SOC TD-DFT
   Georgi Stoychev        : AutoAux, RI-MP2 NMR
   Willem Van den Heuvel  : Paramagnetic NMR
   Boris Wezisla          : Elementary symmetry handling
   Frank Wennmohs         : Technical directorship


 We gratefully acknowledge several colleagues who have allowed us to
 interface, adapt or use parts of their codes:
   Stefan Grimme, W. Hujo, H. Kruse, P. Pracht,  : VdW corrections, initial TS optimization,
                  C. Bannwarth, S. Ehlert          DFT functionals, gCP, sTDA/sTD-DF
   Ed Valeev, F. Pavosevic, A. Kumar             : LibInt (2-el integral package), F12 methods
   Garnet Chan, S. Sharma, J. Yang, R. Olivares  : DMRG
   Ulf Ekstrom                                   : XCFun DFT Library
   Mihaly Kallay                                 : mrcc  (arbitrary order and MRCC methods)
   Jiri Pittner, Ondrej Demel                    : Mk-CCSD
   Frank Weinhold                                : gennbo (NPA and NBO analysis)
   Christopher J. Cramer and Donald G. Truhlar   : smd solvation model
   Lars Goerigk                                  : TD-DFT with DH, B97 family of functionals
   V. Asgeirsson, H. Jonsson                     : NEB implementation
   FAccTs GmbH                                   : IRC, NEB, NEB-TS, DLPNO-Multilevel, CI-OPT
                                                   MM, QMMM, 2- and 3-layer-ONIOM, Crystal-QMMM,
                                                   LR-CPCM, SF, NACMEs, symmetry and pop. for TD-DFT,
                                                   nearIR, NL-DFT gradient (VV10), updates on ESD,
                                                   ML-optimized integration grids
   S Lehtola, MJT Oliveira, MAL Marques          : LibXC Library
   Liviu Ungur et al                             : ANISO software


 Your calculation uses the libint2 library for the computation of 2-el integrals
 For citations please refer to: http://libint.valeyev.net

 Your ORCA version has been built with support for libXC version: 5.1.0
 For citations please refer to: https://tddft.org/programs/libxc/

 This ORCA versions uses:
   CBLAS   interface :  Fast vector & matrix operations
   LAPACKE interface :  Fast linear algebra routines
   SCALAPACK package :  Parallel linear algebra routines
   Shared memory     :  Shared parallel matrices
   BLAS/LAPACK       :  OpenBLAS 0.3.15  USE64BITINT DYNAMIC_ARCH NO_AFFINITY SkylakeX SINGLE_THREADED
        Core in use  :  SkylakeX
   Copyright (c) 2011-2014, The OpenBLAS Project


================================================================================

----- Orbital basis set information -----
Your calculation utilizes the basis: cc-pVTZ 
       H, B-Ne : Obtained from the ccRepo (grant-hill.group.shef.ac.uk/ccrepo) Feb. 2017
                 T. H. Dunning, Jr., J. Chem. Phys. 90, 1007 (1989)
            He : Obtained from the ccRepo (grant-hill.group.shef.ac.uk/ccrepo) Feb. 2017
                 D. E. Woon, T. H. Dunning, Jr., J. Chem. Phys. 100, 2975 (1994)
  Li-Be, Na-Mg : Obtained from the ccRepo (grant-hill.group.shef.ac.uk/ccrepo) Feb. 2017
                 B. P. Prascher, D. E. Woon, K. A. Peterson, T. H. Dunning, Jr., A. K. Wilson, Theor. Chem. Acc. 128, 69 (2011)
         Al-Ar : Obtained from the ccRepo (grant-hill.group.shef.ac.uk/ccrepo) Feb. 2017
                 D. E. Woon, T. H. Dunning, Jr., J. Chem. Phys. 98, 1358 (1993)
            Ca : Obtained from the Peterson Research Group Website (tyr0.chem.wsu.edu/~kipeters) Feb. 2017
                 J. Koput, K. A. Peterson, J. Phys. Chem. 106, 9595 (2002)
         Sc-Zn : Obtained from the ccRepo (grant-hill.group.shef.ac.uk/ccrepo) Feb. 2017
                 N. B. Balabanov, K. A. Peterson, J. Chem. Phys. 123, 064107 (2005)
                 N. B. Balabanov, K. A. Peterson, J. Chem. Phys. 125, 074110 (2006)
         Ga-Kr : Obtained from the ccRepo (grant-hill.group.shef.ac.uk/ccrepo) Feb. 2017
                 A. K. Wilson, D. E. Woon, K. A. Peterson, T. H. Dunning, Jr., J. Chem. Phys. 110, 7667 (1999)
             Y : Obtained from the ccRepo (grant-hill.group.shef.ac.uk/ccrepo) Feb. 2017
                 K. A. Peterson, D. Figgen, M. Dolg, H. Stoll, J. Chem. Phys. 126, 124101 (2007)
        Ag, Au : Obtained from the Peterson Research Group Website (tyr0.chem.wsu.edu/~kipeters) Feb. 2017
                 K. A. Peterson, C. Puzzarini, Theor. Chem. Acc. 114, 283 (2005)

----- AuxC basis set information -----
Your calculation utilizes the auxiliary basis: cc-pVTZ/C 
  Obtained from the EMSL Basis Set Exchange (bse.pnl.gov) Feb. 2017
  H-He, B-F, Al-Ar, Ga-Kr : F. Weigend, A. Kohn, C. Hattig, J. Chem. Phys. 116, 3175 (2002)
             Li-Be, Na-Mg : C. Haettig, Phys. Chem. Chem. Phys. 7, 59 (2005)
                       Ne : C. Haettig, Phys. Chem. Chem. Phys. 7, 59 (2005)
                            F. Weigend, A. Kohn, C. Hattig, J. Chem. Phys. 116, 3175 (2002)
                    Sc-Zn : J. G. Hill, J. A. Platts, J. Chem. Phys. 128, 044104 (2008)

================================================================================
                                        WARNINGS
                       Please study these warnings very carefully!
================================================================================


WARNING: No MP2 level density has been requested!
         To caclulate MP2 level properties use
         %mp2 Density relaxed end
         or
         %mp2 Density unrelaxed end

WARNING: Post HF methods need fully converged wavefunctions
  ===> : Setting SCFConvForced true
         You can overwrite this default with %scf ConvForced false 


INFO   : the flag for use of the SHARK integral package has been found!

================================================================================
                                       INPUT FILE
================================================================================
NAME = CONFS/Conf444.orca
|  1> ! ri-mp2 cc-pvtz cc-pvtz/c TightSCF NoKeepInts
|  2> 
|  3> %scf
|  4>   MaxCore 4096
|  5> end
|  6> *xyz  0  1
|  7>     C       15.3617211   14.6843492   17.2526215
|  8>     C       15.5078248   15.3297079   15.8577191
|  9>     O       16.8752263   15.6591507   15.5106222
| 10>     C       17.8919402   15.6943861   16.4232614
| 11>     O       18.6091508   14.7223180   16.5799002
| 12>     C       17.9066657   16.8655731   17.3657630
| 13>     C       17.3800330   18.0870627   17.0894939
| 14>     C       16.7089054   18.5540163   15.8138034
| 15>     N       17.5297353   19.1307668   18.0083692
| 16>     C       18.3504317   19.0956212   19.1045259
| 17>     S       18.5894234   20.4259133   20.0572283
| 18>     N       18.9623979   17.8970563   19.3698370
| 19>     C       18.6542925   16.6268707   18.6852620
| 20>     C       17.8816158   15.6877082   19.6096908
| 21>     C       18.2405499   14.3299950   19.7002182
| 22>     C       17.5297697   13.4531598   20.5363680
| 23>     C       16.4493923   13.9366651   21.2931600
| 24>     C       16.0880249   15.2877153   21.2083327
| 25>     O       15.0393033   15.7561158   21.9304539
| 26>     C       16.7969504   16.1582906   20.3744882
| 27>     H       16.0528434   13.8405453   17.3784631
| 28>     H       14.3424220   14.3030429   17.3875944
| 29>     H       15.5440040   15.4157907   18.0460835
| 30>     H       15.1174538   14.6344156   15.1031373
| 31>     H       14.8837295   16.2300235   15.8194994
| 32>     H       17.1465202   18.0756158   14.9290410
| 33>     H       16.8253658   19.6346218   15.6631571
| 34>     H       15.6352515   18.3385636   15.8295945
| 35>     H       17.0944149   20.0211821   17.8264748
| 36>     H       19.5460747   17.8892381   20.1966458
| 37>     H       19.6133031   16.1459054   18.4425384
| 38>     H       19.0672010   13.9484643   19.1048094
| 39>     H       17.8155751   12.4040925   20.5904641
| 40>     H       15.8963220   13.2621681   21.9383565
| 41>     H       14.7174085   15.0267571   22.4814012
| 42>     H       16.4957561   17.1991312   20.3256206
| 43> *
| 44> 
| 45>                          ****END OF INPUT****
================================================================================

                       ****************************
                       * Single Point Calculation *
                       ****************************

---------------------------------
CARTESIAN COORDINATES (ANGSTROEM)
---------------------------------
  C     15.361721   14.684349   17.252621
  C     15.507825   15.329708   15.857719
  O     16.875226   15.659151   15.510622
  C     17.891940   15.694386   16.423261
  O     18.609151   14.722318   16.579900
  C     17.906666   16.865573   17.365763
  C     17.380033   18.087063   17.089494
  C     16.708905   18.554016   15.813803
  N     17.529735   19.130767   18.008369
  C     18.350432   19.095621   19.104526
  S     18.589423   20.425913   20.057228
  N     18.962398   17.897056   19.369837
  C     18.654293   16.626871   18.685262
  C     17.881616   15.687708   19.609691
  C     18.240550   14.329995   19.700218
  C     17.529770   13.453160   20.536368
  C     16.449392   13.936665   21.293160
  C     16.088025   15.287715   21.208333
  O     15.039303   15.756116   21.930454
  C     16.796950   16.158291   20.374488
  H     16.052843   13.840545   17.378463
  H     14.342422   14.303043   17.387594
  H     15.544004   15.415791   18.046084
  H     15.117454   14.634416   15.103137
  H     14.883729   16.230024   15.819499
  H     17.146520   18.075616   14.929041
  H     16.825366   19.634622   15.663157
  H     15.635252   18.338564   15.829595
  H     17.094415   20.021182   17.826475
  H     19.546075   17.889238   20.196646
  H     19.613303   16.145905   18.442538
  H     19.067201   13.948464   19.104809
  H     17.815575   12.404093   20.590464
  H     15.896322   13.262168   21.938357
  H     14.717408   15.026757   22.481401
  H     16.495756   17.199131   20.325621

----------------------------
CARTESIAN COORDINATES (A.U.)
----------------------------
  NO LB      ZA    FRAG     MASS         X           Y           Z
   0 C     6.0000    0    12.011   29.029446   27.749398   32.602730
   1 C     6.0000    0    12.011   29.305542   28.968950   29.966746
   2 O     8.0000    0    15.999   31.889556   29.591506   29.310828
   3 C     6.0000    0    12.011   33.810867   29.658092   31.035466
   4 O     8.0000    0    15.999   35.166199   27.821149   31.331471
   5 C     6.0000    0    12.011   33.838694   31.871314   32.816536
   6 C     6.0000    0    12.011   32.843503   34.179595   32.294463
   7 C     6.0000    0    12.011   31.575255   35.062009   29.883758
   8 N     7.0000    0    14.007   33.126399   36.151910   34.030886
   9 C     6.0000    0    12.011   34.677290   36.085494   36.102322
  10 S    16.0000    0    32.060   35.128919   38.599382   37.902668
  11 N     7.0000    0    14.007   35.833739   33.820535   36.603687
  12 C     6.0000    0    12.011   35.251504   31.420232   35.310028
  13 C     6.0000    0    12.011   33.791357   29.645472   37.056945
  14 C     6.0000    0    12.011   34.469644   27.079766   37.228017
  15 C     6.0000    0    12.011   33.126464   25.422788   38.808111
  16 C     6.0000    0    12.011   31.084847   26.336480   40.238241
  17 C     6.0000    0    12.011   30.401961   28.889595   40.077941
  18 O     8.0000    0    15.999   28.420164   29.774744   41.442552
  19 C     6.0000    0    12.011   31.741636   30.534744   38.502203
  20 H     1.0000    0     1.008   30.335478   26.154840   32.840536
  21 H     1.0000    0     1.008   27.103250   27.028834   32.857792
  22 H     1.0000    0     1.008   29.373911   29.131623   34.102156
  23 H     1.0000    0     1.008   28.567848   27.655038   28.540793
  24 H     1.0000    0     1.008   28.126173   30.670300   29.894521
  25 H     1.0000    0     1.008   32.402227   34.157964   28.211799
  26 H     1.0000    0     1.008   31.795333   37.104058   29.599077
  27 H     1.0000    0     1.008   29.546343   34.654863   29.913598
  28 H     1.0000    0     1.008   32.303763   37.834551   33.687155
  29 H     1.0000    0     1.008   36.936728   33.805761   38.166129
  30 H     1.0000    0     1.008   37.063771   30.511339   34.851347
  31 H     1.0000    0     1.008   36.031788   26.358778   36.102858
  32 H     1.0000    0     1.008   33.666558   23.440338   38.910338
  33 H     1.0000    0     1.008   30.039695   25.061866   41.457486
  34 H     1.0000    0     1.008   27.811871   28.396456   42.483691
  35 H     1.0000    0     1.008   31.172461   32.501648   38.409856

--------------------------------
INTERNAL COORDINATES (ANGSTROEM)
--------------------------------
 C      0   0   0     0.000000000000     0.00000000     0.00000000
 C      1   0   0     1.543886928614     0.00000000     0.00000000
 O      2   1   0     1.448722084688   113.63107785     0.00000000
 C      3   2   1     1.366696380782   123.23233673   345.47791820
 O      4   3   2     1.218131006688   120.21856657    95.36874392
 C      4   3   2     1.503397849979   116.48770209   286.14926940
 C      6   4   3     1.358566692964   124.69043071   332.84757584
 C      7   6   4     1.515204333357   128.31531023   358.56912591
 N      7   6   4     1.398592450978   119.72663198   184.25415068
 C      9   7   6     1.369794621513   124.80166406    10.53375698
 S     10   9   7     1.653613003988   121.80249669   173.63801306
 N     10   9   7     1.371659735225   116.39195688   353.58560667
 C     12  10   9     1.475446822688   124.70379758   351.01766992
 C     13  12  10     1.527620401277   110.73888498   252.82872237
 C     14  13  12     1.407271840032   120.20242521   225.22030600
 C     15  14  13     1.404704577024   120.76137156   180.63628143
 C     16  15  14     1.404893886677   119.66589930   359.88966924
 C     17  16  15     1.401113382824   119.84043339     0.04585129
 O     18  17  16     1.356714800611   120.00331213   179.53161820
 C     18  17  16     1.398489673791   120.37278167     0.00000000
 H      1   2   3     1.097948616058   111.42220742   309.13793983
 H      1   2   3     1.096623378109   110.15187888   189.69537829
 H      1   2   3     1.094447654755   111.09417993    70.89599398
 H      2   1   3     1.097822660074   108.82170307   120.82082949
 H      2   1   3     1.096140441984   108.72065522   237.12985811
 H      8   7   6     1.096894824508   111.59134234   326.86308502
 H      8   7   6     1.097253653037   111.84411213   208.24701661
 H      8   7   6     1.095172096870   111.18979913    88.12859417
 H      9   7   6     1.007684886203   119.64167301   183.44467810
 H     12  10   9     1.012103019888   114.96440393   181.39722785
 H     13  12  10     1.099974407299   107.26212909   135.44426352
 H     15  14  13     1.087855392638   119.80000792   359.62871523
 H     16  15  14     1.088647470320   119.88467147   179.59452866
 H     17  16  15     1.084947686925   119.89428443   179.85220803
 H     19  18  17     0.969083744013   107.42862877     3.96779681
 H     20  18  17     1.084645196961   118.91206393   179.89189520

---------------------------
INTERNAL COORDINATES (A.U.)
---------------------------
 C      0   0   0     0.000000000000     0.00000000     0.00000000
 C      1   0   0     2.917523476821     0.00000000     0.00000000
 O      2   1   0     2.737687984224   113.63107785     0.00000000
 C      3   2   1     2.582681867900   123.23233673   345.47791820
 O      4   3   2     2.301933997879   120.21856657    95.36874392
 C      4   3   2     2.841010206787   116.48770209   286.14926940
 C      6   4   3     2.567318984370   124.69043071   332.84757584
 C      7   6   4     2.863321226976   128.31531023   358.56912591
 N      7   6   4     2.642956705318   119.72663198   184.25415068
 C      9   7   6     2.588536694379   124.80166406    10.53375698
 S     10   9   7     3.124875709027   121.80249669   173.63801306
 N     10   9   7     2.592061248502   116.39195688   353.58560667
 C     12  10   9     2.788190420045   124.70379758   351.01766992
 C     13  12  10     2.886784195005   110.73888498   252.82872237
 C     14  13  12     2.659358373640   120.20242521   225.22030600
 C     15  14  13     2.654506949640   120.76137156   180.63628143
 C     16  15  14     2.654864693040   119.66589930   359.88966924
 C     17  16  15     2.647720576109   119.84043339     0.04585129
 O     18  17  16     2.563819414992   120.00331213   179.53161820
 C     18  17  16     2.642762484582   120.37278167     0.00000000
 H      1   2   3     2.074822193467   111.42220742   309.13793983
 H      1   2   3     2.072317856681   110.15187888   189.69537829
 H      1   2   3     2.068206335399   111.09417993    70.89599398
 H      2   1   3     2.074584171152   108.82170307   120.82082949
 H      2   1   3     2.071405239666   108.72065522   237.12985811
 H      8   7   6     2.072830816036   111.59134234   326.86308502
 H      8   7   6     2.073508903684   111.84411213   208.24701661
 H      8   7   6     2.069575332596   111.18979913    88.12859417
 H      9   7   6     1.904248464215   119.64167301   183.44467810
 H     12  10   9     1.912597526903   114.96440393   181.39722785
 H     13  12  10     2.078650384118   107.26212909   135.44426352
 H     15  14  13     2.055748765395   119.80000792   359.62871523
 H     16  15  14     2.057245575291   119.88467147   179.59452866
 H     17  16  15     2.050253997919   119.89428443   179.85220803
 H     19  18  17     1.831302877019   107.42862877     3.96779681
 H     20  18  17     2.049682374729   118.91206393   179.89189520

---------------------
BASIS SET INFORMATION
---------------------
There are 5 groups of distinct atoms

 Group   1 Type C   : 18s5p2d1f contracted to 4s3p2d1f pattern {8811/311/11/1}
 Group   2 Type O   : 18s5p2d1f contracted to 4s3p2d1f pattern {8811/311/11/1}
 Group   3 Type N   : 18s5p2d1f contracted to 4s3p2d1f pattern {8811/311/11/1}
 Group   4 Type S   : 41s16p2d1f contracted to 5s4p2d1f pattern {13131311/7711/11/1}
 Group   5 Type H   : 5s2p1d contracted to 3s2p1d pattern {311/11/1}

Atom   0C    basis set group =>   1
Atom   1C    basis set group =>   1
Atom   2O    basis set group =>   2
Atom   3C    basis set group =>   1
Atom   4O    basis set group =>   2
Atom   5C    basis set group =>   1
Atom   6C    basis set group =>   1
Atom   7C    basis set group =>   1
Atom   8N    basis set group =>   3
Atom   9C    basis set group =>   1
Atom  10S    basis set group =>   4
Atom  11N    basis set group =>   3
Atom  12C    basis set group =>   1
Atom  13C    basis set group =>   1
Atom  14C    basis set group =>   1
Atom  15C    basis set group =>   1
Atom  16C    basis set group =>   1
Atom  17C    basis set group =>   1
Atom  18O    basis set group =>   2
Atom  19C    basis set group =>   1
Atom  20H    basis set group =>   5
Atom  21H    basis set group =>   5
Atom  22H    basis set group =>   5
Atom  23H    basis set group =>   5
Atom  24H    basis set group =>   5
Atom  25H    basis set group =>   5
Atom  26H    basis set group =>   5
Atom  27H    basis set group =>   5
Atom  28H    basis set group =>   5
Atom  29H    basis set group =>   5
Atom  30H    basis set group =>   5
Atom  31H    basis set group =>   5
Atom  32H    basis set group =>   5
Atom  33H    basis set group =>   5
Atom  34H    basis set group =>   5
Atom  35H    basis set group =>   5
---------------------------------
AUXILIARY/C BASIS SET INFORMATION
---------------------------------
There are 5 groups of distinct atoms

 Group   1 Type C   : 8s6p5d3f1g contracted to 8s6p5d3f1g pattern {11111111/111111/11111/111/1}
 Group   2 Type O   : 8s6p5d3f1g contracted to 8s6p5d3f1g pattern {11111111/111111/11111/111/1}
 Group   3 Type N   : 8s6p5d3f1g contracted to 8s6p5d3f1g pattern {11111111/111111/11111/111/1}
 Group   4 Type S   : 10s8p7d5f2g contracted to 10s8p7d5f2g pattern {1111111111/11111111/1111111/11111/11}
 Group   5 Type H   : 4s3p2d1f contracted to 4s3p2d1f pattern {1111/111/11/1}

Atom   0C    basis set group =>   1
Atom   1C    basis set group =>   1
Atom   2O    basis set group =>   2
Atom   3C    basis set group =>   1
Atom   4O    basis set group =>   2
Atom   5C    basis set group =>   1
Atom   6C    basis set group =>   1
Atom   7C    basis set group =>   1
Atom   8N    basis set group =>   3
Atom   9C    basis set group =>   1
Atom  10S    basis set group =>   4
Atom  11N    basis set group =>   3
Atom  12C    basis set group =>   1
Atom  13C    basis set group =>   1
Atom  14C    basis set group =>   1
Atom  15C    basis set group =>   1
Atom  16C    basis set group =>   1
Atom  17C    basis set group =>   1
Atom  18O    basis set group =>   2
Atom  19C    basis set group =>   1
Atom  20H    basis set group =>   5
Atom  21H    basis set group =>   5
Atom  22H    basis set group =>   5
Atom  23H    basis set group =>   5
Atom  24H    basis set group =>   5
Atom  25H    basis set group =>   5
Atom  26H    basis set group =>   5
Atom  27H    basis set group =>   5
Atom  28H    basis set group =>   5
Atom  29H    basis set group =>   5
Atom  30H    basis set group =>   5
Atom  31H    basis set group =>   5
Atom  32H    basis set group =>   5
Atom  33H    basis set group =>   5
Atom  34H    basis set group =>   5
Atom  35H    basis set group =>   5
------------------------------------------------------------------------------
                           ORCA GTO INTEGRAL CALCULATION
------------------------------------------------------------------------------
------------------------------------------------------------------------------
                   ___                                                        
                  /   \      - P O W E R E D   B Y -                         
                 /     \                                                     
                 |  |  |   _    _      __       _____    __    __             
                 |  |  |  | |  | |    /  \     |  _  \  |  |  /  |          
                  \  \/   | |  | |   /    \    | | | |  |  | /  /          
                 / \  \   | |__| |  /  /\  \   | |_| |  |  |/  /          
                |  |  |   |  __  | /  /__\  \  |    /   |      \           
                |  |  |   | |  | | |   __   |  |    \   |  |\   \          
                \     /   | |  | | |  |  |  |  | |\  \  |  | \   \       
                 \___/    |_|  |_| |__|  |__|  |_| \__\ |__|  \__/        
                                                                              
                      - O R C A' S   B I G   F R I E N D -                    
                                      &                                       
                       - I N T E G R A L  F E E D E R -                       
                                                                              
 v1 FN, 2020, v2 2021                                                         
------------------------------------------------------------------------------


Reading SHARK input file CONFS/Conf444.orca.SHARKINP.tmp ... ok
----------------------
SHARK INTEGRAL PACKAGE
----------------------

Number of atoms                             ...     36
Number of basis functions                   ...    828
Number of shells                            ...    298
Maximum angular momentum                    ...      3
Integral batch strategy                     ... SHARK/LIBINT Hybrid
RI-J (if used) integral strategy            ... SPLIT-RIJ (Revised 2003 algorithm where possible)
Printlevel                                  ...      1
Contraction scheme used                     ... SEGMENTED contraction
Coulomb Range Separation                    ... NOT USED
Exchange Range Separation                   ... NOT USED
Finite Nucleus Model                        ... NOT USED
Auxiliary Coulomb fitting basis             ... NOT available
Auxiliary J/K fitting basis                 ... NOT available
Auxiliary Correlation fitting basis         ... AVAILABLE
   # of basis functions in Aux-C            ...   2141
   # of shells in Aux-C                     ...    629
   Maximum angular momentum in Aux-C        ...      4
Auxiliary 'external' fitting basis          ... NOT available
Integral threshold                          ...     2.500000e-11
Primitive cut-off                           ...     2.500000e-12
Primitive pair pre-selection threshold      ...     2.500000e-12

Calculating pre-screening integrals         ... done (  0.6 sec) Dimension = 298
Organizing shell pair data                  ... done (  1.4 sec)
Shell pair information
Total number of shell pairs                 ...     44551
Shell pairs after pre-screening             ...     34611
Total number of primitive shell pairs       ...    234348
Primitive shell pairs kept                  ...     99068
          la=0 lb=0:   6874 shell pairs
          la=1 lb=0:   9597 shell pairs
          la=1 lb=1:   3399 shell pairs
          la=2 lb=0:   5538 shell pairs
          la=2 lb=1:   3815 shell pairs
          la=2 lb=2:   1094 shell pairs
          la=3 lb=0:   1988 shell pairs
          la=3 lb=1:   1380 shell pairs
          la=3 lb=2:    775 shell pairs
          la=3 lb=3:    151 shell pairs

Calculating one electron integrals          ... done (  0.4 sec)
Calculating RI/C V-Matrix + Cholesky decomp.... done (  1.1 sec)
Calculating Nuclear repulsion               ... done (  0.1 sec) ENN=   1732.467143629353 Eh

SHARK setup successfully completed in   4.0 seconds

Maximum memory used throughout the entire GTOINT-calculation: 516.8 MB
-------------------------------------------------------------------------------
                                 ORCA SCF
-------------------------------------------------------------------------------

------------
SCF SETTINGS
------------
Hamiltonian:
 Ab initio Hamiltonian  Method          .... Hartree-Fock(GTOs)


General Settings:
 Integral files         IntName         .... CONFS/Conf444.orca
 Hartree-Fock type      HFTyp           .... RHF
 Total Charge           Charge          ....    0
 Multiplicity           Mult            ....    1
 Number of Electrons    NEL             ....  154
 Basis Dimension        Dim             ....  828
 Nuclear Repulsion      ENuc            ....   1732.4671436294 Eh

Convergence Acceleration:
 DIIS                   CNVDIIS         .... on
   Start iteration      DIISMaxIt       ....    12
   Startup error        DIISStart       ....  0.200000
   # of expansion vecs  DIISMaxEq       ....     5
   Bias factor          DIISBfac        ....   1.050
   Max. coefficient     DIISMaxC        ....  10.000
 Trust-Rad. Augm. Hess. CNVTRAH         .... auto
   Auto Start mean grad. ratio tolernc. ....  1.125000
   Auto Start start iteration           ....    20
   Auto Start num. interpolation iter.  ....    10
   Max. Number of Micro iterations      ....    16
   Max. Number of Macro iterations      .... Maxiter - #DIIS iter
   Number of Davidson start vectors     ....     2
   Converg. threshold I  (grad. norm)   ....   1.000e-05
   Converg. threshold II (energy diff.) ....   1.000e-08
   Grad. Scal. Fac. for Micro threshold ....   0.100
   Minimum threshold for Micro iter.    ....   0.010
   NR start threshold (gradient norm)   ....   0.001
   Initial trust radius                 ....   0.400
   Minimum AH scaling param. (alpha)    ....   1.000
   Maximum AH scaling param. (alpha)    .... 1000.000
   Orbital update algorithm             .... Taylor
   White noise on init. David. guess    .... on
   Maximum white noise                  ....   0.010
   Quad. conv. algorithm                .... NR
 SOSCF                  CNVSOSCF        .... on
   Start iteration      SOSCFMaxIt      ....   150
   Startup grad/error   SOSCFStart      ....  0.003300
 Level Shifting         CNVShift        .... on
   Level shift para.    LevelShift      ....    0.2500
   Turn off err/grad.   ShiftErr        ....    0.0010
 Zerner damping         CNVZerner       .... off
 Static damping         CNVDamp         .... on
   Fraction old density DampFac         ....    0.7000
   Max. Damping (<1)    DampMax         ....    0.9800
   Min. Damping (>=0)   DampMin         ....    0.0000
   Turn off err/grad.   DampErr         ....    0.1000
 Fernandez-Rico         CNVRico         .... off

SCF Procedure:
 Maximum # iterations   MaxIter         ....   125
 SCF integral mode      SCFMode         .... Direct
   Integral package                     .... SHARK and LIBINT hybrid scheme
 Reset frequency        DirectResetFreq ....    20
 Integral Threshold     Thresh          ....  2.500e-11 Eh
 Primitive CutOff       TCut            ....  2.500e-12 Eh

Convergence Tolerance:
 Convergence Check Mode ConvCheckMode   .... Total+1el-Energy
 Convergence forced     ConvForced      .... 1
 Energy Change          TolE            ....  1.000e-08 Eh
 1-El. energy change                    ....  1.000e-05 Eh
 Orbital Gradient       TolG            ....  1.000e-05
 Orbital Rotation angle TolX            ....  1.000e-05
 DIIS Error             TolErr          ....  5.000e-07


Diagonalization of the overlap matrix:
Smallest eigenvalue                        ... 3.213e-05
Time for diagonalization                   ...    0.144 sec
Threshold for overlap eigenvalues          ... 1.000e-08
Number of eigenvalues below threshold      ... 0
Time for construction of square roots      ...    0.090 sec
Total time needed                          ...    0.236 sec

Time for model grid setup =    1.496 sec

------------------------------
INITIAL GUESS: MODEL POTENTIAL
------------------------------
Loading Hartree-Fock densities                     ... done
Calculating cut-offs                               ... done
Initializing the effective Hamiltonian             ... done
Setting up the integral package (SHARK)            ... done
Starting the Coulomb interaction                   ... done (   4.7 sec)
Reading the grid                                   ... done
Mapping shells                                     ... done
Starting the XC term evaluation                    ... done (   1.5 sec)
Transforming the Hamiltonian                       ... done (   0.1 sec)
Diagonalizing the Hamiltonian                      ... done (   0.1 sec)
Back transforming the eigenvectors                 ... done (   0.0 sec)
Now organizing SCF variables                       ... done
                      ------------------
                      INITIAL GUESS DONE (   8.0 sec)
                      ------------------
--------------
SCF ITERATIONS
--------------
ITER       Energy         Delta-E        Max-DP      RMS-DP      [F,P]     Damp
               ***  Starting incremental Fock matrix formation  ***
  0  -1270.0012438618   0.000000000000 0.04935750  0.00044420  0.3014104 0.7000
  1  -1270.2664974035  -0.265253541704 0.03611032  0.00036052  0.1745347 0.7000
                               ***Turning on DIIS***
  2  -1270.4319317053  -0.165434301731 0.02585792  0.00023974  0.1097387 0.7000
  3  -1272.5652918261  -2.133360120854 0.06318288  0.00051254  0.0828584 0.0000
  4  -1270.7391330078   1.826158818271 0.01221227  0.00010293  0.0065796 0.0000
  5  -1270.7973127557  -0.058179747861 0.00604328  0.00005557  0.0039235 0.0000
                      *** Initiating the SOSCF procedure ***
                           *** Shutting down DIIS ***
                      *** Re-Reading the Fockian *** 
                      *** Removing any level shift *** 
ITER      Energy       Delta-E        Grad      Rot      Max-DP    RMS-DP
  6  -1270.77685966   0.0204530973  0.001562  0.001562  0.003127  0.000028
               *** Restarting incremental Fock matrix formation ***
  7  -1270.79172555  -0.0148658933  0.000846  0.002167  0.001990  0.000018
  8  -1270.79177872  -0.0000531658  0.000403  0.002679  0.002239  0.000020
  9  -1270.79179985  -0.0000211334  0.000160  0.000295  0.000372  0.000005
 10  -1270.79180263  -0.0000027773  0.000055  0.000143  0.000130  0.000002
 11  -1270.79180291  -0.0000002791  0.000025  0.000153  0.000087  0.000001
 12  -1270.79180298  -0.0000000743  0.000010  0.000033  0.000028  0.000000
 13  -1270.79180299  -0.0000000068  0.000003  0.000006  0.000005  0.000000
                  ***Gradient check signals convergence***
              ***Rediagonalizing the Fockian in SOSCF/NRSCF***

               *****************************************************
               *                     SUCCESS                       *
               *           SCF CONVERGED AFTER  14 CYCLES          *
               *****************************************************


----------------
TOTAL SCF ENERGY
----------------

Total Energy       :        -1270.79180299 Eh          -34580.00297 eV

Components:
Nuclear Repulsion  :         1732.46714363 Eh           47142.82767 eV
Electronic Energy  :        -3003.25894662 Eh          -81722.83065 eV
One Electron Energy:        -5185.94010965 Eh         -141116.60461 eV
Two Electron Energy:         2182.68116303 Eh           59393.77397 eV

Virial components:
Potential Energy   :        -2539.75792809 Eh          -69110.32672 eV
Kinetic Energy     :         1268.96612510 Eh           34530.32375 eV
Virial Ratio       :            2.00143871


---------------
SCF CONVERGENCE
---------------

  Last Energy change         ...    3.1241e-10  Tolerance :   1.0000e-08
  Last MAX-Density change    ...    2.2758e-06  Tolerance :   1.0000e-07
  Last RMS-Density change    ...    3.5817e-08  Tolerance :   5.0000e-09
  Last Orbital Gradient      ...    1.2954e-06  Tolerance :   1.0000e-05
  Last Orbital Rotation      ...    2.8716e-06  Tolerance :   1.0000e-05

             **** THE GBW FILE WAS UPDATED (CONFS/Conf444.orca.gbw) ****
             **** DENSITY CONFS/Conf444.orca.scfp WAS UPDATED ****
             **** ENERGY FILE WAS UPDATED (CONFS/Conf444.orca.en.tmp) ****
             **** THE GBW FILE WAS UPDATED (CONFS/Conf444.orca.gbw) ****
             **** DENSITY CONFS/Conf444.orca.scfp WAS UPDATED ****
----------------
ORBITAL ENERGIES
----------------

  NO   OCC          E(Eh)            E(eV) 
   0   2.0000     -91.890981     -2500.4807 
   1   2.0000     -20.596044      -560.4468 
   2   2.0000     -20.584619      -560.1359 
   3   2.0000     -20.552775      -559.2695 
   4   2.0000     -15.631070      -425.3430 
   5   2.0000     -15.609437      -424.7544 
   6   2.0000     -11.396725      -310.1207 
   7   2.0000     -11.386000      -309.8288 
   8   2.0000     -11.339460      -308.5624 
   9   2.0000     -11.312403      -307.8261 
  10   2.0000     -11.309197      -307.7389 
  11   2.0000     -11.308203      -307.7119 
  12   2.0000     -11.264469      -306.5218 
  13   2.0000     -11.263730      -306.5017 
  14   2.0000     -11.258436      -306.3576 
  15   2.0000     -11.252381      -306.1929 
  16   2.0000     -11.241982      -305.9099 
  17   2.0000     -11.237688      -305.7930 
  18   2.0000     -11.233764      -305.6863 
  19   2.0000     -11.228074      -305.5314 
  20   2.0000      -8.896039      -242.0735 
  21   2.0000      -6.577614      -178.9860 
  22   2.0000      -6.575606      -178.9313 
  23   2.0000      -6.575017      -178.9153 
  24   2.0000      -1.445763       -39.3412 
  25   2.0000      -1.415867       -38.5277 
  26   2.0000      -1.355655       -36.8893 
  27   2.0000      -1.342661       -36.5357 
  28   2.0000      -1.240145       -33.7461 
  29   2.0000      -1.156392       -31.4670 
  30   2.0000      -1.122245       -30.5378 
  31   2.0000      -1.044637       -28.4260 
  32   2.0000      -1.034114       -28.1397 
  33   2.0000      -1.014652       -27.6101 
  34   2.0000      -1.003030       -27.2938 
  35   2.0000      -0.987900       -26.8821 
  36   2.0000      -0.925796       -25.1922 
  37   2.0000      -0.897056       -24.4101 
  38   2.0000      -0.852656       -23.2020 
  39   2.0000      -0.840362       -22.8674 
  40   2.0000      -0.832444       -22.6519 
  41   2.0000      -0.823405       -22.4060 
  42   2.0000      -0.744105       -20.2481 
  43   2.0000      -0.729177       -19.8419 
  44   2.0000      -0.729035       -19.8380 
  45   2.0000      -0.693813       -18.8796 
  46   2.0000      -0.687182       -18.6992 
  47   2.0000      -0.679822       -18.4989 
  48   2.0000      -0.674800       -18.3622 
  49   2.0000      -0.663256       -18.0481 
  50   2.0000      -0.652113       -17.7449 
  51   2.0000      -0.649950       -17.6860 
  52   2.0000      -0.638533       -17.3754 
  53   2.0000      -0.627478       -17.0745 
  54   2.0000      -0.606318       -16.4987 
  55   2.0000      -0.603903       -16.4330 
  56   2.0000      -0.600005       -16.3270 
  57   2.0000      -0.581653       -15.8276 
  58   2.0000      -0.574601       -15.6357 
  59   2.0000      -0.564592       -15.3633 
  60   2.0000      -0.555564       -15.1177 
  61   2.0000      -0.545227       -14.8364 
  62   2.0000      -0.539149       -14.6710 
  63   2.0000      -0.533724       -14.5234 
  64   2.0000      -0.520059       -14.1515 
  65   2.0000      -0.512420       -13.9437 
  66   2.0000      -0.500000       -13.6057 
  67   2.0000      -0.490605       -13.3500 
  68   2.0000      -0.486004       -13.2248 
  69   2.0000      -0.469676       -12.7805 
  70   2.0000      -0.456105       -12.4113 
  71   2.0000      -0.448856       -12.2140 
  72   2.0000      -0.358235        -9.7481 
  73   2.0000      -0.347431        -9.4541 
  74   2.0000      -0.330154        -8.9839 
  75   2.0000      -0.320808        -8.7296 
  76   2.0000      -0.318037        -8.6542 
  77   0.0000       0.070458         1.9173 
  78   0.0000       0.106824         2.9068 
  79   0.0000       0.118535         3.2255 
  80   0.0000       0.132053         3.5933 
  81   0.0000       0.136160         3.7051 
  82   0.0000       0.143096         3.8938 
  83   0.0000       0.151509         4.1228 
  84   0.0000       0.155110         4.2207 
  85   0.0000       0.160620         4.3707 
  86   0.0000       0.169847         4.6218 
  87   0.0000       0.178762         4.8644 
  88   0.0000       0.192682         5.2431 
  89   0.0000       0.198574         5.4035 
  90   0.0000       0.201312         5.4780 
  91   0.0000       0.206654         5.6233 
  92   0.0000       0.212373         5.7790 
  93   0.0000       0.221473         6.0266 
  94   0.0000       0.227116         6.1801 
  95   0.0000       0.237125         6.4525 
  96   0.0000       0.244289         6.6474 
  97   0.0000       0.262676         7.1478 
  98   0.0000       0.269513         7.3338 
  99   0.0000       0.281313         7.6549 
 100   0.0000       0.284490         7.7414 
 101   0.0000       0.299642         8.1537 
 102   0.0000       0.313201         8.5226 
 103   0.0000       0.319465         8.6931 
 104   0.0000       0.322259         8.7691 
 105   0.0000       0.329497         8.9661 
 106   0.0000       0.337723         9.1899 
 107   0.0000       0.348744         9.4898 
 108   0.0000       0.351625         9.5682 
 109   0.0000       0.362517         9.8646 
 110   0.0000       0.369285        10.0487 
 111   0.0000       0.378362        10.2958 
 112   0.0000       0.381254        10.3744 
 113   0.0000       0.387837        10.5536 
 114   0.0000       0.400589        10.9006 
 115   0.0000       0.411287        11.1917 
 116   0.0000       0.420920        11.4538 
 117   0.0000       0.431400        11.7390 
 118   0.0000       0.438498        11.9321 
 119   0.0000       0.446852        12.1595 
 120   0.0000       0.448218        12.1966 
 121   0.0000       0.449783        12.2392 
 122   0.0000       0.455442        12.3932 
 123   0.0000       0.461083        12.5467 
 124   0.0000       0.465671        12.6716 
 125   0.0000       0.471095        12.8191 
 126   0.0000       0.483474        13.1560 
 127   0.0000       0.489666        13.3245 
 128   0.0000       0.495210        13.4753 
 129   0.0000       0.503559        13.7025 
 130   0.0000       0.504400        13.7254 
 131   0.0000       0.508643        13.8409 
 132   0.0000       0.514896        14.0110 
 133   0.0000       0.522029        14.2051 
 134   0.0000       0.523511        14.2455 
 135   0.0000       0.530405        14.4331 
 136   0.0000       0.533477        14.5166 
 137   0.0000       0.539622        14.6839 
 138   0.0000       0.546158        14.8617 
 139   0.0000       0.553084        15.0502 
 140   0.0000       0.558727        15.2037 
 141   0.0000       0.562473        15.3057 
 142   0.0000       0.564414        15.3585 
 143   0.0000       0.572442        15.5769 
 144   0.0000       0.576272        15.6812 
 145   0.0000       0.586340        15.9551 
 146   0.0000       0.589484        16.0407 
 147   0.0000       0.593092        16.1389 
 148   0.0000       0.593645        16.1539 
 149   0.0000       0.602228        16.3875 
 150   0.0000       0.604811        16.4577 
 151   0.0000       0.610645        16.6165 
 152   0.0000       0.612884        16.6774 
 153   0.0000       0.620784        16.8924 
 154   0.0000       0.621712        16.9177 
 155   0.0000       0.628421        17.1002 
 156   0.0000       0.634991        17.2790 
 157   0.0000       0.638155        17.3651 
 158   0.0000       0.638770        17.3818 
 159   0.0000       0.641650        17.4602 
 160   0.0000       0.652791        17.7634 
 161   0.0000       0.657427        17.8895 
 162   0.0000       0.662793        18.0355 
 163   0.0000       0.665919        18.1206 
 164   0.0000       0.672684        18.3047 
 165   0.0000       0.678605        18.4658 
 166   0.0000       0.682828        18.5807 
 167   0.0000       0.685280        18.6474 
 168   0.0000       0.695530        18.9263 
 169   0.0000       0.699984        19.0475 
 170   0.0000       0.702555        19.1175 
 171   0.0000       0.711454        19.3596 
 172   0.0000       0.719725        19.5847 
 173   0.0000       0.723778        19.6950 
 174   0.0000       0.732188        19.9239 
 175   0.0000       0.734910        19.9979 
 176   0.0000       0.738060        20.0836 
 177   0.0000       0.747314        20.3355 
 178   0.0000       0.751437        20.4476 
 179   0.0000       0.760571        20.6962 
 180   0.0000       0.763982        20.7890 
 181   0.0000       0.774698        21.0806 
 182   0.0000       0.784422        21.3452 
 183   0.0000       0.800739        21.7892 
 184   0.0000       0.807188        21.9647 
 185   0.0000       0.813193        22.1281 
 186   0.0000       0.823906        22.4196 
 187   0.0000       0.825738        22.4695 
 188   0.0000       0.832702        22.6590 
 189   0.0000       0.836165        22.7532 
 190   0.0000       0.846942        23.0465 
 191   0.0000       0.851383        23.1673 
 192   0.0000       0.865179        23.5427 
 193   0.0000       0.873885        23.7796 
 194   0.0000       0.874955        23.8087 
 195   0.0000       0.883117        24.0308 
 196   0.0000       0.887959        24.1626 
 197   0.0000       0.896141        24.3852 
 198   0.0000       0.899949        24.4889 
 199   0.0000       0.911876        24.8134 
 200   0.0000       0.920785        25.0558 
 201   0.0000       0.927201        25.2304 
 202   0.0000       0.929761        25.3001 
 203   0.0000       0.944250        25.6944 
 204   0.0000       0.948638        25.8137 
 205   0.0000       0.955228        25.9931 
 206   0.0000       0.963531        26.2190 
 207   0.0000       0.966814        26.3083 
 208   0.0000       0.977931        26.6109 
 209   0.0000       0.982651        26.7393 
 210   0.0000       0.985016        26.8036 
 211   0.0000       0.996360        27.1123 
 212   0.0000       1.002011        27.2661 
 213   0.0000       1.007101        27.4046 
 214   0.0000       1.014769        27.6133 
 215   0.0000       1.022917        27.8350 
 216   0.0000       1.029959        28.0266 
 217   0.0000       1.037954        28.2442 
 218   0.0000       1.040541        28.3146 
 219   0.0000       1.047023        28.4910 
 220   0.0000       1.061055        28.8728 
 221   0.0000       1.066066        29.0091 
 222   0.0000       1.069700        29.1080 
 223   0.0000       1.084183        29.5021 
 224   0.0000       1.090247        29.6671 
 225   0.0000       1.098103        29.8809 
 226   0.0000       1.101365        29.9697 
 227   0.0000       1.107840        30.1459 
 228   0.0000       1.111886        30.2560 
 229   0.0000       1.121291        30.5119 
 230   0.0000       1.127692        30.6861 
 231   0.0000       1.139479        31.0068 
 232   0.0000       1.150144        31.2970 
 233   0.0000       1.154824        31.4244 
 234   0.0000       1.159101        31.5407 
 235   0.0000       1.165242        31.7079 
 236   0.0000       1.180125        32.1128 
 237   0.0000       1.182268        32.1711 
 238   0.0000       1.187496        32.3134 
 239   0.0000       1.197161        32.5764 
 240   0.0000       1.203793        32.7569 
 241   0.0000       1.209369        32.9086 
 242   0.0000       1.218794        33.1651 
 243   0.0000       1.226491        33.3745 
 244   0.0000       1.230662        33.4880 
 245   0.0000       1.234996        33.6059 
 246   0.0000       1.243337        33.8329 
 247   0.0000       1.250746        34.0345 
 248   0.0000       1.256205        34.1831 
 249   0.0000       1.271065        34.5874 
 250   0.0000       1.277360        34.7587 
 251   0.0000       1.283071        34.9141 
 252   0.0000       1.288969        35.0746 
 253   0.0000       1.296344        35.2753 
 254   0.0000       1.301465        35.4147 
 255   0.0000       1.309409        35.6308 
 256   0.0000       1.316377        35.8205 
 257   0.0000       1.318245        35.8713 
 258   0.0000       1.331931        36.2437 
 259   0.0000       1.339535        36.4506 
 260   0.0000       1.348629        36.6981 
 261   0.0000       1.350404        36.7464 
 262   0.0000       1.354499        36.8578 
 263   0.0000       1.365882        37.1675 
 264   0.0000       1.374169        37.3930 
 265   0.0000       1.388062        37.7711 
 266   0.0000       1.401081        38.1253 
 267   0.0000       1.405032        38.2329 
 268   0.0000       1.405909        38.2567 
 269   0.0000       1.419561        38.6282 
 270   0.0000       1.425370        38.7863 
 271   0.0000       1.425880        38.8002 
 272   0.0000       1.441243        39.2182 
 273   0.0000       1.443223        39.2721 
 274   0.0000       1.456546        39.6346 
 275   0.0000       1.463160        39.8146 
 276   0.0000       1.466200        39.8973 
 277   0.0000       1.477521        40.2054 
 278   0.0000       1.481985        40.3269 
 279   0.0000       1.490698        40.5640 
 280   0.0000       1.498309        40.7711 
 281   0.0000       1.500843        40.8400 
 282   0.0000       1.504989        40.9528 
 283   0.0000       1.510546        41.1040 
 284   0.0000       1.522774        41.4368 
 285   0.0000       1.525857        41.5207 
 286   0.0000       1.539064        41.8801 
 287   0.0000       1.545204        42.0471 
 288   0.0000       1.548524        42.1375 
 289   0.0000       1.555615        42.3304 
 290   0.0000       1.566326        42.6219 
 291   0.0000       1.574718        42.8503 
 292   0.0000       1.578903        42.9641 
 293   0.0000       1.584985        43.1296 
 294   0.0000       1.592754        43.3410 
 295   0.0000       1.603210        43.6256 
 296   0.0000       1.610345        43.8197 
 297   0.0000       1.623678        44.1825 
 298   0.0000       1.629552        44.3424 
 299   0.0000       1.631751        44.4022 
 300   0.0000       1.645640        44.7801 
 301   0.0000       1.653137        44.9841 
 302   0.0000       1.664761        45.3004 
 303   0.0000       1.671697        45.4892 
 304   0.0000       1.676202        45.6118 
 305   0.0000       1.683851        45.8199 
 306   0.0000       1.694910        46.1209 
 307   0.0000       1.700886        46.2835 
 308   0.0000       1.709020        46.5048 
 309   0.0000       1.719268        46.7837 
 310   0.0000       1.731405        47.1139 
 311   0.0000       1.739407        47.3317 
 312   0.0000       1.744567        47.4721 
 313   0.0000       1.749962        47.6189 
 314   0.0000       1.761780        47.9405 
 315   0.0000       1.767162        48.0869 
 316   0.0000       1.774816        48.2952 
 317   0.0000       1.792809        48.7848 
 318   0.0000       1.797772        48.9199 
 319   0.0000       1.808470        49.2110 
 320   0.0000       1.819106        49.5004 
 321   0.0000       1.838628        50.0316 
 322   0.0000       1.853368        50.4327 
 323   0.0000       1.855091        50.4796 
 324   0.0000       1.867092        50.8062 
 325   0.0000       1.892118        51.4872 
 326   0.0000       1.903703        51.8024 
 327   0.0000       1.905681        51.8562 
 328   0.0000       1.913050        52.0567 
 329   0.0000       1.923626        52.3445 
 330   0.0000       1.927860        52.4597 
 331   0.0000       1.941549        52.8322 
 332   0.0000       1.951943        53.1151 
 333   0.0000       1.976978        53.7963 
 334   0.0000       1.987579        54.0848 
 335   0.0000       1.989602        54.1398 
 336   0.0000       2.005519        54.5729 
 337   0.0000       2.013717        54.7960 
 338   0.0000       2.017412        54.8966 
 339   0.0000       2.029339        55.2211 
 340   0.0000       2.040739        55.5313 
 341   0.0000       2.046344        55.6838 
 342   0.0000       2.060397        56.0662 
 343   0.0000       2.088228        56.8236 
 344   0.0000       2.096444        57.0471 
 345   0.0000       2.101893        57.1954 
 346   0.0000       2.120374        57.6983 
 347   0.0000       2.136143        58.1274 
 348   0.0000       2.150139        58.5083 
 349   0.0000       2.169614        59.0382 
 350   0.0000       2.182968        59.4016 
 351   0.0000       2.202569        59.9349 
 352   0.0000       2.208917        60.1077 
 353   0.0000       2.237668        60.8900 
 354   0.0000       2.242834        61.0306 
 355   0.0000       2.255599        61.3780 
 356   0.0000       2.279630        62.0319 
 357   0.0000       2.288105        62.2625 
 358   0.0000       2.291093        62.3438 
 359   0.0000       2.313777        62.9611 
 360   0.0000       2.319742        63.1234 
 361   0.0000       2.338943        63.6459 
 362   0.0000       2.356789        64.1315 
 363   0.0000       2.363103        64.3033 
 364   0.0000       2.375224        64.6331 
 365   0.0000       2.383035        64.8457 
 366   0.0000       2.403326        65.3978 
 367   0.0000       2.407931        65.5231 
 368   0.0000       2.421272        65.8861 
 369   0.0000       2.435343        66.2691 
 370   0.0000       2.451425        66.7067 
 371   0.0000       2.455120        66.8072 
 372   0.0000       2.473537        67.3084 
 373   0.0000       2.493834        67.8607 
 374   0.0000       2.506498        68.2053 
 375   0.0000       2.513079        68.3844 
 376   0.0000       2.525217        68.7147 
 377   0.0000       2.536330        69.0170 
 378   0.0000       2.544755        69.2463 
 379   0.0000       2.551499        69.4298 
 380   0.0000       2.580786        70.2268 
 381   0.0000       2.588190        70.4282 
 382   0.0000       2.588848        70.4461 
 383   0.0000       2.605512        70.8996 
 384   0.0000       2.626009        71.4573 
 385   0.0000       2.636674        71.7475 
 386   0.0000       2.641171        71.8699 
 387   0.0000       2.647782        72.0498 
 388   0.0000       2.666635        72.5628 
 389   0.0000       2.675285        72.7982 
 390   0.0000       2.687017        73.1175 
 391   0.0000       2.702595        73.5413 
 392   0.0000       2.713118        73.8277 
 393   0.0000       2.727878        74.2293 
 394   0.0000       2.735582        74.4390 
 395   0.0000       2.739810        74.5540 
 396   0.0000       2.756245        75.0013 
 397   0.0000       2.764073        75.2142 
 398   0.0000       2.767329        75.3028 
 399   0.0000       2.770098        75.3782 
 400   0.0000       2.785936        75.8092 
 401   0.0000       2.793003        76.0015 
 402   0.0000       2.804522        76.3149 
 403   0.0000       2.818630        76.6988 
 404   0.0000       2.830752        77.0287 
 405   0.0000       2.833696        77.1088 
 406   0.0000       2.844709        77.4085 
 407   0.0000       2.854723        77.6810 
 408   0.0000       2.857927        77.7682 
 409   0.0000       2.871393        78.1346 
 410   0.0000       2.876740        78.2801 
 411   0.0000       2.886636        78.5494 
 412   0.0000       2.894569        78.7652 
 413   0.0000       2.898299        78.8667 
 414   0.0000       2.914236        79.3004 
 415   0.0000       2.921946        79.5102 
 416   0.0000       2.931986        79.7834 
 417   0.0000       2.934183        79.8432 
 418   0.0000       2.943260        80.0902 
 419   0.0000       2.959766        80.5393 
 420   0.0000       2.962252        80.6070 
 421   0.0000       2.970688        80.8365 
 422   0.0000       2.991958        81.4153 
 423   0.0000       2.994682        81.4894 
 424   0.0000       3.008721        81.8715 
 425   0.0000       3.019588        82.1672 
 426   0.0000       3.024408        82.2983 
 427   0.0000       3.028766        82.4169 
 428   0.0000       3.030688        82.4692 
 429   0.0000       3.035153        82.5907 
 430   0.0000       3.045887        82.8828 
 431   0.0000       3.051561        83.0372 
 432   0.0000       3.059064        83.2414 
 433   0.0000       3.064679        83.3942 
 434   0.0000       3.073384        83.6310 
 435   0.0000       3.085896        83.9715 
 436   0.0000       3.095104        84.2221 
 437   0.0000       3.106691        84.5374 
 438   0.0000       3.108429        84.5846 
 439   0.0000       3.115579        84.7792 
 440   0.0000       3.123726        85.0009 
 441   0.0000       3.125705        85.0548 
 442   0.0000       3.136866        85.3585 
 443   0.0000       3.150386        85.7264 
 444   0.0000       3.151113        85.7461 
 445   0.0000       3.161426        86.0268 
 446   0.0000       3.169200        86.2383 
 447   0.0000       3.180099        86.5349 
 448   0.0000       3.192538        86.8734 
 449   0.0000       3.194920        86.9382 
 450   0.0000       3.199329        87.0582 
 451   0.0000       3.210572        87.3641 
 452   0.0000       3.214431        87.4691 
 453   0.0000       3.222745        87.6954 
 454   0.0000       3.229283        87.8732 
 455   0.0000       3.237571        88.0988 
 456   0.0000       3.245701        88.3200 
 457   0.0000       3.256729        88.6201 
 458   0.0000       3.260699        88.7281 
 459   0.0000       3.262644        88.7810 
 460   0.0000       3.268788        88.9482 
 461   0.0000       3.281342        89.2898 
 462   0.0000       3.293462        89.6197 
 463   0.0000       3.298574        89.7588 
 464   0.0000       3.305878        89.9575 
 465   0.0000       3.312601        90.1405 
 466   0.0000       3.314906        90.2032 
 467   0.0000       3.323068        90.4253 
 468   0.0000       3.326035        90.5060 
 469   0.0000       3.330060        90.6155 
 470   0.0000       3.344534        91.0094 
 471   0.0000       3.351679        91.2038 
 472   0.0000       3.354452        91.2793 
 473   0.0000       3.362474        91.4976 
 474   0.0000       3.365652        91.5840 
 475   0.0000       3.375415        91.8497 
 476   0.0000       3.377406        91.9039 
 477   0.0000       3.383063        92.0578 
 478   0.0000       3.391714        92.2932 
 479   0.0000       3.396288        92.4177 
 480   0.0000       3.399247        92.4982 
 481   0.0000       3.404336        92.6367 
 482   0.0000       3.407321        92.7179 
 483   0.0000       3.412627        92.8623 
 484   0.0000       3.421501        93.1038 
 485   0.0000       3.426943        93.2519 
 486   0.0000       3.432472        93.4023 
 487   0.0000       3.436878        93.5222 
 488   0.0000       3.442281        93.6692 
 489   0.0000       3.446521        93.7846 
 490   0.0000       3.450691        93.8981 
 491   0.0000       3.457156        94.0740 
 492   0.0000       3.462846        94.2288 
 493   0.0000       3.470261        94.4306 
 494   0.0000       3.475385        94.5700 
 495   0.0000       3.476074        94.5888 
 496   0.0000       3.485889        94.8559 
 497   0.0000       3.489726        94.9603 
 498   0.0000       3.502131        95.2978 
 499   0.0000       3.509824        95.5072 
 500   0.0000       3.515214        95.6538 
 501   0.0000       3.523906        95.8904 
 502   0.0000       3.531962        96.1096 
 503   0.0000       3.536927        96.2447 
 504   0.0000       3.547522        96.5330 
 505   0.0000       3.556970        96.7901 
 506   0.0000       3.563023        96.9548 
 507   0.0000       3.574685        97.2721 
 508   0.0000       3.582612        97.4878 
 509   0.0000       3.591411        97.7273 
 510   0.0000       3.600196        97.9663 
 511   0.0000       3.604641        98.0873 
 512   0.0000       3.611515        98.2743 
 513   0.0000       3.623479        98.5999 
 514   0.0000       3.628365        98.7328 
 515   0.0000       3.632371        98.8418 
 516   0.0000       3.635448        98.9256 
 517   0.0000       3.636917        98.9656 
 518   0.0000       3.642026        99.1046 
 519   0.0000       3.659730        99.5863 
 520   0.0000       3.662578        99.6638 
 521   0.0000       3.665815        99.7519 
 522   0.0000       3.670568        99.8812 
 523   0.0000       3.677689       100.0750 
 524   0.0000       3.683546       100.2344 
 525   0.0000       3.688281       100.3632 
 526   0.0000       3.702754       100.7571 
 527   0.0000       3.706467       100.8581 
 528   0.0000       3.710973       100.9807 
 529   0.0000       3.719973       101.2256 
 530   0.0000       3.721847       101.2766 
 531   0.0000       3.734728       101.6271 
 532   0.0000       3.742576       101.8407 
 533   0.0000       3.751137       102.0736 
 534   0.0000       3.758386       102.2709 
 535   0.0000       3.762629       102.3863 
 536   0.0000       3.768507       102.5463 
 537   0.0000       3.769727       102.5795 
 538   0.0000       3.772508       102.6552 
 539   0.0000       3.775812       102.7451 
 540   0.0000       3.782615       102.9302 
 541   0.0000       3.799904       103.4006 
 542   0.0000       3.802296       103.4657 
 543   0.0000       3.809376       103.6584 
 544   0.0000       3.815273       103.8188 
 545   0.0000       3.824932       104.0817 
 546   0.0000       3.827724       104.1577 
 547   0.0000       3.839437       104.4764 
 548   0.0000       3.846843       104.6779 
 549   0.0000       3.856428       104.9387 
 550   0.0000       3.860312       105.0444 
 551   0.0000       3.866724       105.2189 
 552   0.0000       3.877574       105.5142 
 553   0.0000       3.880540       105.5949 
 554   0.0000       3.888919       105.8229 
 555   0.0000       3.896166       106.0201 
 556   0.0000       3.907342       106.3242 
 557   0.0000       3.912131       106.4545 
 558   0.0000       3.924135       106.7812 
 559   0.0000       3.932005       106.9953 
 560   0.0000       3.941613       107.2567 
 561   0.0000       3.949812       107.4799 
 562   0.0000       3.955647       107.6386 
 563   0.0000       3.964377       107.8762 
 564   0.0000       3.977830       108.2422 
 565   0.0000       3.985006       108.4375 
 566   0.0000       3.988834       108.5417 
 567   0.0000       3.990328       108.5824 
 568   0.0000       4.014350       109.2360 
 569   0.0000       4.018537       109.3500 
 570   0.0000       4.024874       109.5224 
 571   0.0000       4.039603       109.9232 
 572   0.0000       4.045584       110.0859 
 573   0.0000       4.051629       110.2504 
 574   0.0000       4.066299       110.6496 
 575   0.0000       4.074643       110.8767 
 576   0.0000       4.080847       111.0455 
 577   0.0000       4.088980       111.2668 
 578   0.0000       4.098842       111.5352 
 579   0.0000       4.109590       111.8276 
 580   0.0000       4.119106       112.0866 
 581   0.0000       4.119765       112.1045 
 582   0.0000       4.130294       112.3910 
 583   0.0000       4.135301       112.5273 
 584   0.0000       4.137716       112.5930 
 585   0.0000       4.154401       113.0470 
 586   0.0000       4.160386       113.2099 
 587   0.0000       4.161366       113.2365 
 588   0.0000       4.171277       113.5062 
 589   0.0000       4.177433       113.6737 
 590   0.0000       4.182427       113.8096 
 591   0.0000       4.185071       113.8816 
 592   0.0000       4.196327       114.1879 
 593   0.0000       4.204073       114.3986 
 594   0.0000       4.205787       114.4453 
 595   0.0000       4.221560       114.8745 
 596   0.0000       4.227622       115.0395 
 597   0.0000       4.229972       115.1034 
 598   0.0000       4.235427       115.2518 
 599   0.0000       4.255060       115.7861 
 600   0.0000       4.262831       115.9975 
 601   0.0000       4.268171       116.1428 
 602   0.0000       4.272945       116.2728 
 603   0.0000       4.282710       116.5385 
 604   0.0000       4.291061       116.7657 
 605   0.0000       4.297989       116.9542 
 606   0.0000       4.301702       117.0553 
 607   0.0000       4.312901       117.3600 
 608   0.0000       4.319613       117.5427 
 609   0.0000       4.325281       117.6969 
 610   0.0000       4.338167       118.0475 
 611   0.0000       4.346203       118.2662 
 612   0.0000       4.349364       118.3522 
 613   0.0000       4.355581       118.5214 
 614   0.0000       4.367316       118.8407 
 615   0.0000       4.384217       119.3006 
 616   0.0000       4.386205       119.3547 
 617   0.0000       4.391813       119.5073 
 618   0.0000       4.405633       119.8834 
 619   0.0000       4.414206       120.1167 
 620   0.0000       4.425450       120.4226 
 621   0.0000       4.428390       120.5026 
 622   0.0000       4.435717       120.7020 
 623   0.0000       4.444719       120.9470 
 624   0.0000       4.453681       121.1908 
 625   0.0000       4.467711       121.5726 
 626   0.0000       4.473006       121.7167 
 627   0.0000       4.485701       122.0621 
 628   0.0000       4.497185       122.3746 
 629   0.0000       4.502625       122.5227 
 630   0.0000       4.506533       122.6290 
 631   0.0000       4.513727       122.8248 
 632   0.0000       4.524125       123.1077 
 633   0.0000       4.533879       123.3731 
 634   0.0000       4.538520       123.4994 
 635   0.0000       4.545924       123.7009 
 636   0.0000       4.550365       123.8217 
 637   0.0000       4.557222       124.0083 
 638   0.0000       4.567227       124.2806 
 639   0.0000       4.573073       124.4396 
 640   0.0000       4.588944       124.8715 
 641   0.0000       4.598438       125.1299 
 642   0.0000       4.608062       125.3917 
 643   0.0000       4.619032       125.6903 
 644   0.0000       4.625119       125.8559 
 645   0.0000       4.630674       126.0070 
 646   0.0000       4.637240       126.1857 
 647   0.0000       4.642836       126.3380 
 648   0.0000       4.651961       126.5863 
 649   0.0000       4.654077       126.6439 
 650   0.0000       4.668339       127.0320 
 651   0.0000       4.671145       127.1083 
 652   0.0000       4.679997       127.3492 
 653   0.0000       4.690311       127.6299 
 654   0.0000       4.696426       127.7962 
 655   0.0000       4.700524       127.9078 
 656   0.0000       4.724572       128.5621 
 657   0.0000       4.728597       128.6717 
 658   0.0000       4.741452       129.0215 
 659   0.0000       4.757754       129.4651 
 660   0.0000       4.760196       129.5315 
 661   0.0000       4.782771       130.1458 
 662   0.0000       4.793843       130.4471 
 663   0.0000       4.803561       130.7115 
 664   0.0000       4.826235       131.3285 
 665   0.0000       4.850825       131.9977 
 666   0.0000       4.860352       132.2569 
 667   0.0000       4.866650       132.4283 
 668   0.0000       4.867939       132.4634 
 669   0.0000       4.899034       133.3095 
 670   0.0000       4.914423       133.7282 
 671   0.0000       4.924756       134.0094 
 672   0.0000       4.939455       134.4094 
 673   0.0000       4.951425       134.7351 
 674   0.0000       4.965826       135.1270 
 675   0.0000       4.973885       135.3463 
 676   0.0000       5.010978       136.3557 
 677   0.0000       5.019181       136.5788 
 678   0.0000       5.026921       136.7895 
 679   0.0000       5.038396       137.1017 
 680   0.0000       5.045049       137.2828 
 681   0.0000       5.057701       137.6270 
 682   0.0000       5.086729       138.4169 
 683   0.0000       5.091873       138.5569 
 684   0.0000       5.109664       139.0410 
 685   0.0000       5.122210       139.3824 
 686   0.0000       5.134620       139.7201 
 687   0.0000       5.144125       139.9788 
 688   0.0000       5.150860       140.1620 
 689   0.0000       5.163816       140.5146 
 690   0.0000       5.181135       140.9859 
 691   0.0000       5.191724       141.2740 
 692   0.0000       5.197405       141.4286 
 693   0.0000       5.208629       141.7340 
 694   0.0000       5.214531       141.8946 
 695   0.0000       5.221502       142.0843 
 696   0.0000       5.229411       142.2995 
 697   0.0000       5.236353       142.4884 
 698   0.0000       5.237397       142.5168 
 699   0.0000       5.250240       142.8663 
 700   0.0000       5.266885       143.3192 
 701   0.0000       5.274377       143.5231 
 702   0.0000       5.293396       144.0406 
 703   0.0000       5.319253       144.7442 
 704   0.0000       5.328129       144.9858 
 705   0.0000       5.338727       145.2742 
 706   0.0000       5.343000       145.3904 
 707   0.0000       5.354761       145.7104 
 708   0.0000       5.371997       146.1795 
 709   0.0000       5.378129       146.3463 
 710   0.0000       5.386286       146.5683 
 711   0.0000       5.406671       147.1230 
 712   0.0000       5.440217       148.0358 
 713   0.0000       5.452943       148.3821 
 714   0.0000       5.470335       148.8554 
 715   0.0000       5.474238       148.9616 
 716   0.0000       5.494619       149.5162 
 717   0.0000       5.510023       149.9354 
 718   0.0000       5.523020       150.2890 
 719   0.0000       5.529660       150.4697 
 720   0.0000       5.537824       150.6919 
 721   0.0000       5.549292       151.0039 
 722   0.0000       5.553208       151.1105 
 723   0.0000       5.563105       151.3798 
 724   0.0000       5.584566       151.9638 
 725   0.0000       5.601735       152.4310 
 726   0.0000       5.631465       153.2400 
 727   0.0000       5.632369       153.2645 
 728   0.0000       5.641351       153.5090 
 729   0.0000       5.652032       153.7996 
 730   0.0000       5.656447       153.9197 
 731   0.0000       5.667147       154.2109 
 732   0.0000       5.673252       154.3770 
 733   0.0000       5.693809       154.9364 
 734   0.0000       5.704769       155.2347 
 735   0.0000       5.710700       155.3961 
 736   0.0000       5.726564       155.8277 
 737   0.0000       5.735448       156.0695 
 738   0.0000       5.743982       156.3017 
 739   0.0000       5.750302       156.4737 
 740   0.0000       5.758441       156.6951 
 741   0.0000       5.781558       157.3242 
 742   0.0000       5.803930       157.9330 
 743   0.0000       5.814637       158.2243 
 744   0.0000       5.817619       158.3054 
 745   0.0000       5.844180       159.0282 
 746   0.0000       5.852192       159.2462 
 747   0.0000       5.860800       159.4805 
 748   0.0000       5.867936       159.6747 
 749   0.0000       5.926062       161.2563 
 750   0.0000       5.941254       161.6697 
 751   0.0000       5.969820       162.4471 
 752   0.0000       5.975561       162.6033 
 753   0.0000       5.997463       163.1993 
 754   0.0000       6.011604       163.5841 
 755   0.0000       6.041602       164.4003 
 756   0.0000       6.048801       164.5963 
 757   0.0000       6.054663       164.7558 
 758   0.0000       6.077940       165.3891 
 759   0.0000       6.093280       165.8066 
 760   0.0000       6.095963       165.8796 
 761   0.0000       6.172717       167.9682 
 762   0.0000       6.212892       169.0614 
 763   0.0000       6.228972       169.4990 
 764   0.0000       6.243553       169.8957 
 765   0.0000       6.308755       171.6699 
 766   0.0000       6.333799       172.3514 
 767   0.0000       6.344820       172.6513 
 768   0.0000       6.349857       172.7884 
 769   0.0000       6.363791       173.1675 
 770   0.0000       6.386767       173.7928 
 771   0.0000       6.400757       174.1735 
 772   0.0000       6.417213       174.6212 
 773   0.0000       6.438657       175.2048 
 774   0.0000       6.455108       175.6524 
 775   0.0000       6.466346       175.9582 
 776   0.0000       6.500585       176.8899 
 777   0.0000       6.557600       178.4414 
 778   0.0000       6.597670       179.5317 
 779   0.0000       6.630647       180.4291 
 780   0.0000       6.649316       180.9371 
 781   0.0000       6.682557       181.8416 
 782   0.0000       6.720226       182.8667 
 783   0.0000       6.760512       183.9629 
 784   0.0000       6.867033       186.8615 
 785   0.0000       6.905726       187.9144 
 786   0.0000       6.914309       188.1479 
 787   0.0000       6.924841       188.4345 
 788   0.0000       6.959042       189.3652 
 789   0.0000       7.019022       190.9973 
 790   0.0000       7.054969       191.9755 
 791   0.0000       7.061784       192.1609 
 792   0.0000       7.084319       192.7741 
 793   0.0000       7.124392       193.8646 
 794   0.0000       7.219273       196.4464 
 795   0.0000       7.244307       197.1276 
 796   0.0000       7.261782       197.6031 
 797   0.0000       7.283667       198.1987 
 798   0.0000       7.346194       199.9001 
 799   0.0000       7.391579       201.1351 
 800   0.0000       7.398606       201.3263 
 801   0.0000       7.562846       205.7955 
 802   0.0000       7.589662       206.5252 
 803   0.0000       7.606396       206.9805 
 804   0.0000       7.734148       210.4569 
 805   0.0000       7.766277       211.3311 
 806   0.0000       7.822504       212.8612 
 807   0.0000       7.895813       214.8560 
 808   0.0000       7.935828       215.9449 
 809   0.0000       9.496093       258.4018 
 810   0.0000       9.696439       263.8535 
 811   0.0000      10.816501       294.3320 
 812   0.0000      11.253365       306.2196 
 813   0.0000      11.951369       325.2133 
 814   0.0000      12.590638       342.6087 
 815   0.0000      12.946296       352.2866 
 816   0.0000      12.967951       352.8759 
 817   0.0000      13.088654       356.1604 
 818   0.0000      13.260306       360.8313 
 819   0.0000      13.430386       365.4594 
 820   0.0000      13.469761       366.5308 
 821   0.0000      13.951135       379.6297 
 822   0.0000      13.997234       380.8841 
 823   0.0000      14.024887       381.6366 
 824   0.0000      14.141046       384.7974 
 825   0.0000      14.484249       394.1364 
 826   0.0000      14.631650       398.1474 
 827   0.0000      15.984857       434.9701 

                    ********************************
                    * MULLIKEN POPULATION ANALYSIS *
                    ********************************

-----------------------
MULLIKEN ATOMIC CHARGES
-----------------------
   0 C :   -0.331952
   1 C :    0.045376
   2 O :   -0.379817
   3 C :    0.502166
   4 O :   -0.395365
   5 C :   -0.249425
   6 C :    0.167281
   7 C :   -0.321250
   8 N :   -0.125271
   9 C :    0.188146
  10 S :   -0.435356
  11 N :   -0.204379
  12 C :    0.052837
  13 C :    0.035592
  14 C :   -0.190507
  15 C :   -0.137085
  16 C :   -0.274170
  17 C :    0.313214
  18 O :   -0.358591
  19 C :   -0.267599
  20 H :    0.123957
  21 H :    0.113918
  22 H :    0.108940
  23 H :    0.119417
  24 H :    0.084258
  25 H :    0.144415
  26 H :    0.118030
  27 H :    0.121348
  28 H :    0.197960
  29 H :    0.195609
  30 H :    0.160620
  31 H :    0.169075
  32 H :    0.163252
  33 H :    0.131170
  34 H :    0.240573
  35 H :    0.173615
Sum of atomic charges:    0.0000000

--------------------------------
MULLIKEN REDUCED ORBITAL CHARGES
--------------------------------
  0 C s       :     3.271058  s :     3.271058
      pz      :     0.923125  p :     2.984205
      px      :     1.047536
      py      :     1.013543
      dz2     :     0.022011  d :     0.072340
      dxz     :     0.003686
      dyz     :     0.021663
      dx2y2   :     0.009929
      dxy     :     0.015051
      f0      :     0.000819  f :     0.004349
      f+1     :     0.000286
      f-1     :     0.001618
      f+2     :     0.000342
      f-2     :     0.000228
      f+3     :     0.000510
      f-3     :     0.000546
  1 C s       :     3.163484  s :     3.163484
      pz      :     0.974332  p :     2.623572
      px      :     0.673308
      py      :     0.975932
      dz2     :     0.028780  d :     0.156058
      dxz     :     0.030869
      dyz     :     0.023625
      dx2y2   :     0.029601
      dxy     :     0.043184
      f0      :     0.001418  f :     0.011511
      f+1     :     0.001486
      f-1     :     0.001522
      f+2     :     0.001458
      f-2     :     0.000972
      f+3     :     0.002545
      f-3     :     0.002109
  2 O s       :     3.729730  s :     3.729730
      pz      :     1.566278  p :     4.617128
      px      :     1.216547
      py      :     1.834303
      dz2     :     0.005274  d :     0.030674
      dxz     :     0.013754
      dyz     :     0.002898
      dx2y2   :     0.004282
      dxy     :     0.004466
      f0      :     0.000106  f :     0.002285
      f+1     :     0.000464
      f-1     :     0.000050
      f+2     :     0.000540
      f-2     :     0.000202
[...]
 15 C s       :     2.705617  s :     2.705617
      pz      :     0.897091  p :     2.794713
      px      :     0.928924
      py      :     0.968698
      dz2     :     0.092794  d :     0.416299
      dxz     :     0.069311
      dyz     :     0.058228
      dx2y2   :     0.112217
      dxy     :     0.083750
      f0      :     0.003091  f :     0.041070
      f+1     :     0.005201
      f-1     :     0.006159
      f+2     :     0.007130
      f-2     :     0.006360
      f+3     :     0.006800
      f-3     :     0.006329
 16 C s       :     2.701650  s :     2.701650
      pz      :     0.936749  p :     2.868592
      px      :     0.958180
      py      :     0.973664
      dz2     :     0.044227  d :     0.391302
      dxz     :     0.055478
      dyz     :     0.089529
      dx2y2   :     0.094267
      dxy     :     0.107801
      f0      :     0.004410  f :     0.040391
      f+1     :     0.004471
      f-1     :     0.003885
      f+2     :     0.006276
      f-2     :     0.005206
      f+3     :     0.009007
      f-3     :     0.007135
 17 C s       :     2.701338  s :     2.701338
      pz      :     0.844532  p :     2.683880
      px      :     0.821517
      py      :     1.017831
      dz2     :     0.126141  d :     0.709193
      dxz     :     0.105821
      dyz     :     0.142597
      dx2y2   :     0.164485
      dxy     :     0.170149
      f0      :     0.009467  f :     0.099362
      f+1     :     0.015528
      f-1     :     0.009703
      f+2     :     0.016253
      f-2     :     0.014528
      f+3     :     0.017416
      f-3     :     0.016467
 18 O s       :     3.177161  s :     3.177161
      pz      :     1.434222  p :     4.347670
      px      :     1.414253
      py      :     1.499195
      dz2     :     0.008274  d :     0.075590
      dxz     :     0.017228
      dyz     :     0.018232
      dx2y2   :     0.015058
      dxy     :     0.016799
      f0      :     0.000599  f :     0.005074
      f+1     :     0.000726
      f-1     :     0.000386
      f+2     :     0.000725
      f-2     :     0.001008
      f+3     :     0.000749
      f-3     :     0.000881
 19 C s       :     2.695791  s :     2.695791
      pz      :     0.933178  p :     2.848027
      px      :     0.948869
      py      :     0.965979
      dz2     :     0.075626  d :     0.388653
      dxz     :     0.067294
      dyz     :     0.060275
      dx2y2   :     0.097952
      dxy     :     0.087506
      f0      :     0.003170  f :     0.040755
      f+1     :     0.005315
      f-1     :     0.005654
      f+2     :     0.007125
      f-2     :     0.006898
      f+3     :     0.006768
      f-3     :     0.005826
 20 H s       :     0.839895  s :     0.839895
      pz      :     0.038556  p :     0.152970
      px      :     0.053982
      py      :     0.060433
      dz2     :     0.002598  d :     0.027590
      dxz     :     0.003182
      dyz     :     0.005777
      dx2y2   :     0.009372
      dxy     :     0.006662
 21 H s       :     0.843031  s :     0.843031
      pz      :     0.039587  p :     0.152297
      px      :     0.067617
      py      :     0.045093
      dz2     :     0.002562  d :     0.027567
      dxz     :     0.007475
      dyz     :     0.001577
      dx2y2   :     0.007362
      dxy     :     0.008592
 22 H s       :     0.843358  s :     0.843358
      pz      :     0.062314  p :     0.160640
      px      :     0.042717
      py      :     0.055609
      dz2     :     0.008116  d :     0.028028
      dxz     :     0.004587
      dyz     :     0.006877
      dx2y2   :     0.003705
      dxy     :     0.004744
 23 H s       :     0.851584  s :     0.851584
      pz      :     0.058434  p :     0.144226
      px      :     0.029548
      py      :     0.056244
      dz2     :     0.007410  d :     0.026892
      dxz     :     0.004465
      dyz     :     0.006557
      dx2y2   :     0.004652
      dxy     :     0.003808
 24 H s       :     0.862594  s :     0.862594
      pz      :     0.041473  p :     0.148347
      px      :     0.040885
      py      :     0.065989
      dz2     :     0.002710  d :     0.027235
      dxz     :     0.002663
      dyz     :     0.007322
      dx2y2   :     0.006894
      dxy     :     0.007647
 25 H s       :     0.825748  s :     0.825748
      pz      :     0.060390  p :     0.152862
      px      :     0.043472
      py      :     0.049001
      dz2     :     0.008561  d :     0.027858
      dxz     :     0.006466
      dyz     :     0.006398
      dx2y2   :     0.004128
      dxy     :     0.002304
 26 H s       :     0.838035  s :     0.838035
      pz      :     0.037182  p :     0.150384
      px      :     0.040435
      py      :     0.072767
      dz2     :     0.002467  d :     0.027765
      dxz     :     0.000247
      dyz     :     0.009200
      dx2y2   :     0.007045
      dxy     :     0.008806
 27 H s       :     0.834712  s :     0.834712
      pz      :     0.038542  p :     0.154547
      px      :     0.073085
      py      :     0.042919
      dz2     :     0.002341  d :     0.027836
      dxz     :     0.008857
      dyz     :     0.000171
      dx2y2   :     0.007718
      dxy     :     0.008749
 28 H s       :     0.742635  s :     0.742635
      pz      :     0.056697  p :     0.253483
      px      :     0.086770
      py      :     0.110016
      dz2     :     0.006426  d :     0.061840
      dxz     :     0.003554
      dyz     :     0.015410
      dx2y2   :     0.018145
      dxy     :     0.018304
 29 H s       :     0.748246  s :     0.748246
      pz      :     0.114503  p :     0.253862
      px      :     0.095670
      py      :     0.043689
      dz2     :     0.021691  d :     0.061305
      dxz     :     0.016155
      dyz     :     0.010640
      dx2y2   :     0.007571
      dxy     :     0.005249
 30 H s       :     0.825439  s :     0.825439
      pz      :     0.038775  p :     0.149085
      px      :     0.069024
      py      :     0.041286
      dz2     :     0.002881  d :     0.028430
      dxz     :     0.007615
      dyz     :     0.002470
      dx2y2   :     0.007820
      dxy     :     0.007645
 31 H s       :     0.839103  s :     0.839103
      pz      :     0.055316  p :     0.157068
      px      :     0.064423
      py      :     0.037329
      dz2     :     0.005377  d :     0.027508
      dxz     :     0.006742
      dyz     :     0.003691
      dx2y2   :     0.005763
      dxy     :     0.005935
 32 H s       :     0.842382  s :     0.842382
      pz      :     0.036826  p :     0.151050
      px      :     0.038548
      py      :     0.075676
      dz2     :     0.002618  d :     0.026446
      dxz     :     0.000603
      dyz     :     0.007370
      dx2y2   :     0.007848
      dxy     :     0.008007
 33 H s       :     0.848795  s :     0.848795
      pz      :     0.057436  p :     0.158967
      px      :     0.050117
      py      :     0.051413
      dz2     :     0.005987  d :     0.027751
      dxz     :     0.004848
      dyz     :     0.005870
      dx2y2   :     0.005776
      dxy     :     0.005270
 34 H s       :     0.706583  s :     0.706583
      pz      :     0.112931  p :     0.347815
      px      :     0.087589
      py      :     0.147294
      dz2     :     0.023033  d :     0.099557
      dxz     :     0.011723
      dyz     :     0.024037
      dx2y2   :     0.020629
      dxy     :     0.020134
 35 H s       :     0.838530  s :     0.838530
      pz      :     0.041130  p :     0.158797
      px      :     0.040817
      py      :     0.076850
      dz2     :     0.002582  d :     0.028090
      dxz     :     0.000749
      dyz     :     0.008126
      dx2y2   :     0.008052
      dxy     :     0.008581


                      *****************************
                      * MAYER POPULATION ANALYSIS *
                      *****************************

  NA   - Mulliken gross atomic population
  ZA   - Total nuclear charge
  QA   - Mulliken gross atomic charge
  VA   - Mayer's total valence
  BVA  - Mayer's bonded valence
  FA   - Mayer's free valence

  ATOM       NA         ZA         QA         VA         BVA        FA
  0 C      6.3320     6.0000    -0.3320     3.8624     3.8624     0.0000
  1 C      5.9546     6.0000     0.0454     3.8733     3.8733     0.0000
  2 O      8.3798     8.0000    -0.3798     1.9921     1.9921     0.0000
  3 C      5.4978     6.0000     0.5022     4.2107     4.2107    -0.0000
  4 O      8.3954     8.0000    -0.3954     2.1140     2.1140    -0.0000
  5 C      6.2494     6.0000    -0.2494     3.5891     3.5891    -0.0000
  6 C      5.8327     6.0000     0.1673     3.8062     3.8062     0.0000
  7 C      6.3213     6.0000    -0.3213     3.8846     3.8846     0.0000
  8 N      7.1253     7.0000    -0.1253     3.2780     3.2780     0.0000
  9 C      5.8119     6.0000     0.1881     4.1573     4.1573     0.0000
 10 S     16.4354    16.0000    -0.4354     1.7586     1.7586     0.0000
 11 N      7.2044     7.0000    -0.2044     3.2545     3.2545     0.0000
 12 C      5.9472     6.0000     0.0528     3.9566     3.9566    -0.0000
 13 C      5.9644     6.0000     0.0356     3.7335     3.7335     0.0000
 14 C      6.1905     6.0000    -0.1905     3.8583     3.8583     0.0000
 15 C      6.1371     6.0000    -0.1371     3.8124     3.8124    -0.0000
 16 C      6.2742     6.0000    -0.2742     3.7852     3.7852     0.0000
 17 C      5.6868     6.0000     0.3132     3.8758     3.8758     0.0000
 18 O      8.3586     8.0000    -0.3586     2.1168     2.1168    -0.0000
 19 C      6.2676     6.0000    -0.2676     3.8112     3.8112    -0.0000
 20 H      0.8760     1.0000     0.1240     0.9851     0.9851     0.0000
 21 H      0.8861     1.0000     0.1139     0.9822     0.9822     0.0000
 22 H      0.8911     1.0000     0.1089     0.9787     0.9787     0.0000
 23 H      0.8806     1.0000     0.1194     0.9738     0.9738     0.0000
 24 H      0.9157     1.0000     0.0843     0.9598     0.9598    -0.0000
 25 H      0.8556     1.0000     0.1444     0.9819     0.9819     0.0000
 26 H      0.8820     1.0000     0.1180     0.9864     0.9864    -0.0000
 27 H      0.8787     1.0000     0.1213     0.9708     0.9708    -0.0000
 28 H      0.8020     1.0000     0.1980     1.0219     1.0219     0.0000
 29 H      0.8044     1.0000     0.1956     1.0168     1.0168     0.0000
 30 H      0.8394     1.0000     0.1606     0.9951     0.9951    -0.0000
 31 H      0.8309     1.0000     0.1691     0.9870     0.9870    -0.0000
 32 H      0.8367     1.0000     0.1633     0.9764     0.9764     0.0000
 33 H      0.8688     1.0000     0.1312     0.9908     0.9908     0.0000
 34 H      0.7594     1.0000     0.2406     1.0110     1.0110    -0.0000
 35 H      0.8264     1.0000     0.1736     0.9861     0.9861    -0.0000

  Mayer bond orders larger than 0.100000
B(  0-C ,  1-C ) :   0.9641 B(  0-C , 20-H ) :   0.9671 B(  0-C , 21-H ) :   0.9756 
B(  0-C , 22-H ) :   0.9694 B(  1-C ,  2-O ) :   0.8973 B(  1-C , 23-H ) :   0.9824 
B(  1-C , 24-H ) :   0.9763 B(  2-O ,  3-C ) :   1.1078 B(  3-C ,  4-O ) :   2.0464 
B(  3-C ,  5-C ) :   0.9964 B(  5-C ,  6-C ) :   1.6542 B(  5-C , 12-C ) :   0.9588 
B(  6-C ,  7-C ) :   0.9457 B(  6-C ,  8-N ) :   1.1360 B(  7-C , 25-H ) :   0.9656 
B(  7-C , 26-H ) :   0.9862 B(  7-C , 27-H ) :   0.9675 B(  8-N ,  9-C ) :   1.1815 
B(  8-N , 28-H ) :   0.9499 B(  9-C , 10-S ) :   1.6156 B(  9-C , 11-N ) :   1.2991 
B( 11-N , 12-C ) :   0.9867 B( 11-N , 29-H ) :   0.9516 B( 12-C , 13-C ) :   0.9494 
B( 12-C , 30-H ) :   0.9985 B( 13-C , 14-C ) :   1.3823 B( 13-C , 19-C ) :   1.3486 
B( 14-C , 15-C ) :   1.3963 B( 14-C , 31-H ) :   0.9592 B( 15-C , 16-C ) :   1.3618 
B( 15-C , 32-H ) :   0.9702 B( 16-C , 17-C ) :   1.3310 B( 16-C , 33-H ) :   0.9847 
B( 17-C , 18-O ) :   1.1116 B( 17-C , 19-C ) :   1.3703 B( 18-O , 34-H ) :   0.9801 
B( 19-C , 35-H ) :   0.9594 

-------
TIMINGS
-------

Total SCF time: 0 days 2 hours 13 min 7 sec 

Total time                  ....    7987.238 sec
Sum of individual times     ....    7978.667 sec  ( 99.9%)

Fock matrix formation       ....    7954.087 sec  ( 99.6%)
Diagonalization             ....       1.556 sec  (  0.0%)
Density matrix formation    ....       0.251 sec  (  0.0%)
Population analysis         ....       0.333 sec  (  0.0%)
Initial guess               ....       6.542 sec  (  0.1%)
Orbital Transformation      ....       0.000 sec  (  0.0%)
Orbital Orthonormalization  ....       0.000 sec  (  0.0%)
DIIS solution               ....       9.851 sec  (  0.1%)
SOSCF solution              ....       4.551 sec  (  0.1%)

Maximum memory used throughout the entire SCF-calculation: 759.2 MB

------------------------------------------------------------------------------
                                ORCA  MP2 
------------------------------------------------------------------------------

Freezing NCore=48 chemical core electrons

-------------
RI-MP2 ENERGY
-------------
Dimension of the basis                    ...  828
Memory devoted to MP2                     ...  256 MB   
Data format for buffers                   ... DOUBLE
Compression type for matrix containers    ... UNCOMPRESSED
Overall scaling of the MP2 energy         ...   1.000e+00
Calculating two index integrals           ... done (    0.045 sec)
Cholesky decomposition of V**-1           ... done (    0.590 sec)

-----------------
RI-TRANSFORMATION (AUX index driven)
-----------------

Dimension of the orbital-basis         ... 828
Dimension of the aux-basis             ... 2141
Transformation of internal/external MOs...   24-  76 to   77- 827
Number Format for Storage              ... Double (8 Byte)
Integral mode                          ... Direct

First Phase: integral generation and transformation of MO indices
  Aux angular momentum 0               ... done (    6.173 sec)
  Aux angular momentum 1               ... done (   10.634 sec)
  Aux angular momentum 2               ... done (   13.710 sec)
  Aux angular momentum 3               ... done (   10.577 sec)
  Aux angular momentum 4               ... done (    3.688 sec)
Closing buffer VIA ( 0.63 GB; CompressionRatio= 1.00)
  Phase 1 completed in    45.330 sec
Second Phase: sorting and transformation of aux index

IA-Transformation
Memory available                       ... 156 MB 
Max. # MO pairs treated in a batch     ... 11    
# of internal orbitals                 ... 53
# batches for internal orbitals        ... 5
Closing buffer IAV ( 0.63 GB; CompressionRatio= 1.00)
(ia|v) transformation done in    49.728 sec

  Phase 2 completed in    49.748 sec
RI-Integral transformation completed in    95.085 sec
Opening buffers                              ... done

Starting loop over batches of integrals:

Operator 0  - window                       ... ( 24- 76)x( 77-827)
Operator 0  - Memory available             ...   256 MB
Operator 0  - Memory needed per MO         ...  12.3 MB
Operator 0  - Number of orbitals per batch ... 13
Operator 0  - Number of batches            ... 5

OPERATOR  0   PASS   0:  MOs    24 ...   36
  Reading integrals       ... ok
  Internal MO  26
  Internal MO  29
  Internal MO  32
  Internal MO  35
OPERATOR  0   PASS   1:  MOs    37 ...   49
  Reading integrals       ... ok
  Internal MO  38
  Internal MO  41
  Internal MO  44
  Internal MO  47
OPERATOR  0   PASS   2:  MOs    50 ...   62
  Reading integrals       ... ok
  Internal MO  50
  Internal MO  53
  Internal MO  56
  Internal MO  59
  Internal MO  62
OPERATOR  0   PASS   3:  MOs    63 ...   75
  Reading integrals       ... ok
  Internal MO  65
  Internal MO  68
  Internal MO  71
  Internal MO  74
OPERATOR  0   PASS   4:  MOs    76 ...   76
  Reading integrals       ... ok
Time spent in pair loops =   140.649 sec
Deleting buffer (Ka|jb)[aa] ...done

-----------------------------------------------
 RI-MP2 CORRELATION ENERGY:     -3.537600258 Eh
-----------------------------------------------


-------
TIMINGS
-------

Total time                :  236.528 sec
Integral trafo            :   95.108 sec ( 40.2%)
I/O of integrals          :    5.882 sec (  2.5%)
K(i,j) Operators          :   65.368 sec ( 27.6%)
T(i,j) pair energies      :   10.071 sec (  4.3%)
V-calculation             :    0.045 sec (  0.0%)
V**(-1/2)                 :    0.590 sec (  0.2%)
Gamma(ia|P)               :    0.000 sec (  0.0%)
Gamma-Trafo               :    0.000 sec (  0.0%)
D(virtual)                :    0.000 sec (  0.0%)
D(internal)               :    0.000 sec (  0.0%)
W(virtual)                :    0.000 sec (  0.0%)
W(internal)               :    0.000 sec (  0.0%)
L(virtual)                :    0.000 sec (  0.0%)
L(internal)               :    0.000 sec (  0.0%)
G(D)                      :    0.000 sec (  0.0%)
G(Z)                      :    0.000 sec (  0.0%)
Z-Vector Solution         :    0.000 sec (  0.0%)
3-Index Derivative        :    0.000 sec (  0.0%)
2-Index Derivative        :    0.000 sec (  0.0%)
Separable Gradient        :    0.000 sec (  0.0%)


---------------------------------------
MP2 TOTAL ENERGY:    -1274.329403246 Eh
---------------------------------------

Maximum memory used throughout the entire MP2-calculation: 305.8 MB

-------------------------   --------------------
FINAL SINGLE POINT ENERGY     -1274.329403246243
-------------------------   --------------------


                            ***************************************
                            *     ORCA property calculations      *
                            ***************************************


  WARNING: The energy has been calculated at the MP2 level but the densities
           used in the property calculations are still SCF densities
           MP2 response densities have not been calculated 
           use %mp2 Density relaxed end
           or  %mp2 Density unrelaxed end

                                    ---------------------
                                    Active property flags
                                    ---------------------
   (+) Dipole Moment


------------------------------------------------------------------------------
                       ORCA ELECTRIC PROPERTIES CALCULATION
------------------------------------------------------------------------------

Dipole Moment Calculation                       ... on
Quadrupole Moment Calculation                   ... off
Polarizability Calculation                      ... off
GBWName                                         ... CONFS/Conf444.orca.gbw
Electron density file                           ... CONFS/Conf444.orca.scfp
The origin for moment calculation is the CENTER OF MASS  = (32.804018, 31.401609 35.233831)

-------------
DIPOLE MOMENT
-------------
                                X             Y             Z
Electronic contribution:      9.70934       8.02722       6.30107
Nuclear contribution   :    -11.26245      -9.05950      -6.87626
                        -----------------------------------------
Total Dipole Moment    :     -1.55311      -1.03227      -0.57520
                        -----------------------------------------
Magnitude (a.u.)       :      1.95156
Magnitude (Debye)      :      4.96047



--------------------
Rotational spectrum 
--------------------
 
Rotational constants in cm-1:     0.011369     0.009877     0.006675 
Rotational constants in MHz :   340.846128   296.114937   200.121079 

 Dipole components along the rotational axes: 
x,y,z [a.u.] :    -1.354747    -0.795830     1.157538 
x,y,z [Debye]:    -3.443492    -2.022840     2.942228 

 

Timings for individual modules:

Sum of individual times         ...     8229.740 sec (= 137.162 min)
GTO integral calculation        ...        4.111 sec (=   0.069 min)   0.0 %
SCF iterations                  ...     7987.430 sec (= 133.124 min)  97.1 %
MP2 module                      ...      238.199 sec (=   3.970 min)   2.9 %
                             ****ORCA TERMINATED NORMALLY****
TOTAL RUN TIME: 0 days 2 hours 17 minutes 13 seconds 17 msec
