
                                        *****************
                                        * O   R   C   A *
                                        *****************

                                            #,                                       
                                            ###                                      
                                            ####                                     
                                            #####                                    
                                            ######                                   
                                           ########,                                 
                                     ,,################,,,,,                         
                               ,,#################################,,                 
                          ,,##########################################,,             
                       ,#########################################, ''#####,          
                    ,#############################################,,   '####,        
                  ,##################################################,,,,####,       
                ,###########''''           ''''###############################       
              ,#####''   ,,,,##########,,,,          '''####'''          '####       
            ,##' ,,,,###########################,,,                        '##       
           ' ,,###''''                  '''############,,,                           
         ,,##''                                '''############,,,,        ,,,,,,###''
      ,#''                                            '''#######################'''  
     '                                                          ''''####''''         
             ,#######,   #######,   ,#######,      ##                                
            ,#'     '#,  ##    ##  ,#'     '#,    #''#        ######   ,####,        
            ##       ##  ##   ,#'  ##            #'  '#       #        #'  '#        
            ##       ##  #######   ##           ,######,      #####,   #    #        
            '#,     ,#'  ##    ##  '#,     ,#' ,#      #,         ##   #,  ,#        
             '#######'   ##     ##  '#######'  #'      '#     #####' # '####'        



                  #######################################################
                  #                        -***-                        #
                  #          Department of theory and spectroscopy      #
                  #    Directorship and core code : Frank Neese         #
                  #        Max Planck Institute fuer Kohlenforschung    #
                  #                Kaiser Wilhelm Platz 1               #
                  #                 D-45470 Muelheim/Ruhr               #
                  #                      Germany                        #
                  #                                                     #
                  #                  All rights reserved                #
                  #                        -***-                        #
                  #######################################################


                         Program Version 5.0.0 -  RELEASE  -
                                (SVN: $Rev: 19529$)
                ($Date: 2021-06-28 11:36:33 +0200 (Mo, 28 Jun 2021) $)


 With contributions from (in alphabetic order):
   Daniel Aravena         : Magnetic Suceptibility
   Michael Atanasov       : Ab Initio Ligand Field Theory (pilot matlab implementation)
   Alexander A. Auer      : GIAO ZORA, VPT2 properties, NMR spectrum
   Ute Becker             : Parallelization
   Giovanni Bistoni       : ED, misc. LED, open-shell LED, HFLD
   Martin Brehm           : Molecular dynamics
   Dmytro Bykov           : SCF Hessian
   Vijay G. Chilkuri      : MRCI spin determinant printing, contributions to CSF-ICE
   Dipayan Datta          : RHF DLPNO-CCSD density
   Achintya Kumar Dutta   : EOM-CC, STEOM-CC
   Dmitry Ganyushin       : Spin-Orbit,Spin-Spin,Magnetic field MRCI
   Miquel Garcia          : C-PCM Hessian, Gaussian charge scheme
   Yang Guo               : DLPNO-NEVPT2, F12-NEVPT2, CIM, IAO-localization
   Andreas Hansen         : Spin unrestricted coupled pair/coupled cluster methods
   Benjamin Helmich-Paris : MC-RPA, TRAH-SCF, COSX integrals
   Lee Huntington         : MR-EOM, pCC
   Robert Izsak           : Overlap fitted RIJCOSX, COSX-SCS-MP3, EOM
   Marcus Kettner         : VPT2
   Christian Kollmar      : KDIIS, OOCD, Brueckner-CCSD(T), CCSD density, CASPT2, CASPT2-K
   Simone Kossmann        : Meta GGA functionals, TD-DFT gradient, OOMP2, MP2 Hessian
   Martin Krupicka        : Initial AUTO-CI
   Lucas Lang             : DCDCAS
   Marvin Lechner         : AUTO-CI (C++ implementation), FIC-MRCC
   Dagmar Lenk            : GEPOL surface, SMD
   Dimitrios Liakos       : Extrapolation schemes; Compound Job, initial MDCI parallelization
   Dimitrios Manganas     : Further ROCIS development; embedding schemes
   Dimitrios Pantazis     : SARC Basis sets
   Anastasios Papadopoulos: AUTO-CI, single reference methods and gradients
   Taras Petrenko         : DFT Hessian,TD-DFT gradient, ASA, ECA, R-Raman, ABS, FL, XAS/XES, NRVS
   Peter Pinski           : DLPNO-MP2, DLPNO-MP2 Gradient
   Christoph Reimann      : Effective Core Potentials
   Marius Retegan         : Local ZFS, SOC
   Christoph Riplinger    : Optimizer, TS searches, QM/MM, DLPNO-CCSD(T), (RO)-DLPNO pert. Triples
   Tobias Risthaus        : Range-separated hybrids, TD-DFT gradient, RPA, STAB
   Michael Roemelt        : Original ROCIS implementation
   Masaaki Saitow         : Open-shell DLPNO-CCSD energy and density
   Barbara Sandhoefer     : DKH picture change effects
   Avijit Sen             : IP-ROCIS
   Kantharuban Sivalingam : CASSCF convergence, NEVPT2, FIC-MRCI
   Bernardo de Souza      : ESD, SOC TD-DFT
   Georgi Stoychev        : AutoAux, RI-MP2 NMR
   Willem Van den Heuvel  : Paramagnetic NMR
   Boris Wezisla          : Elementary symmetry handling
   Frank Wennmohs         : Technical directorship


 We gratefully acknowledge several colleagues who have allowed us to
 interface, adapt or use parts of their codes:
   Stefan Grimme, W. Hujo, H. Kruse, P. Pracht,  : VdW corrections, initial TS optimization,
                  C. Bannwarth, S. Ehlert          DFT functionals, gCP, sTDA/sTD-DF
   Ed Valeev, F. Pavosevic, A. Kumar             : LibInt (2-el integral package), F12 methods
   Garnet Chan, S. Sharma, J. Yang, R. Olivares  : DMRG
   Ulf Ekstrom                                   : XCFun DFT Library
   Mihaly Kallay                                 : mrcc  (arbitrary order and MRCC methods)
   Jiri Pittner, Ondrej Demel                    : Mk-CCSD
   Frank Weinhold                                : gennbo (NPA and NBO analysis)
   Christopher J. Cramer and Donald G. Truhlar   : smd solvation model
   Lars Goerigk                                  : TD-DFT with DH, B97 family of functionals
   V. Asgeirsson, H. Jonsson                     : NEB implementation
   FAccTs GmbH                                   : IRC, NEB, NEB-TS, DLPNO-Multilevel, CI-OPT
                                                   MM, QMMM, 2- and 3-layer-ONIOM, Crystal-QMMM,
                                                   LR-CPCM, SF, NACMEs, symmetry and pop. for TD-DFT,
                                                   nearIR, NL-DFT gradient (VV10), updates on ESD,
                                                   ML-optimized integration grids
   S Lehtola, MJT Oliveira, MAL Marques          : LibXC Library
   Liviu Ungur et al                             : ANISO software


 Your calculation uses the libint2 library for the computation of 2-el integrals
 For citations please refer to: http://libint.valeyev.net

 Your ORCA version has been built with support for libXC version: 5.1.0
 For citations please refer to: https://tddft.org/programs/libxc/

 This ORCA versions uses:
   CBLAS   interface :  Fast vector & matrix operations
   LAPACKE interface :  Fast linear algebra routines
   SCALAPACK package :  Parallel linear algebra routines
   Shared memory     :  Shared parallel matrices
   BLAS/LAPACK       :  OpenBLAS 0.3.15  USE64BITINT DYNAMIC_ARCH NO_AFFINITY Zen SINGLE_THREADED
        Core in use  :  Zen
   Copyright (c) 2011-2014, The OpenBLAS Project


================================================================================

----- Orbital basis set information -----
Your calculation utilizes the basis: cc-pVTZ 
       H, B-Ne : Obtained from the ccRepo (grant-hill.group.shef.ac.uk/ccrepo) Feb. 2017
                 T. H. Dunning, Jr., J. Chem. Phys. 90, 1007 (1989)
            He : Obtained from the ccRepo (grant-hill.group.shef.ac.uk/ccrepo) Feb. 2017
                 D. E. Woon, T. H. Dunning, Jr., J. Chem. Phys. 100, 2975 (1994)
  Li-Be, Na-Mg : Obtained from the ccRepo (grant-hill.group.shef.ac.uk/ccrepo) Feb. 2017
                 B. P. Prascher, D. E. Woon, K. A. Peterson, T. H. Dunning, Jr., A. K. Wilson, Theor. Chem. Acc. 128, 69 (2011)
         Al-Ar : Obtained from the ccRepo (grant-hill.group.shef.ac.uk/ccrepo) Feb. 2017
                 D. E. Woon, T. H. Dunning, Jr., J. Chem. Phys. 98, 1358 (1993)
            Ca : Obtained from the Peterson Research Group Website (tyr0.chem.wsu.edu/~kipeters) Feb. 2017
                 J. Koput, K. A. Peterson, J. Phys. Chem. 106, 9595 (2002)
         Sc-Zn : Obtained from the ccRepo (grant-hill.group.shef.ac.uk/ccrepo) Feb. 2017
                 N. B. Balabanov, K. A. Peterson, J. Chem. Phys. 123, 064107 (2005)
                 N. B. Balabanov, K. A. Peterson, J. Chem. Phys. 125, 074110 (2006)
         Ga-Kr : Obtained from the ccRepo (grant-hill.group.shef.ac.uk/ccrepo) Feb. 2017
                 A. K. Wilson, D. E. Woon, K. A. Peterson, T. H. Dunning, Jr., J. Chem. Phys. 110, 7667 (1999)
             Y : Obtained from the ccRepo (grant-hill.group.shef.ac.uk/ccrepo) Feb. 2017
                 K. A. Peterson, D. Figgen, M. Dolg, H. Stoll, J. Chem. Phys. 126, 124101 (2007)
        Ag, Au : Obtained from the Peterson Research Group Website (tyr0.chem.wsu.edu/~kipeters) Feb. 2017
                 K. A. Peterson, C. Puzzarini, Theor. Chem. Acc. 114, 283 (2005)

----- AuxC basis set information -----
Your calculation utilizes the auxiliary basis: cc-pVTZ/C 
  Obtained from the EMSL Basis Set Exchange (bse.pnl.gov) Feb. 2017
  H-He, B-F, Al-Ar, Ga-Kr : F. Weigend, A. Kohn, C. Hattig, J. Chem. Phys. 116, 3175 (2002)
             Li-Be, Na-Mg : C. Haettig, Phys. Chem. Chem. Phys. 7, 59 (2005)
                       Ne : C. Haettig, Phys. Chem. Chem. Phys. 7, 59 (2005)
                            F. Weigend, A. Kohn, C. Hattig, J. Chem. Phys. 116, 3175 (2002)
                    Sc-Zn : J. G. Hill, J. A. Platts, J. Chem. Phys. 128, 044104 (2008)

================================================================================
                                        WARNINGS
                       Please study these warnings very carefully!
================================================================================


WARNING: No MP2 level density has been requested!
         To caclulate MP2 level properties use
         %mp2 Density relaxed end
         or
         %mp2 Density unrelaxed end

WARNING: Post HF methods need fully converged wavefunctions
  ===> : Setting SCFConvForced true
         You can overwrite this default with %scf ConvForced false 


INFO   : the flag for use of the SHARK integral package has been found!

================================================================================
                                       INPUT FILE
================================================================================
NAME = CONFS/Conf243.orca
|  1> ! ri-mp2 cc-pvtz cc-pvtz/c TightSCF NoKeepInts
|  2> 
|  3> %scf
|  4>   MaxCore 4096
|  5> end
|  6> *xyz  0  1
|  7>     C       15.4675225   14.0211788   17.3105718
|  8>     C       16.4121344   14.1145127   16.1000020
|  9>     O       17.4919658   15.0247458   16.3960523
| 10>     C       17.3217085   16.3551066   16.1296577
| 11>     O       16.6594650   16.7269826   15.1759677
| 12>     C       17.6723231   17.2375518   17.2973523
| 13>     C       17.3504030   18.5567848   17.3374889
| 14>     C       16.5491157   19.3421140   16.3210101
| 15>     N       17.8187305   19.3588845   18.3831128
| 16>     C       18.7672600   18.9737736   19.2930595
| 17>     S       19.4101078   20.0311032   20.3907171
| 18>     N       19.1703176   17.6639831   19.2339535
| 19>     C       18.5067009   16.6195508   18.4328663
| 20>     C       17.6960290   15.7271790   19.3667183
| 21>     C       18.1874045   14.4604247   19.7352228
| 22>     C       17.4702305   13.6469439   20.6289602
| 23>     C       16.2518809   14.1039346   21.1598973
| 24>     C       15.7634625   15.3678049   20.8011405
| 25>     O       14.5890173   15.8131667   21.3139454
| 26>     C       16.4814066   16.1770551   19.9152773
| 27>     H       15.9884796   13.6017368   18.1775838
| 28>     H       14.6165744   13.3688270   17.0810356
| 29>     H       15.0749673   15.0097595   17.5788105
| 30>     H       16.8276871   13.1174587   15.9060532
| 31>     H       15.8585065   14.4218737   15.2022569
| 32>     H       15.5600334   18.8891023   16.1762780
| 33>     H       17.0550950   19.3411321   15.3471021
| 34>     H       16.3928007   20.3873215   16.6123768
| 35>     H       17.5421640   20.3265350   18.4301636
| 36>     H       19.8502744   17.4009473   19.9354470
| 37>     H       19.2931189   16.0066576   17.9702124
| 38>     H       19.1301974   14.1052783   19.3278741
| 39>     H       17.8588473   12.6688683   20.9074805
| 40>     H       15.6939022   13.4792822   21.8496951
| 41>     H       14.2735051   15.1458909   21.9418423
| 42>     H       16.0936606   17.1585476   19.6668142
| 43> *
| 44> 
| 45>                          ****END OF INPUT****
================================================================================

                       ****************************
                       * Single Point Calculation *
                       ****************************

---------------------------------
CARTESIAN COORDINATES (ANGSTROEM)
---------------------------------
  C     15.467522   14.021179   17.310572
  C     16.412134   14.114513   16.100002
  O     17.491966   15.024746   16.396052
  C     17.321708   16.355107   16.129658
  O     16.659465   16.726983   15.175968
  C     17.672323   17.237552   17.297352
  C     17.350403   18.556785   17.337489
  C     16.549116   19.342114   16.321010
  N     17.818731   19.358884   18.383113
  C     18.767260   18.973774   19.293059
  S     19.410108   20.031103   20.390717
  N     19.170318   17.663983   19.233953
  C     18.506701   16.619551   18.432866
  C     17.696029   15.727179   19.366718
  C     18.187404   14.460425   19.735223
  C     17.470230   13.646944   20.628960
  C     16.251881   14.103935   21.159897
  C     15.763462   15.367805   20.801140
  O     14.589017   15.813167   21.313945
  C     16.481407   16.177055   19.915277
  H     15.988480   13.601737   18.177584
  H     14.616574   13.368827   17.081036
  H     15.074967   15.009759   17.578810
  H     16.827687   13.117459   15.906053
  H     15.858507   14.421874   15.202257
  H     15.560033   18.889102   16.176278
  H     17.055095   19.341132   15.347102
  H     16.392801   20.387321   16.612377
  H     17.542164   20.326535   18.430164
  H     19.850274   17.400947   19.935447
  H     19.293119   16.006658   17.970212
  H     19.130197   14.105278   19.327874
  H     17.858847   12.668868   20.907480
  H     15.693902   13.479282   21.849695
  H     14.273505   15.145891   21.941842
  H     16.093661   17.158548   19.666814

----------------------------
CARTESIAN COORDINATES (A.U.)
----------------------------
  NO LB      ZA    FRAG     MASS         X           Y           Z
   0 C     6.0000    0    12.011   29.229381   26.496188   32.712240
   1 C     6.0000    0    12.011   31.014439   26.672564   30.424595
   2 O     8.0000    0    15.999   33.055025   28.392655   30.984049
   3 C     6.0000    0    12.011   32.733285   30.906672   30.480636
   4 O     8.0000    0    15.999   31.481826   31.609416   28.678423
   5 C     6.0000    0    12.011   33.395851   32.574252   32.687259
   6 C     6.0000    0    12.011   32.787510   35.067241   32.763106
   7 C     6.0000    0    12.011   31.273296   36.551298   30.842239
   8 N     7.0000    0    14.007   33.672521   36.582990   34.739049
   9 C     6.0000    0    12.011   35.464982   35.855236   36.458599
  10 S    16.0000    0    32.060   36.679788   37.853299   38.532871
  11 N     7.0000    0    14.007   36.226650   33.380090   36.346905
  12 C     6.0000    0    12.011   34.972596   31.406399   34.833069
  13 C     6.0000    0    12.011   33.440648   29.720061   36.597794
  14 C     6.0000    0    12.011   34.369214   27.326242   37.294166
  15 C     6.0000    0    12.011   33.013951   25.788987   38.983085
  16 C     6.0000    0    12.011   30.711604   26.652574   39.986411
  17 C     6.0000    0    12.011   29.788627   29.040943   39.308459
  18 O     8.0000    0    15.999   27.569247   29.882554   40.277520
  19 C     6.0000    0    12.011   31.145345   30.570204   37.634420
  20 H     1.0000    0     1.008   30.213848   25.703557   34.350655
  21 H     1.0000    0     1.008   27.621323   25.263422   32.278479
  22 H     1.0000    0     1.008   28.487560   28.364335   33.219138
  23 H     1.0000    0     1.008   31.799720   24.788405   30.058084
  24 H     1.0000    0     1.008   29.968234   27.253392   28.728102
  25 H     1.0000    0     1.008   29.404202   35.695230   30.568735
  26 H     1.0000    0     1.008   32.229459   36.549443   29.001820
  27 H     1.0000    0     1.008   30.977904   38.526454   31.392843
  28 H     1.0000    0     1.008   33.149886   38.411584   34.827962
  29 H     1.0000    0     1.008   37.511582   32.883025   37.672535
  30 H     1.0000    0     1.008   36.458711   30.248199   33.958780
  31 H     1.0000    0     1.008   36.150834   26.655113   36.524389
  32 H     1.0000    0     1.008   33.748330   23.940692   39.509412
  33 H     1.0000    0     1.008   29.657177   25.472152   41.289940
  34 H     1.0000    0     1.008   26.973016   28.621586   41.464073
  35 H     1.0000    0     1.008   30.412611   32.424956   37.164893

--------------------------------
INTERNAL COORDINATES (ANGSTROEM)
--------------------------------
 C      0   0   0     0.000000000000     0.00000000     0.00000000
 C      1   0   0     1.538337446461     0.00000000     0.00000000
 O      2   1   0     1.442985075769   109.65351680     0.00000000
 C      3   2   1     1.367411236347   118.72212082   271.78656079
 O      4   3   2     1.219173010187   121.11688249   326.06710095
 C      4   3   2     1.505041795966   112.97215618   129.70539955
 C      6   4   3     1.358535684380   122.48528169   192.27007997
 C      7   6   4     1.513945983304   127.53915588     3.89903868
 N      7   6   4     1.398579249184   119.97737758   186.51201878
 C      9   7   6     1.369679383838   124.56449646    10.67473311
 S     10   9   7     1.654101382576   122.02391459   172.38776401
 N     10   9   7     1.371677841931   116.31766980   353.22594191
 C     12  10   9     1.474098590938   124.58923808   349.37694497
 C     13  12  10     1.524990464491   108.73140059   255.60143723
 C     14  13  12     1.407803929917   120.08497842   257.51339475
 C     15  14  13     1.405295733432   120.61167705   177.93794953
 C     16  15  14     1.405386228715   119.63360142   359.94711629
 C     17  16  15     1.401651565200   119.90711600   359.68742366
 O     18  17  16     1.356700971536   120.05975191   180.13394983
 C     18  17  16     1.398242906665   120.33865880     0.09216112
 H      1   2   3     1.095005798865   110.74364476   296.71861000
 H      1   2   3     1.096522871156   110.35845990   177.32749242
 H      1   2   3     1.096970093319   110.94605101    57.61428720
 H      2   1   3     1.097459275971   108.44890481   118.95038174
 H      2   1   3     1.098599517820   110.52354477   236.54587410
 H      8   7   6     1.097474727399   110.57428230    56.91007908
 H      8   7   6     1.097502987978   110.56850034   298.16316462
 H      8   7   6     1.096260758739   113.05359002   177.44809631
 H      9   7   6     1.007497045580   119.59204968   182.77904940
 H     12  10   9     1.011742167002   114.57335431   181.77415878
 H     13  12  10     1.099154209615   107.56116597   138.68746293
 H     15  14  13     1.086701606291   119.91818480   358.01064714
 H     16  15  14     1.088681980226   120.03909115   179.99347062
 H     17  16  15     1.085058457118   119.91885591   179.94762169
 H     19  18  17     0.969050802922   107.50089890     3.47715666
 H     20  18  17     1.084162534002   119.04596933   181.15271762

---------------------------
INTERNAL COORDINATES (A.U.)
---------------------------
 C      0   0   0     0.000000000000     0.00000000     0.00000000
 C      1   0   0     2.907036475366     0.00000000     0.00000000
 O      2   1   0     2.726846608539   109.65351680     0.00000000
 C      3   2   1     2.584032749143   118.72212082   271.78656079
 O      4   3   2     2.303903099122   121.11688249   326.06710095
 C      4   3   2     2.844116814481   112.97215618   129.70539955
 C      6   4   3     2.567260386637   122.48528169   192.27007997
 C      7   6   4     2.860943289995   127.53915588     3.89903868
 N      7   6   4     2.642931757543   119.97737758   186.51201878
 C      9   7   6     2.588318926731   124.56449646    10.67473311
 S     10   9   7     3.125798610809   122.02391459   172.38776401
 N     10   9   7     2.592095465217   116.31766980   353.22594191
 C     12  10   9     2.785642631272   124.58923808   349.37694497
 C     13  12  10     2.881814334730   108.73140059   255.60143723
 C     14  13  12     2.660363877801   120.08497842   257.51339475
 C     15  14  13     2.655624073355   120.61167705   177.93794953
 C     16  15  14     2.655795084657   119.63360142   359.94711629
 C     17  16  15     2.648737593410   119.90711600   359.68742366
 O     18  17  16     2.563793281828   120.05975191   180.13394983
 C     18  17  16     2.642296162295   120.33865880     0.09216112
 H      1   2   3     2.069261074911   110.74364476   296.71861000
 H      1   2   3     2.072127926065   110.35845990   177.32749242
 H      1   2   3     2.072973053476   110.94605101    57.61428720
 H      2   1   3     2.073897474717   108.44890481   118.95038174
 H      2   1   3     2.076052219537   110.52354477   236.54587410
 H      8   7   6     2.073926673685   110.57428230    56.91007908
 H      8   7   6     2.073980078438   110.56850034   298.16316462
 H      8   7   6     2.071632605381   113.05359002   177.44809631
 H      9   7   6     1.903893496882   119.59204968   182.77904940
 H     12  10   9     1.911915613774   114.57335431   181.77415878
 H     13  12  10     2.077100435120   107.56116597   138.68746293
 H     15  14  13     2.053568425182   119.91818480   358.01064714
 H     16  15  14     2.057310789563   120.03909115   179.99347062
 H     17  16  15     2.050463323249   119.91885591   179.94762169
 H     19  18  17     1.831240627379   107.50089890     3.47715666
 H     20  18  17     2.048770273922   119.04596933   181.15271762

---------------------
BASIS SET INFORMATION
---------------------
There are 5 groups of distinct atoms

 Group   1 Type C   : 18s5p2d1f contracted to 4s3p2d1f pattern {8811/311/11/1}
 Group   2 Type O   : 18s5p2d1f contracted to 4s3p2d1f pattern {8811/311/11/1}
 Group   3 Type N   : 18s5p2d1f contracted to 4s3p2d1f pattern {8811/311/11/1}
 Group   4 Type S   : 41s16p2d1f contracted to 5s4p2d1f pattern {13131311/7711/11/1}
 Group   5 Type H   : 5s2p1d contracted to 3s2p1d pattern {311/11/1}

Atom   0C    basis set group =>   1
Atom   1C    basis set group =>   1
Atom   2O    basis set group =>   2
Atom   3C    basis set group =>   1
Atom   4O    basis set group =>   2
Atom   5C    basis set group =>   1
Atom   6C    basis set group =>   1
Atom   7C    basis set group =>   1
Atom   8N    basis set group =>   3
Atom   9C    basis set group =>   1
Atom  10S    basis set group =>   4
Atom  11N    basis set group =>   3
Atom  12C    basis set group =>   1
Atom  13C    basis set group =>   1
Atom  14C    basis set group =>   1
Atom  15C    basis set group =>   1
Atom  16C    basis set group =>   1
Atom  17C    basis set group =>   1
Atom  18O    basis set group =>   2
Atom  19C    basis set group =>   1
Atom  20H    basis set group =>   5
Atom  21H    basis set group =>   5
Atom  22H    basis set group =>   5
Atom  23H    basis set group =>   5
Atom  24H    basis set group =>   5
Atom  25H    basis set group =>   5
Atom  26H    basis set group =>   5
Atom  27H    basis set group =>   5
Atom  28H    basis set group =>   5
Atom  29H    basis set group =>   5
Atom  30H    basis set group =>   5
Atom  31H    basis set group =>   5
Atom  32H    basis set group =>   5
Atom  33H    basis set group =>   5
Atom  34H    basis set group =>   5
Atom  35H    basis set group =>   5
---------------------------------
AUXILIARY/C BASIS SET INFORMATION
---------------------------------
There are 5 groups of distinct atoms

 Group   1 Type C   : 8s6p5d3f1g contracted to 8s6p5d3f1g pattern {11111111/111111/11111/111/1}
 Group   2 Type O   : 8s6p5d3f1g contracted to 8s6p5d3f1g pattern {11111111/111111/11111/111/1}
 Group   3 Type N   : 8s6p5d3f1g contracted to 8s6p5d3f1g pattern {11111111/111111/11111/111/1}
 Group   4 Type S   : 10s8p7d5f2g contracted to 10s8p7d5f2g pattern {1111111111/11111111/1111111/11111/11}
 Group   5 Type H   : 4s3p2d1f contracted to 4s3p2d1f pattern {1111/111/11/1}

Atom   0C    basis set group =>   1
Atom   1C    basis set group =>   1
Atom   2O    basis set group =>   2
Atom   3C    basis set group =>   1
Atom   4O    basis set group =>   2
Atom   5C    basis set group =>   1
Atom   6C    basis set group =>   1
Atom   7C    basis set group =>   1
Atom   8N    basis set group =>   3
Atom   9C    basis set group =>   1
Atom  10S    basis set group =>   4
Atom  11N    basis set group =>   3
Atom  12C    basis set group =>   1
Atom  13C    basis set group =>   1
Atom  14C    basis set group =>   1
Atom  15C    basis set group =>   1
Atom  16C    basis set group =>   1
Atom  17C    basis set group =>   1
Atom  18O    basis set group =>   2
Atom  19C    basis set group =>   1
Atom  20H    basis set group =>   5
Atom  21H    basis set group =>   5
Atom  22H    basis set group =>   5
Atom  23H    basis set group =>   5
Atom  24H    basis set group =>   5
Atom  25H    basis set group =>   5
Atom  26H    basis set group =>   5
Atom  27H    basis set group =>   5
Atom  28H    basis set group =>   5
Atom  29H    basis set group =>   5
Atom  30H    basis set group =>   5
Atom  31H    basis set group =>   5
Atom  32H    basis set group =>   5
Atom  33H    basis set group =>   5
Atom  34H    basis set group =>   5
Atom  35H    basis set group =>   5
------------------------------------------------------------------------------
                           ORCA GTO INTEGRAL CALCULATION
------------------------------------------------------------------------------
------------------------------------------------------------------------------
                   ___                                                        
                  /   \      - P O W E R E D   B Y -                         
                 /     \                                                     
                 |  |  |   _    _      __       _____    __    __             
                 |  |  |  | |  | |    /  \     |  _  \  |  |  /  |          
                  \  \/   | |  | |   /    \    | | | |  |  | /  /          
                 / \  \   | |__| |  /  /\  \   | |_| |  |  |/  /          
                |  |  |   |  __  | /  /__\  \  |    /   |      \           
                |  |  |   | |  | | |   __   |  |    \   |  |\   \          
                \     /   | |  | | |  |  |  |  | |\  \  |  | \   \       
                 \___/    |_|  |_| |__|  |__|  |_| \__\ |__|  \__/        
                                                                              
                      - O R C A' S   B I G   F R I E N D -                    
                                      &                                       
                       - I N T E G R A L  F E E D E R -                       
                                                                              
 v1 FN, 2020, v2 2021                                                         
------------------------------------------------------------------------------


Reading SHARK input file CONFS/Conf243.orca.SHARKINP.tmp ... ok
----------------------
SHARK INTEGRAL PACKAGE
----------------------

Number of atoms                             ...     36
Number of basis functions                   ...    828
Number of shells                            ...    298
Maximum angular momentum                    ...      3
Integral batch strategy                     ... SHARK/LIBINT Hybrid
RI-J (if used) integral strategy            ... SPLIT-RIJ (Revised 2003 algorithm where possible)
Printlevel                                  ...      1
Contraction scheme used                     ... SEGMENTED contraction
Coulomb Range Separation                    ... NOT USED
Exchange Range Separation                   ... NOT USED
Finite Nucleus Model                        ... NOT USED
Auxiliary Coulomb fitting basis             ... NOT available
Auxiliary J/K fitting basis                 ... NOT available
Auxiliary Correlation fitting basis         ... AVAILABLE
   # of basis functions in Aux-C            ...   2141
   # of shells in Aux-C                     ...    629
   Maximum angular momentum in Aux-C        ...      4
Auxiliary 'external' fitting basis          ... NOT available
Integral threshold                          ...     2.500000e-11
Primitive cut-off                           ...     2.500000e-12
Primitive pair pre-selection threshold      ...     2.500000e-12

Calculating pre-screening integrals         ... done (  0.5 sec) Dimension = 298
Organizing shell pair data                  ... done (  1.5 sec)
Shell pair information
Total number of shell pairs                 ...     44551
Shell pairs after pre-screening             ...     34252
Total number of primitive shell pairs       ...    234348
Primitive shell pairs kept                  ...     98150
          la=0 lb=0:   6810 shell pairs
          la=1 lb=0:   9497 shell pairs
          la=1 lb=1:   3362 shell pairs
          la=2 lb=0:   5479 shell pairs
          la=2 lb=1:   3758 shell pairs
          la=2 lb=2:   1075 shell pairs
          la=3 lb=0:   1979 shell pairs
          la=3 lb=1:   1361 shell pairs
          la=3 lb=2:    779 shell pairs
          la=3 lb=3:    152 shell pairs

Calculating one electron integrals          ... done (  0.3 sec)
Calculating RI/C V-Matrix + Cholesky decomp.... done (  1.3 sec)
Calculating Nuclear repulsion               ... done (  0.1 sec) ENN=   1727.181017416282 Eh

SHARK setup successfully completed in   4.0 seconds

Maximum memory used throughout the entire GTOINT-calculation: 509.9 MB
-------------------------------------------------------------------------------
                                 ORCA SCF
-------------------------------------------------------------------------------

------------
SCF SETTINGS
------------
Hamiltonian:
 Ab initio Hamiltonian  Method          .... Hartree-Fock(GTOs)


General Settings:
 Integral files         IntName         .... CONFS/Conf243.orca
 Hartree-Fock type      HFTyp           .... RHF
 Total Charge           Charge          ....    0
 Multiplicity           Mult            ....    1
 Number of Electrons    NEL             ....  154
 Basis Dimension        Dim             ....  828
 Nuclear Repulsion      ENuc            ....   1727.1810174163 Eh

Convergence Acceleration:
 DIIS                   CNVDIIS         .... on
   Start iteration      DIISMaxIt       ....    12
   Startup error        DIISStart       ....  0.200000
   # of expansion vecs  DIISMaxEq       ....     5
   Bias factor          DIISBfac        ....   1.050
   Max. coefficient     DIISMaxC        ....  10.000
 Trust-Rad. Augm. Hess. CNVTRAH         .... auto
   Auto Start mean grad. ratio tolernc. ....  1.125000
   Auto Start start iteration           ....    20
   Auto Start num. interpolation iter.  ....    10
   Max. Number of Micro iterations      ....    16
   Max. Number of Macro iterations      .... Maxiter - #DIIS iter
   Number of Davidson start vectors     ....     2
   Converg. threshold I  (grad. norm)   ....   1.000e-05
   Converg. threshold II (energy diff.) ....   1.000e-08
   Grad. Scal. Fac. for Micro threshold ....   0.100
   Minimum threshold for Micro iter.    ....   0.010
   NR start threshold (gradient norm)   ....   0.001
   Initial trust radius                 ....   0.400
   Minimum AH scaling param. (alpha)    ....   1.000
   Maximum AH scaling param. (alpha)    .... 1000.000
   Orbital update algorithm             .... Taylor
   White noise on init. David. guess    .... on
   Maximum white noise                  ....   0.010
   Quad. conv. algorithm                .... NR
 SOSCF                  CNVSOSCF        .... on
   Start iteration      SOSCFMaxIt      ....   150
   Startup grad/error   SOSCFStart      ....  0.003300
 Level Shifting         CNVShift        .... on
   Level shift para.    LevelShift      ....    0.2500
   Turn off err/grad.   ShiftErr        ....    0.0010
 Zerner damping         CNVZerner       .... off
 Static damping         CNVDamp         .... on
   Fraction old density DampFac         ....    0.7000
   Max. Damping (<1)    DampMax         ....    0.9800
   Min. Damping (>=0)   DampMin         ....    0.0000
   Turn off err/grad.   DampErr         ....    0.1000
 Fernandez-Rico         CNVRico         .... off

SCF Procedure:
 Maximum # iterations   MaxIter         ....   125
 SCF integral mode      SCFMode         .... Direct
   Integral package                     .... SHARK and LIBINT hybrid scheme
 Reset frequency        DirectResetFreq ....    20
 Integral Threshold     Thresh          ....  2.500e-11 Eh
 Primitive CutOff       TCut            ....  2.500e-12 Eh

Convergence Tolerance:
 Convergence Check Mode ConvCheckMode   .... Total+1el-Energy
 Convergence forced     ConvForced      .... 1
 Energy Change          TolE            ....  1.000e-08 Eh
 1-El. energy change                    ....  1.000e-05 Eh
 Orbital Gradient       TolG            ....  1.000e-05
 Orbital Rotation angle TolX            ....  1.000e-05
 DIIS Error             TolErr          ....  5.000e-07


Diagonalization of the overlap matrix:
Smallest eigenvalue                        ... 3.251e-05
Time for diagonalization                   ...    0.112 sec
Threshold for overlap eigenvalues          ... 1.000e-08
Number of eigenvalues below threshold      ... 0
Time for construction of square roots      ...    0.302 sec
Total time needed                          ...    0.416 sec

Time for model grid setup =    1.301 sec

------------------------------
INITIAL GUESS: MODEL POTENTIAL
------------------------------
Loading Hartree-Fock densities                     ... done
Calculating cut-offs                               ... done
Initializing the effective Hamiltonian             ... done
Setting up the integral package (SHARK)            ... done
Starting the Coulomb interaction                   ... done (   4.1 sec)
Reading the grid                                   ... done
Mapping shells                                     ... done
Starting the XC term evaluation                    ... done (   1.2 sec)
Transforming the Hamiltonian                       ... done (   0.1 sec)
Diagonalizing the Hamiltonian                      ... done (   0.1 sec)
Back transforming the eigenvectors                 ... done (   0.0 sec)
Now organizing SCF variables                       ... done
                      ------------------
                      INITIAL GUESS DONE (   6.9 sec)
                      ------------------
--------------
SCF ITERATIONS
--------------
ITER       Energy         Delta-E        Max-DP      RMS-DP      [F,P]     Damp
               ***  Starting incremental Fock matrix formation  ***
  0  -1270.0087324327   0.000000000000 0.04932654  0.00043314  0.3171878 0.7000
  1  -1270.2762713133  -0.267538880671 0.03608540  0.00034772  0.1885772 0.7000
                               ***Turning on DIIS***
  2  -1270.4427888753  -0.166517561947 0.02583886  0.00023213  0.1096525 0.7000
  3  -1272.5877714347  -2.144982559400 0.06312928  0.00050033  0.0829073 0.0000
  4  -1270.7529483870   1.834823047692 0.00731766  0.00009546  0.0069438 0.0000
  5  -1270.8102060056  -0.057257618617 0.00369241  0.00005069  0.0050424 0.0000
                      *** Initiating the SOSCF procedure ***
                           *** Shutting down DIIS ***
                      *** Re-Reading the Fockian *** 
                      *** Removing any level shift *** 
ITER      Energy       Delta-E        Grad      Rot      Max-DP    RMS-DP
  6  -1270.79010686   0.0200991476  0.001569  0.001569  0.001747  0.000026
               *** Restarting incremental Fock matrix formation ***
  7  -1270.80459310  -0.0144862419  0.000926  0.002389  0.001239  0.000016
  8  -1270.80464061  -0.0000475057  0.000400  0.002707  0.001394  0.000017
  9  -1270.80465854  -0.0000179350  0.000168  0.000321  0.000353  0.000004
 10  -1270.80466088  -0.0000023371  0.000046  0.000126  0.000121  0.000001
 11  -1270.80466111  -0.0000002301  0.000024  0.000129  0.000069  0.000001
 12  -1270.80466118  -0.0000000731  0.000010  0.000041  0.000035  0.000000
 13  -1270.80466119  -0.0000000044  0.000003  0.000012  0.000007  0.000000
                  ***Gradient check signals convergence***
              ***Rediagonalizing the Fockian in SOSCF/NRSCF***

               *****************************************************
               *                     SUCCESS                       *
               *           SCF CONVERGED AFTER  14 CYCLES          *
               *****************************************************


----------------
TOTAL SCF ENERGY
----------------

Total Energy       :        -1270.80466118 Eh          -34580.35286 eV

Components:
Nuclear Repulsion  :         1727.18101742 Eh           46998.98487 eV
Electronic Energy  :        -2997.98567859 Eh          -81579.33773 eV
One Electron Energy:        -5175.56257991 Eh         -140834.21767 eV
Two Electron Energy:         2177.57690132 Eh           59254.87994 eV

Virial components:
Potential Energy   :        -2539.77741291 Eh          -69110.85693 eV
Kinetic Energy     :         1268.97275173 Eh           34530.50407 eV
Virial Ratio       :            2.00144362


---------------
SCF CONVERGENCE
---------------

  Last Energy change         ...    8.7330e-09  Tolerance :   1.0000e-08
  Last MAX-Density change    ...    1.8889e-06  Tolerance :   1.0000e-07
  Last RMS-Density change    ...    2.9308e-08  Tolerance :   5.0000e-09
  Last Orbital Gradient      ...    1.4370e-06  Tolerance :   1.0000e-05
  Last Orbital Rotation      ...    3.2844e-06  Tolerance :   1.0000e-05

             **** THE GBW FILE WAS UPDATED (CONFS/Conf243.orca.gbw) ****
             **** DENSITY CONFS/Conf243.orca.scfp WAS UPDATED ****
             **** ENERGY FILE WAS UPDATED (CONFS/Conf243.orca.en.tmp) ****
             **** THE GBW FILE WAS UPDATED (CONFS/Conf243.orca.gbw) ****
             **** DENSITY CONFS/Conf243.orca.scfp WAS UPDATED ****
----------------
ORBITAL ENERGIES
----------------

  NO   OCC          E(Eh)            E(eV) 
   0   2.0000     -91.889693     -2500.4457 
   1   2.0000     -20.599007      -560.5275 
   2   2.0000     -20.592752      -560.3573 
   3   2.0000     -20.544232      -559.0370 
   4   2.0000     -15.630350      -425.3234 
   5   2.0000     -15.608451      -424.7275 
   6   2.0000     -11.394619      -310.0634 
   7   2.0000     -11.384335      -309.7835 
   8   2.0000     -11.337142      -308.4993 
   9   2.0000     -11.316002      -307.9241 
  10   2.0000     -11.310207      -307.7664 
  11   2.0000     -11.293693      -307.3170 
  12   2.0000     -11.261357      -306.4371 
  13   2.0000     -11.260043      -306.4013 
  14   2.0000     -11.257533      -306.3331 
  15   2.0000     -11.252834      -306.2052 
  16   2.0000     -11.245076      -305.9941 
  17   2.0000     -11.239859      -305.8521 
  18   2.0000     -11.239420      -305.8402 
  19   2.0000     -11.220075      -305.3138 
  20   2.0000      -8.894724      -242.0377 
  21   2.0000      -6.576292      -178.9500 
  22   2.0000      -6.574296      -178.8957 
  23   2.0000      -6.573703      -178.8796 
  24   2.0000      -1.449082       -39.4315 
  25   2.0000      -1.418632       -38.6029 
  26   2.0000      -1.352507       -36.8036 
  27   2.0000      -1.341336       -36.4996 
  28   2.0000      -1.239558       -33.7301 
  29   2.0000      -1.159107       -31.5409 
  30   2.0000      -1.120691       -30.4955 
  31   2.0000      -1.043672       -28.3998 
  32   2.0000      -1.033153       -28.1135 
  33   2.0000      -1.017209       -27.6797 
  34   2.0000      -0.997016       -27.1302 
  35   2.0000      -0.984881       -26.8000 
  36   2.0000      -0.923804       -25.1380 
  37   2.0000      -0.890877       -24.2420 
  38   2.0000      -0.847726       -23.0678 
  39   2.0000      -0.840244       -22.8642 
  40   2.0000      -0.835437       -22.7334 
  41   2.0000      -0.814662       -22.1681 
  42   2.0000      -0.756900       -20.5963 
  43   2.0000      -0.733765       -19.9668 
  44   2.0000      -0.722133       -19.6502 
  45   2.0000      -0.698190       -18.9987 
  46   2.0000      -0.689785       -18.7700 
  47   2.0000      -0.678256       -18.4563 
  48   2.0000      -0.668390       -18.1878 
  49   2.0000      -0.666799       -18.1445 
  50   2.0000      -0.648541       -17.6477 
  51   2.0000      -0.644456       -17.5365 
  52   2.0000      -0.636652       -17.3242 
  53   2.0000      -0.609852       -16.5949 
  54   2.0000      -0.603031       -16.4093 
  55   2.0000      -0.599916       -16.3246 
  56   2.0000      -0.596353       -16.2276 
  57   2.0000      -0.579550       -15.7704 
  58   2.0000      -0.571294       -15.5457 
  59   2.0000      -0.565875       -15.3982 
  60   2.0000      -0.558588       -15.1999 
  61   2.0000      -0.548027       -14.9126 
  62   2.0000      -0.537126       -14.6160 
  63   2.0000      -0.527296       -14.3485 
  64   2.0000      -0.525222       -14.2920 
  65   2.0000      -0.513844       -13.9824 
  66   2.0000      -0.503534       -13.7018 
  67   2.0000      -0.499020       -13.5790 
  68   2.0000      -0.478156       -13.0113 
  69   2.0000      -0.463444       -12.6110 
  70   2.0000      -0.451803       -12.2942 
  71   2.0000      -0.445457       -12.1215 
  72   2.0000      -0.356692        -9.7061 
  73   2.0000      -0.351311        -9.5597 
  74   2.0000      -0.329195        -8.9579 
  75   2.0000      -0.323944        -8.8150 
  76   2.0000      -0.316713        -8.6182 
  77   0.0000       0.072028         1.9600 
  78   0.0000       0.104506         2.8438 
  79   0.0000       0.122162         3.3242 
  80   0.0000       0.131170         3.5693 
  81   0.0000       0.135434         3.6854 
  82   0.0000       0.140653         3.8274 
  83   0.0000       0.149424         4.0660 
  84   0.0000       0.154554         4.2056 
  85   0.0000       0.161698         4.4000 
  86   0.0000       0.169128         4.6022 
  87   0.0000       0.181393         4.9359 
  88   0.0000       0.191740         5.2175 
  89   0.0000       0.198354         5.3975 
  90   0.0000       0.199392         5.4257 
  91   0.0000       0.208445         5.6721 
  92   0.0000       0.216378         5.8879 
  93   0.0000       0.221330         6.0227 
  94   0.0000       0.234387         6.3780 
  95   0.0000       0.235633         6.4119 
  96   0.0000       0.245964         6.6930 
  97   0.0000       0.257044         6.9945 
  98   0.0000       0.270414         7.3583 
  99   0.0000       0.282966         7.6999 
 100   0.0000       0.297141         8.0856 
 101   0.0000       0.303147         8.2490 
 102   0.0000       0.312871         8.5136 
 103   0.0000       0.320077         8.7097 
 104   0.0000       0.322006         8.7622 
 105   0.0000       0.326259         8.8780 
 106   0.0000       0.339613         9.2413 
 107   0.0000       0.346246         9.4218 
 108   0.0000       0.368285        10.0215 
 109   0.0000       0.370142        10.0721 
 110   0.0000       0.373063        10.1516 
 111   0.0000       0.381496        10.3810 
 112   0.0000       0.383779        10.4432 
 113   0.0000       0.387183        10.5358 
 114   0.0000       0.392464        10.6795 
 115   0.0000       0.403682        10.9847 
 116   0.0000       0.417342        11.3564 
 117   0.0000       0.423924        11.5356 
 118   0.0000       0.431961        11.7543 
 119   0.0000       0.435370        11.8470 
 120   0.0000       0.439289        11.9537 
 121   0.0000       0.444414        12.0931 
 122   0.0000       0.455694        12.4001 
 123   0.0000       0.462401        12.5826 
 124   0.0000       0.466705        12.6997 
 125   0.0000       0.470967        12.8157 
 126   0.0000       0.481351        13.0982 
 127   0.0000       0.486290        13.2326 
 128   0.0000       0.490363        13.3435 
 129   0.0000       0.497444        13.5362 
 130   0.0000       0.503148        13.6913 
 131   0.0000       0.512133        13.9359 
 132   0.0000       0.515970        14.0403 
 133   0.0000       0.522982        14.2311 
 134   0.0000       0.529115        14.3979 
 135   0.0000       0.533560        14.5189 
 136   0.0000       0.543107        14.7787 
 137   0.0000       0.546452        14.8697 
 138   0.0000       0.548025        14.9125 
 139   0.0000       0.552592        15.0368 
 140   0.0000       0.556710        15.1489 
 141   0.0000       0.561647        15.2832 
 142   0.0000       0.563430        15.3317 
 143   0.0000       0.569039        15.4843 
 144   0.0000       0.577174        15.7057 
 145   0.0000       0.583763        15.8850 
 146   0.0000       0.592044        16.1103 
 147   0.0000       0.593828        16.1589 
 148   0.0000       0.597485        16.2584 
 149   0.0000       0.603394        16.4192 
 150   0.0000       0.605189        16.4680 
 151   0.0000       0.606865        16.5136 
 152   0.0000       0.611007        16.6263 
 153   0.0000       0.611845        16.6492 
 154   0.0000       0.616059        16.7638 
 155   0.0000       0.629849        17.1391 
 156   0.0000       0.631087        17.1727 
 157   0.0000       0.635812        17.3013 
 158   0.0000       0.643160        17.5013 
 159   0.0000       0.649242        17.6668 
 160   0.0000       0.653780        17.7903 
 161   0.0000       0.657176        17.8827 
 162   0.0000       0.663329        18.0501 
 163   0.0000       0.668083        18.1795 
 164   0.0000       0.674516        18.3545 
 165   0.0000       0.676931        18.4202 
 166   0.0000       0.679500        18.4901 
 167   0.0000       0.685536        18.6544 
 168   0.0000       0.694409        18.8958 
 169   0.0000       0.699121        19.0241 
 170   0.0000       0.705256        19.1910 
 171   0.0000       0.713978        19.4283 
 172   0.0000       0.722244        19.6533 
 173   0.0000       0.723902        19.6984 
 174   0.0000       0.733936        19.9714 
 175   0.0000       0.737691        20.0736 
 176   0.0000       0.746964        20.3259 
 177   0.0000       0.751501        20.4494 
 178   0.0000       0.759600        20.6698 
 179   0.0000       0.769705        20.9447 
 180   0.0000       0.774546        21.0765 
 181   0.0000       0.778182        21.1754 
 182   0.0000       0.782462        21.2919 
 183   0.0000       0.785209        21.3666 
 184   0.0000       0.797629        21.7046 
 185   0.0000       0.803591        21.8668 
 186   0.0000       0.826515        22.4906 
 187   0.0000       0.827629        22.5209 
 188   0.0000       0.833524        22.6813 
 189   0.0000       0.844451        22.9787 
 190   0.0000       0.846809        23.0428 
 191   0.0000       0.848920        23.1003 
 192   0.0000       0.859113        23.3777 
 193   0.0000       0.867550        23.6072 
 194   0.0000       0.871235        23.7075 
 195   0.0000       0.881808        23.9952 
 196   0.0000       0.887178        24.1413 
 197   0.0000       0.897324        24.4174 
 198   0.0000       0.905320        24.6350 
 199   0.0000       0.907879        24.7046 
 200   0.0000       0.916820        24.9480 
 201   0.0000       0.922622        25.1058 
 202   0.0000       0.930567        25.3220 
 203   0.0000       0.935706        25.4619 
 204   0.0000       0.941201        25.6114 
 205   0.0000       0.949149        25.8276 
 206   0.0000       0.962233        26.1837 
 207   0.0000       0.969480        26.3809 
 208   0.0000       0.975453        26.5434 
 209   0.0000       0.982061        26.7232 
 210   0.0000       0.986803        26.8523 
 211   0.0000       0.996577        27.1182 
 212   0.0000       1.007602        27.4183 
 213   0.0000       1.009886        27.4804 
 214   0.0000       1.013300        27.5733 
 215   0.0000       1.022925        27.8352 
 216   0.0000       1.028520        27.9874 
 217   0.0000       1.040285        28.3076 
 218   0.0000       1.041225        28.3332 
 219   0.0000       1.049824        28.5672 
 220   0.0000       1.052708        28.6456 
 221   0.0000       1.067269        29.0419 
 222   0.0000       1.070383        29.1266 
 223   0.0000       1.081015        29.4159 
 224   0.0000       1.087168        29.5833 
 225   0.0000       1.099104        29.9081 
 226   0.0000       1.106229        30.1020 
 227   0.0000       1.109300        30.1856 
 228   0.0000       1.119332        30.4586 
 229   0.0000       1.129438        30.7336 
 230   0.0000       1.136059        30.9137 
 231   0.0000       1.142556        31.0905 
 232   0.0000       1.145513        31.1710 
 233   0.0000       1.152368        31.3575 
 234   0.0000       1.164422        31.6855 
 235   0.0000       1.169547        31.8250 
 236   0.0000       1.171277        31.8721 
 237   0.0000       1.177140        32.0316 
 238   0.0000       1.184400        32.2292 
 239   0.0000       1.187993        32.3269 
 240   0.0000       1.199117        32.6296 
 241   0.0000       1.200948        32.6795 
 242   0.0000       1.207645        32.8617 
 243   0.0000       1.215350        33.0714 
 244   0.0000       1.216828        33.1116 
 245   0.0000       1.228120        33.4188 
 246   0.0000       1.232712        33.5438 
 247   0.0000       1.233596        33.5679 
 248   0.0000       1.248306        33.9681 
 249   0.0000       1.255901        34.1748 
 250   0.0000       1.267915        34.5017 
 251   0.0000       1.276009        34.7220 
 252   0.0000       1.278161        34.7805 
 253   0.0000       1.291652        35.1476 
 254   0.0000       1.307167        35.5698 
 255   0.0000       1.321583        35.9621 
 256   0.0000       1.325950        36.0809 
 257   0.0000       1.332651        36.2633 
 258   0.0000       1.342263        36.5248 
 259   0.0000       1.343797        36.5666 
 260   0.0000       1.352993        36.8168 
 261   0.0000       1.359189        36.9854 
 262   0.0000       1.369825        37.2748 
 263   0.0000       1.374882        37.4124 
 264   0.0000       1.378999        37.5245 
 265   0.0000       1.387037        37.7432 
 266   0.0000       1.392433        37.8900 
 267   0.0000       1.399873        38.0925 
 268   0.0000       1.409394        38.3516 
 269   0.0000       1.412192        38.4277 
 270   0.0000       1.414747        38.4972 
 271   0.0000       1.426618        38.8203 
 272   0.0000       1.437498        39.1163 
 273   0.0000       1.448107        39.4050 
 274   0.0000       1.459446        39.7136 
 275   0.0000       1.469114        39.9766 
 276   0.0000       1.477670        40.2094 
 277   0.0000       1.485921        40.4340 
 278   0.0000       1.492954        40.6254 
 279   0.0000       1.501375        40.8545 
 280   0.0000       1.504241        40.9325 
 281   0.0000       1.506547        40.9952 
 282   0.0000       1.510839        41.1120 
 283   0.0000       1.515516        41.2393 
 284   0.0000       1.525323        41.5061 
 285   0.0000       1.528572        41.5946 
 286   0.0000       1.537287        41.8317 
 287   0.0000       1.541027        41.9335 
 288   0.0000       1.547244        42.1026 
 289   0.0000       1.555185        42.3187 
 290   0.0000       1.565216        42.5917 
 291   0.0000       1.569903        42.7192 
 292   0.0000       1.583063        43.0773 
 293   0.0000       1.588514        43.2257 
 294   0.0000       1.593393        43.3584 
 295   0.0000       1.600863        43.5617 
 296   0.0000       1.609736        43.8032 
 297   0.0000       1.616744        43.9939 
 298   0.0000       1.622427        44.1485 
 299   0.0000       1.640579        44.6424 
 300   0.0000       1.649038        44.8726 
 301   0.0000       1.655912        45.0596 
 302   0.0000       1.659112        45.1467 
 303   0.0000       1.668126        45.3920 
 304   0.0000       1.676995        45.6334 
 305   0.0000       1.690042        45.9884 
 306   0.0000       1.701656        46.3044 
 307   0.0000       1.714087        46.6427 
 308   0.0000       1.718024        46.7498 
 309   0.0000       1.723071        46.8871 
 310   0.0000       1.730035        47.0766 
 311   0.0000       1.739995        47.3477 
 312   0.0000       1.751187        47.6522 
 313   0.0000       1.758339        47.8468 
 314   0.0000       1.773097        48.2484 
 315   0.0000       1.778463        48.3944 
 316   0.0000       1.792577        48.7785 
 317   0.0000       1.798552        48.9411 
 318   0.0000       1.813551        49.3492 
 319   0.0000       1.815652        49.4064 
 320   0.0000       1.820567        49.5401 
 321   0.0000       1.825669        49.6790 
 322   0.0000       1.842551        50.1384 
 323   0.0000       1.853045        50.4239 
 324   0.0000       1.870206        50.8909 
 325   0.0000       1.876924        51.0737 
 326   0.0000       1.887923        51.3730 
 327   0.0000       1.898140        51.6510 
 328   0.0000       1.909963        51.9727 
 329   0.0000       1.914794        52.1042 
 330   0.0000       1.920258        52.2529 
 331   0.0000       1.929241        52.4973 
 332   0.0000       1.941006        52.8175 
 333   0.0000       1.950984        53.0890 
 334   0.0000       1.959119        53.3103 
 335   0.0000       1.969238        53.5857 
 336   0.0000       1.976186        53.7748 
 337   0.0000       2.000469        54.4355 
 338   0.0000       2.015629        54.8481 
 339   0.0000       2.024978        55.1025 
 340   0.0000       2.031815        55.2885 
 341   0.0000       2.042718        55.5852 
 342   0.0000       2.066688        56.2374 
 343   0.0000       2.069416        56.3117 
 344   0.0000       2.086383        56.7734 
 345   0.0000       2.119883        57.6849 
 346   0.0000       2.123744        57.7900 
 347   0.0000       2.125477        57.8372 
 348   0.0000       2.151761        58.5524 
 349   0.0000       2.160377        58.7868 
 350   0.0000       2.170298        59.0568 
 351   0.0000       2.203836        59.9694 
 352   0.0000       2.212098        60.1943 
 353   0.0000       2.227594        60.6159 
 354   0.0000       2.228393        60.6377 
 355   0.0000       2.247005        61.1441 
 356   0.0000       2.268116        61.7186 
 357   0.0000       2.285690        62.1968 
 358   0.0000       2.298413        62.5430 
 359   0.0000       2.298936        62.5572 
 360   0.0000       2.309921        62.8561 
 361   0.0000       2.325120        63.2697 
 362   0.0000       2.331640        63.4471 
 363   0.0000       2.344561        63.7988 
 364   0.0000       2.370603        64.5074 
 365   0.0000       2.386569        64.9419 
 366   0.0000       2.390682        65.0538 
 367   0.0000       2.411028        65.6074 
 368   0.0000       2.416744        65.7630 
 369   0.0000       2.418041        65.7982 
 370   0.0000       2.453417        66.7609 
 371   0.0000       2.461351        66.9768 
 372   0.0000       2.464317        67.0575 
 373   0.0000       2.493767        67.8588 
 374   0.0000       2.502346        68.0923 
 375   0.0000       2.514080        68.4116 
 376   0.0000       2.514919        68.4344 
 377   0.0000       2.538589        69.0785 
 378   0.0000       2.548088        69.3370 
 379   0.0000       2.555302        69.5333 
 380   0.0000       2.572203        69.9932 
 381   0.0000       2.588359        70.4328 
 382   0.0000       2.590969        70.5039 
 383   0.0000       2.605807        70.9076 
 384   0.0000       2.616147        71.1890 
 385   0.0000       2.626679        71.4756 
 386   0.0000       2.637337        71.7656 
 387   0.0000       2.645429        71.9858 
 388   0.0000       2.663547        72.4788 
 389   0.0000       2.678232        72.8784 
 390   0.0000       2.694798        73.3292 
 391   0.0000       2.702069        73.5270 
 392   0.0000       2.716895        73.9305 
 393   0.0000       2.722802        74.0912 
 394   0.0000       2.732345        74.3509 
 395   0.0000       2.736117        74.4535 
 396   0.0000       2.756018        74.9951 
 397   0.0000       2.761405        75.1416 
 398   0.0000       2.771289        75.4106 
 399   0.0000       2.778048        75.5945 
 400   0.0000       2.787322        75.8469 
 401   0.0000       2.799991        76.1916 
 402   0.0000       2.810138        76.4677 
 403   0.0000       2.812928        76.5437 
 404   0.0000       2.829868        77.0046 
 405   0.0000       2.836637        77.1888 
 406   0.0000       2.839915        77.2780 
 407   0.0000       2.844584        77.4051 
 408   0.0000       2.855092        77.6910 
 409   0.0000       2.874920        78.2305 
 410   0.0000       2.887979        78.5859 
 411   0.0000       2.892729        78.7152 
 412   0.0000       2.904006        79.0220 
 413   0.0000       2.915004        79.3213 
 414   0.0000       2.916561        79.3637 
 415   0.0000       2.925174        79.5980 
 416   0.0000       2.927509        79.6616 
 417   0.0000       2.944242        80.1169 
 418   0.0000       2.953440        80.3672 
 419   0.0000       2.959498        80.5320 
 420   0.0000       2.972435        80.8841 
 421   0.0000       2.979863        81.0862 
 422   0.0000       2.989264        81.3420 
 423   0.0000       2.994581        81.4867 
 424   0.0000       2.999622        81.6239 
 425   0.0000       3.015653        82.0601 
 426   0.0000       3.020028        82.1791 
 427   0.0000       3.024803        82.3091 
 428   0.0000       3.039004        82.6955 
 429   0.0000       3.046965        82.9121 
 430   0.0000       3.054111        83.1066 
 431   0.0000       3.059965        83.2659 
 432   0.0000       3.066254        83.4370 
 433   0.0000       3.072193        83.5986 
 434   0.0000       3.080790        83.8326 
 435   0.0000       3.087639        84.0189 
 436   0.0000       3.091476        84.1233 
 437   0.0000       3.096807        84.2684 
 438   0.0000       3.110070        84.6293 
 439   0.0000       3.113414        84.7203 
 440   0.0000       3.121123        84.9301 
 441   0.0000       3.124942        85.0340 
 442   0.0000       3.126937        85.0883 
 443   0.0000       3.137447        85.3743 
 444   0.0000       3.156055        85.8806 
 445   0.0000       3.159007        85.9609 
 446   0.0000       3.163922        86.0947 
 447   0.0000       3.175722        86.4158 
 448   0.0000       3.182489        86.5999 
 449   0.0000       3.184810        86.6631 
 450   0.0000       3.200935        87.1019 
 451   0.0000       3.205410        87.2236 
 452   0.0000       3.213432        87.4419 
 453   0.0000       3.216146        87.5158 
 454   0.0000       3.227628        87.8282 
 455   0.0000       3.241432        88.2038 
 456   0.0000       3.245846        88.3239 
 457   0.0000       3.248618        88.3994 
 458   0.0000       3.253978        88.5452 
 459   0.0000       3.269505        88.9678 
 460   0.0000       3.278845        89.2219 
 461   0.0000       3.285521        89.4036 
 462   0.0000       3.288504        89.4847 
 463   0.0000       3.297524        89.7302 
 464   0.0000       3.308198        90.0207 
 465   0.0000       3.313021        90.1519 
 466   0.0000       3.315286        90.2135 
 467   0.0000       3.329801        90.6085 
 468   0.0000       3.333062        90.6972 
 469   0.0000       3.336560        90.7924 
 470   0.0000       3.343583        90.9835 
 471   0.0000       3.349109        91.1339 
 472   0.0000       3.352993        91.2396 
 473   0.0000       3.362610        91.5013 
 474   0.0000       3.365890        91.5905 
 475   0.0000       3.369059        91.6767 
 476   0.0000       3.379166        91.9518 
 477   0.0000       3.379983        91.9740 
 478   0.0000       3.382671        92.0472 
 479   0.0000       3.396242        92.4164 
 480   0.0000       3.405904        92.6794 
 481   0.0000       3.416357        92.9638 
 482   0.0000       3.416911        92.9789 
 483   0.0000       3.423297        93.1526 
 484   0.0000       3.425143        93.2029 
 485   0.0000       3.427710        93.2727 
 486   0.0000       3.431271        93.3696 
 487   0.0000       3.438733        93.5727 
 488   0.0000       3.442042        93.6627 
 489   0.0000       3.444611        93.7326 
 490   0.0000       3.453722        93.9806 
 491   0.0000       3.456024        94.0432 
 492   0.0000       3.460577        94.1671 
 493   0.0000       3.474650        94.5500 
 494   0.0000       3.478011        94.6415 
 495   0.0000       3.484432        94.8162 
 496   0.0000       3.491887        95.0191 
 497   0.0000       3.498068        95.1873 
 498   0.0000       3.508835        95.4803 
 499   0.0000       3.511810        95.5612 
 500   0.0000       3.524569        95.9084 
 501   0.0000       3.527397        95.9854 
 502   0.0000       3.544355        96.4468 
 503   0.0000       3.547014        96.5192 
 504   0.0000       3.550316        96.6090 
 505   0.0000       3.560318        96.8812 
 506   0.0000       3.564609        96.9979 
 507   0.0000       3.578183        97.3673 
 508   0.0000       3.585470        97.5656 
 509   0.0000       3.589806        97.6836 
 510   0.0000       3.599588        97.9498 
 511   0.0000       3.607378        98.1618 
 512   0.0000       3.612205        98.2931 
 513   0.0000       3.623374        98.5970 
 514   0.0000       3.625982        98.6680 
 515   0.0000       3.628052        98.7243 
 516   0.0000       3.630671        98.7956 
 517   0.0000       3.637156        98.9721 
 518   0.0000       3.645515        99.1995 
 519   0.0000       3.652200        99.3814 
 520   0.0000       3.657760        99.5327 
 521   0.0000       3.659283        99.5742 
 522   0.0000       3.661826        99.6434 
 523   0.0000       3.667676        99.8025 
 524   0.0000       3.671844        99.9160 
 525   0.0000       3.688188       100.3607 
 526   0.0000       3.690167       100.4146 
 527   0.0000       3.696477       100.5862 
 528   0.0000       3.698931       100.6530 
 529   0.0000       3.712024       101.0093 
 530   0.0000       3.713268       101.0432 
 531   0.0000       3.720935       101.2518 
 532   0.0000       3.740518       101.7847 
 533   0.0000       3.743371       101.8623 
 534   0.0000       3.750377       102.0529 
 535   0.0000       3.761381       102.3524 
 536   0.0000       3.762560       102.3845 
 537   0.0000       3.766528       102.4924 
 538   0.0000       3.776492       102.7636 
 539   0.0000       3.779144       102.8357 
 540   0.0000       3.791557       103.1735 
 541   0.0000       3.798069       103.3507 
 542   0.0000       3.803554       103.5000 
 543   0.0000       3.811554       103.7176 
 544   0.0000       3.816281       103.8463 
 545   0.0000       3.824329       104.0653 
 546   0.0000       3.826233       104.1171 
 547   0.0000       3.834323       104.3372 
 548   0.0000       3.841403       104.5299 
 549   0.0000       3.849221       104.7426 
 550   0.0000       3.861159       105.0675 
 551   0.0000       3.864042       105.1459 
 552   0.0000       3.878815       105.5479 
 553   0.0000       3.886538       105.7581 
 554   0.0000       3.902869       106.2025 
 555   0.0000       3.909173       106.3740 
 556   0.0000       3.913241       106.4847 
 557   0.0000       3.921656       106.7137 
 558   0.0000       3.930506       106.9545 
 559   0.0000       3.935081       107.0790 
 560   0.0000       3.941361       107.2499 
 561   0.0000       3.950630       107.5021 
 562   0.0000       3.965573       107.9087 
 563   0.0000       3.969770       108.0229 
 564   0.0000       3.980241       108.3079 
 565   0.0000       3.990609       108.5900 
 566   0.0000       3.997040       108.7650 
 567   0.0000       4.005245       108.9882 
 568   0.0000       4.018567       109.3508 
 569   0.0000       4.020617       109.4066 
 570   0.0000       4.027641       109.5977 
 571   0.0000       4.042159       109.9927 
 572   0.0000       4.047819       110.1468 
 573   0.0000       4.053025       110.2884 
 574   0.0000       4.065668       110.6325 
 575   0.0000       4.071786       110.7989 
 576   0.0000       4.088614       111.2568 
 577   0.0000       4.095571       111.4462 
 578   0.0000       4.100082       111.5689 
 579   0.0000       4.107976       111.7837 
 580   0.0000       4.112717       111.9127 
 581   0.0000       4.126567       112.2896 
 582   0.0000       4.136992       112.5733 
 583   0.0000       4.139511       112.6418 
 584   0.0000       4.153757       113.0295 
 585   0.0000       4.161006       113.2267 
 586   0.0000       4.162392       113.2644 
 587   0.0000       4.173302       113.5613 
 588   0.0000       4.173646       113.5707 
 589   0.0000       4.179945       113.7421 
 590   0.0000       4.187952       113.9600 
 591   0.0000       4.195678       114.1702 
 592   0.0000       4.200702       114.3069 
 593   0.0000       4.203810       114.3915 
 594   0.0000       4.213971       114.6680 
 595   0.0000       4.217404       114.7614 
 596   0.0000       4.224711       114.9602 
 597   0.0000       4.231189       115.1365 
 598   0.0000       4.245808       115.5343 
 599   0.0000       4.250646       115.6660 
 600   0.0000       4.254036       115.7582 
 601   0.0000       4.258839       115.8889 
 602   0.0000       4.269888       116.1896 
 603   0.0000       4.279219       116.4435 
 604   0.0000       4.296435       116.9119 
 605   0.0000       4.304890       117.1420 
 606   0.0000       4.311625       117.3253 
 607   0.0000       4.312534       117.3500 
 608   0.0000       4.323537       117.6494 
 609   0.0000       4.334043       117.9353 
 610   0.0000       4.339657       118.0881 
 611   0.0000       4.344398       118.2171 
 612   0.0000       4.351730       118.4166 
 613   0.0000       4.360015       118.6420 
 614   0.0000       4.364740       118.7706 
 615   0.0000       4.376041       119.0781 
 616   0.0000       4.377055       119.1057 
 617   0.0000       4.390362       119.4678 
 618   0.0000       4.401559       119.7725 
 619   0.0000       4.409236       119.9814 
 620   0.0000       4.412626       120.0737 
 621   0.0000       4.419572       120.2627 
 622   0.0000       4.430056       120.5480 
 623   0.0000       4.441125       120.8492 
 624   0.0000       4.449057       121.0650 
 625   0.0000       4.458229       121.3146 
 626   0.0000       4.466470       121.5388 
 627   0.0000       4.473813       121.7386 
 628   0.0000       4.481119       121.9375 
 629   0.0000       4.494553       122.3030 
 630   0.0000       4.507524       122.6560 
 631   0.0000       4.518626       122.9581 
 632   0.0000       4.522494       123.0633 
 633   0.0000       4.529919       123.2654 
 634   0.0000       4.545011       123.6760 
 635   0.0000       4.546980       123.7296 
 636   0.0000       4.559041       124.0578 
 637   0.0000       4.562467       124.1510 
 638   0.0000       4.573678       124.4561 
 639   0.0000       4.589895       124.8974 
 640   0.0000       4.593032       124.9828 
 641   0.0000       4.597178       125.0956 
 642   0.0000       4.604215       125.2871 
 643   0.0000       4.610804       125.4664 
 644   0.0000       4.619363       125.6993 
 645   0.0000       4.629608       125.9780 
 646   0.0000       4.638606       126.2229 
 647   0.0000       4.644265       126.3769 
 648   0.0000       4.649799       126.5275 
 649   0.0000       4.655892       126.6933 
 650   0.0000       4.659231       126.7841 
 651   0.0000       4.663555       126.9018 
 652   0.0000       4.667679       127.0140 
 653   0.0000       4.680243       127.3559 
 654   0.0000       4.694398       127.7411 
 655   0.0000       4.705138       128.0333 
 656   0.0000       4.714101       128.2772 
 657   0.0000       4.718427       128.3949 
 658   0.0000       4.730703       128.7290 
 659   0.0000       4.740312       128.9904 
 660   0.0000       4.757539       129.4592 
 661   0.0000       4.760762       129.5469 
 662   0.0000       4.788385       130.2986 
 663   0.0000       4.794568       130.4668 
 664   0.0000       4.815434       131.0346 
 665   0.0000       4.818989       131.1314 
 666   0.0000       4.836584       131.6101 
 667   0.0000       4.845553       131.8542 
 668   0.0000       4.872600       132.5902 
 669   0.0000       4.886326       132.9637 
 670   0.0000       4.905063       133.4736 
 671   0.0000       4.934428       134.2726 
 672   0.0000       4.938410       134.3810 
 673   0.0000       4.958002       134.9141 
 674   0.0000       4.973479       135.3352 
 675   0.0000       4.995923       135.9460 
 676   0.0000       5.021124       136.6317 
 677   0.0000       5.032149       136.9317 
 678   0.0000       5.038471       137.1038 
 679   0.0000       5.049735       137.4103 
 680   0.0000       5.055863       137.5770 
 681   0.0000       5.077288       138.1600 
 682   0.0000       5.095844       138.6650 
 683   0.0000       5.110518       139.0643 
 684   0.0000       5.116216       139.2193 
 685   0.0000       5.119178       139.2999 
 686   0.0000       5.126363       139.4954 
 687   0.0000       5.143856       139.9714 
 688   0.0000       5.156791       140.3234 
 689   0.0000       5.161662       140.4560 
 690   0.0000       5.169183       140.6606 
 691   0.0000       5.189276       141.2074 
 692   0.0000       5.192283       141.2892 
 693   0.0000       5.202047       141.5549 
 694   0.0000       5.206339       141.6717 
 695   0.0000       5.210610       141.7879 
 696   0.0000       5.222323       142.1066 
 697   0.0000       5.227109       142.2369 
 698   0.0000       5.236472       142.4916 
 699   0.0000       5.256038       143.0241 
 700   0.0000       5.275498       143.5536 
 701   0.0000       5.283256       143.7647 
 702   0.0000       5.300186       144.2254 
 703   0.0000       5.310448       144.5046 
 704   0.0000       5.320626       144.7816 
 705   0.0000       5.336768       145.2208 
 706   0.0000       5.350722       145.6005 
 707   0.0000       5.356030       145.7450 
 708   0.0000       5.374775       146.2551 
 709   0.0000       5.388968       146.6413 
 710   0.0000       5.390672       146.6876 
 711   0.0000       5.400757       146.9621 
 712   0.0000       5.425463       147.6344 
 713   0.0000       5.449334       148.2839 
 714   0.0000       5.470031       148.8471 
 715   0.0000       5.484648       149.2449 
 716   0.0000       5.508838       149.9031 
 717   0.0000       5.515946       150.0965 
 718   0.0000       5.521420       150.2455 
 719   0.0000       5.539263       150.7310 
 720   0.0000       5.547122       150.9449 
 721   0.0000       5.554348       151.1415 
 722   0.0000       5.561598       151.3388 
 723   0.0000       5.578765       151.8059 
 724   0.0000       5.589152       152.0885 
 725   0.0000       5.594276       152.2280 
 726   0.0000       5.611239       152.6896 
 727   0.0000       5.621386       152.9657 
 728   0.0000       5.631308       153.2357 
 729   0.0000       5.637327       153.3995 
 730   0.0000       5.648448       153.7021 
 731   0.0000       5.671147       154.3197 
 732   0.0000       5.683938       154.6678 
 733   0.0000       5.709957       155.3758 
 734   0.0000       5.718996       155.6218 
 735   0.0000       5.722652       155.7213 
 736   0.0000       5.729929       155.9193 
 737   0.0000       5.734077       156.0322 
 738   0.0000       5.749245       156.4449 
 739   0.0000       5.759618       156.7272 
 740   0.0000       5.760549       156.7525 
 741   0.0000       5.772819       157.0864 
 742   0.0000       5.786274       157.4525 
 743   0.0000       5.816045       158.2626 
 744   0.0000       5.842636       158.9862 
 745   0.0000       5.850673       159.2049 
 746   0.0000       5.870143       159.7347 
 747   0.0000       5.884992       160.1388 
 748   0.0000       5.902620       160.6185 
 749   0.0000       5.933366       161.4551 
 750   0.0000       5.954243       162.0232 
 751   0.0000       5.971867       162.5028 
 752   0.0000       5.987281       162.9222 
 753   0.0000       6.000308       163.2767 
 754   0.0000       6.019834       163.8080 
 755   0.0000       6.024600       163.9377 
 756   0.0000       6.052975       164.7098 
 757   0.0000       6.065041       165.0382 
 758   0.0000       6.067602       165.1079 
 759   0.0000       6.098833       165.9577 
 760   0.0000       6.120195       166.5390 
 761   0.0000       6.163882       167.7278 
 762   0.0000       6.220705       169.2740 
 763   0.0000       6.228480       169.4856 
 764   0.0000       6.283117       170.9723 
 765   0.0000       6.295470       171.3084 
 766   0.0000       6.311721       171.7506 
 767   0.0000       6.324815       172.1070 
 768   0.0000       6.348056       172.7394 
 769   0.0000       6.369272       173.3167 
 770   0.0000       6.383731       173.7102 
 771   0.0000       6.393519       173.9765 
 772   0.0000       6.406022       174.3167 
 773   0.0000       6.451629       175.5578 
 774   0.0000       6.464417       175.9057 
 775   0.0000       6.472433       176.1239 
 776   0.0000       6.499576       176.8625 
 777   0.0000       6.554369       178.3535 
 778   0.0000       6.574179       178.8925 
 779   0.0000       6.597835       179.5362 
 780   0.0000       6.657529       181.1606 
 781   0.0000       6.681074       181.8013 
 782   0.0000       6.709413       182.5724 
 783   0.0000       6.768534       184.1812 
 784   0.0000       6.799356       185.0199 
 785   0.0000       6.869955       186.9410 
 786   0.0000       6.907611       187.9657 
 787   0.0000       6.921322       188.3387 
 788   0.0000       6.946711       189.0296 
 789   0.0000       7.033525       191.3919 
 790   0.0000       7.054671       191.9673 
 791   0.0000       7.062462       192.1794 
 792   0.0000       7.081402       192.6947 
 793   0.0000       7.137701       194.2267 
 794   0.0000       7.231164       196.7700 
 795   0.0000       7.258566       197.5156 
 796   0.0000       7.275096       197.9654 
 797   0.0000       7.282531       198.1677 
 798   0.0000       7.347575       199.9377 
 799   0.0000       7.379144       200.7967 
 800   0.0000       7.407855       201.5780 
 801   0.0000       7.555643       205.5995 
 802   0.0000       7.577303       206.1889 
 803   0.0000       7.588839       206.5028 
 804   0.0000       7.682756       209.0584 
 805   0.0000       7.817262       212.7185 
 806   0.0000       7.821957       212.8463 
 807   0.0000       7.923361       215.6056 
 808   0.0000       7.935070       215.9242 
 809   0.0000       9.416943       256.2480 
 810   0.0000       9.636782       262.2302 
 811   0.0000      10.762353       292.8585 
 812   0.0000      11.382495       309.7334 
 813   0.0000      11.778828       320.5182 
 814   0.0000      12.624294       343.5245 
 815   0.0000      12.942346       352.1792 
 816   0.0000      12.973533       353.0278 
 817   0.0000      13.127144       357.2078 
 818   0.0000      13.194659       359.0449 
 819   0.0000      13.369878       363.8129 
 820   0.0000      13.547774       368.6537 
 821   0.0000      13.711265       373.1025 
 822   0.0000      13.940929       379.3520 
 823   0.0000      14.048863       382.2890 
 824   0.0000      14.130913       384.5217 
 825   0.0000      14.536509       395.5585 
 826   0.0000      14.779029       402.1578 
 827   0.0000      16.009212       435.6328 

                    ********************************
                    * MULLIKEN POPULATION ANALYSIS *
                    ********************************

-----------------------
MULLIKEN ATOMIC CHARGES
-----------------------
   0 C :   -0.315053
   1 C :    0.032702
   2 O :   -0.374005
   3 C :    0.468543
   4 O :   -0.423818
   5 C :   -0.233608
   6 C :    0.150833
   7 C :   -0.269516
   8 N :   -0.123613
   9 C :    0.214205
  10 S :   -0.438462
  11 N :   -0.202754
  12 C :    0.043329
  13 C :    0.093326
  14 C :   -0.192851
  15 C :   -0.133806
  16 C :   -0.279623
  17 C :    0.324981
  18 O :   -0.359357
  19 C :   -0.281006
  20 H :    0.107176
  21 H :    0.112875
  22 H :    0.105303
  23 H :    0.105156
  24 H :    0.117839
  25 H :    0.129073
  26 H :    0.134217
  27 H :    0.094618
  28 H :    0.198434
  29 H :    0.193216
  30 H :    0.149675
  31 H :    0.147255
  32 H :    0.162538
  33 H :    0.131530
  34 H :    0.241704
  35 H :    0.168946
Sum of atomic charges:    0.0000000

--------------------------------
MULLIKEN REDUCED ORBITAL CHARGES
--------------------------------
  0 C s       :     3.259449  s :     3.259449
      pz      :     0.958000  p :     2.975419
      px      :     0.988198
      py      :     1.029221
      dz2     :     0.016497  d :     0.075644
      dxz     :     0.020556
      dyz     :     0.012916
      dx2y2   :     0.007341
      dxy     :     0.018333
      f0      :     0.000334  f :     0.004542
      f+1     :     0.001460
      f-1     :     0.000325
      f+2     :     0.000649
      f-2     :     0.000842
      f+3     :     0.000365
      f-3     :     0.000567
  1 C s       :     3.169847  s :     3.169847
      pz      :     0.978703  p :     2.633980
      px      :     0.776203
      py      :     0.879075
      dz2     :     0.027680  d :     0.151974
      dxz     :     0.033138
      dyz     :     0.022702
      dx2y2   :     0.029160
      dxy     :     0.039293
      f0      :     0.001206  f :     0.011496
      f+1     :     0.002189
      f-1     :     0.001120
      f+2     :     0.000711
      f-2     :     0.002226
      f+3     :     0.002121
      f-3     :     0.001922
  2 O s       :     3.722648  s :     3.722648
      pz      :     1.802732  p :     4.616178
      px      :     1.583492
      py      :     1.229954
      dz2     :     0.003925  d :     0.032916
      dxz     :     0.003383
      dyz     :     0.006384
      dx2y2   :     0.010712
      dxy     :     0.008512
      f0      :     0.000279  f :     0.002264
      f+1     :     0.000170
      f-1     :     0.000439
      f+2     :     0.000272
      f-2     :     0.000199
[...]
 15 C s       :     2.705594  s :     2.705594
      pz      :     0.890377  p :     2.794831
      px      :     0.955823
      py      :     0.948631
      dz2     :     0.079528  d :     0.417932
      dxz     :     0.080886
      dyz     :     0.054459
      dx2y2   :     0.104899
      dxy     :     0.098159
      f0      :     0.003980  f :     0.041134
      f+1     :     0.005218
      f-1     :     0.004619
      f+2     :     0.007591
      f-2     :     0.005407
      f+3     :     0.008000
      f-3     :     0.006318
 16 C s       :     2.701354  s :     2.701354
      pz      :     0.932187  p :     2.870105
      px      :     0.972130
      py      :     0.965787
      dz2     :     0.038155  d :     0.390255
      dxz     :     0.070124
      dyz     :     0.072969
      dx2y2   :     0.098208
      dxy     :     0.110799
      f0      :     0.003371  f :     0.040321
      f+1     :     0.004850
      f-1     :     0.004247
      f+2     :     0.006000
      f-2     :     0.004748
      f+3     :     0.008694
      f-3     :     0.008411
 17 C s       :     2.701201  s :     2.701201
      pz      :     0.866945  p :     2.678787
      px      :     0.821504
      py      :     0.990338
      dz2     :     0.116748  d :     0.709343
      dxz     :     0.123121
      dyz     :     0.116052
      dx2y2   :     0.176228
      dxy     :     0.177194
      f0      :     0.008001  f :     0.099363
      f+1     :     0.015968
      f-1     :     0.008393
      f+2     :     0.015969
      f-2     :     0.012258
      f+3     :     0.018940
      f-3     :     0.019833
 18 O s       :     3.177031  s :     3.177031
      pz      :     1.453347  p :     4.346288
      px      :     1.371904
      py      :     1.521038
      dz2     :     0.007501  d :     0.075461
      dxz     :     0.017081
      dyz     :     0.015444
      dx2y2   :     0.017498
      dxy     :     0.017936
      f0      :     0.000522  f :     0.005062
      f+1     :     0.000727
      f-1     :     0.000456
      f+2     :     0.000559
      f-2     :     0.000865
      f+3     :     0.000857
      f-3     :     0.001075
 19 C s       :     2.694439  s :     2.694439
      pz      :     0.926425  p :     2.843907
      px      :     0.962972
      py      :     0.954511
      dz2     :     0.065578  d :     0.387208
      dxz     :     0.076199
      dyz     :     0.054580
      dx2y2   :     0.093148
      dxy     :     0.097704
      f0      :     0.003798  f :     0.040778
      f+1     :     0.005304
      f-1     :     0.004402
      f+2     :     0.007547
      f-2     :     0.005945
      f+3     :     0.007661
      f-3     :     0.006119
 20 H s       :     0.842546  s :     0.842546
      pz      :     0.063968  p :     0.155941
      px      :     0.048076
      py      :     0.043898
      dz2     :     0.008467  d :     0.027914
      dxz     :     0.006718
      dyz     :     0.006159
      dx2y2   :     0.003246
      dxy     :     0.003324
 21 H s       :     0.847374  s :     0.847374
      pz      :     0.040528  p :     0.151716
      px      :     0.059788
      py      :     0.051399
      dz2     :     0.002805  d :     0.027478
      dxz     :     0.006151
      dyz     :     0.003053
      dx2y2   :     0.008804
      dxy     :     0.006665
 22 H s       :     0.848078  s :     0.848078
      pz      :     0.042521  p :     0.152823
      px      :     0.043390
      py      :     0.066912
      dz2     :     0.002917  d :     0.027679
      dxz     :     0.002158
      dyz     :     0.007563
      dx2y2   :     0.006823
      dxy     :     0.008218
 23 H s       :     0.854586  s :     0.854586
      pz      :     0.042716  p :     0.144581
      px      :     0.034318
      py      :     0.067547
      dz2     :     0.002830  d :     0.026966
      dxz     :     0.002310
      dyz     :     0.008044
      dx2y2   :     0.006807
      dxy     :     0.006975
 24 H s       :     0.851791  s :     0.851791
      pz      :     0.069237  p :     0.149975
      px      :     0.043308
      py      :     0.037429
      dz2     :     0.009457  d :     0.027172
      dxz     :     0.007598
      dyz     :     0.004646
      dx2y2   :     0.002195
      dxy     :     0.003276
 25 H s       :     0.827085  s :     0.827085
      pz      :     0.039768  p :     0.150738
      px      :     0.066779
      py      :     0.044191
      dz2     :     0.002391  d :     0.027756
      dxz     :     0.007924
      dyz     :     0.001771
      dx2y2   :     0.008480
      dxy     :     0.007189
 26 H s       :     0.824151  s :     0.824151
      pz      :     0.068045  p :     0.151391
      px      :     0.045606
      py      :     0.037739
      dz2     :     0.009080  d :     0.027760
      dxz     :     0.007557
      dyz     :     0.007262
      dx2y2   :     0.002022
      dxy     :     0.001839
 27 H s       :     0.845296  s :     0.845296
      pz      :     0.039750  p :     0.150356
      px      :     0.040810
      py      :     0.069796
      dz2     :     0.003341  d :     0.027707
      dxz     :     0.001082
      dyz     :     0.007860
      dx2y2   :     0.006610
      dxy     :     0.008813
 28 H s       :     0.742237  s :     0.742237
      pz      :     0.059436  p :     0.253527
      px      :     0.074409
      py      :     0.119682
      dz2     :     0.005593  d :     0.061810
      dxz     :     0.001922
      dyz     :     0.017462
      dx2y2   :     0.017400
      dxy     :     0.019432
 29 H s       :     0.749754  s :     0.749754
      pz      :     0.106586  p :     0.254381
      px      :     0.100788
      py      :     0.047007
      dz2     :     0.018362  d :     0.061409
      dxz     :     0.014314
      dyz     :     0.009518
      dx2y2   :     0.011061
      dxy     :     0.008155
 30 H s       :     0.831812  s :     0.831812
      pz      :     0.043285  p :     0.147437
      px      :     0.056522
      py      :     0.047630
      dz2     :     0.003901  d :     0.028406
      dxz     :     0.006456
      dyz     :     0.004589
      dx2y2   :     0.006219
      dxy     :     0.007240
 31 H s       :     0.844969  s :     0.844969
      pz      :     0.047929  p :     0.157704
      px      :     0.070473
      py      :     0.039302
      dz2     :     0.003966  d :     0.027531
      dxz     :     0.007132
      dyz     :     0.002192
      dx2y2   :     0.007043
      dxy     :     0.007198
 32 H s       :     0.842938  s :     0.842938
      pz      :     0.040082  p :     0.151339
      px      :     0.040235
      py      :     0.071022
      dz2     :     0.003097  d :     0.026444
      dxz     :     0.001527
      dyz     :     0.006850
      dx2y2   :     0.007356
      dxy     :     0.007614
 33 H s       :     0.848362  s :     0.848362
      pz      :     0.060401  p :     0.159152
      px      :     0.047877
      py      :     0.050874
      dz2     :     0.006437  d :     0.027765
      dxz     :     0.005265
      dyz     :     0.005819
      dx2y2   :     0.005344
      dxy     :     0.004901
 34 H s       :     0.706101  s :     0.706101
      pz      :     0.125868  p :     0.347544
      px      :     0.081456
      py      :     0.140219
      dz2     :     0.026816  d :     0.099525
      dxz     :     0.013847
      dyz     :     0.023661
      dx2y2   :     0.018228
      dxy     :     0.016973
 35 H s       :     0.839328  s :     0.839328
      pz      :     0.043216  p :     0.158636
      px      :     0.041814
      py      :     0.073606
      dz2     :     0.003241  d :     0.028171
      dxz     :     0.001616
      dyz     :     0.007490
      dx2y2   :     0.007947
      dxy     :     0.007876


                      *****************************
                      * MAYER POPULATION ANALYSIS *
                      *****************************

  NA   - Mulliken gross atomic population
  ZA   - Total nuclear charge
  QA   - Mulliken gross atomic charge
  VA   - Mayer's total valence
  BVA  - Mayer's bonded valence
  FA   - Mayer's free valence

  ATOM       NA         ZA         QA         VA         BVA        FA
  0 C      6.3151     6.0000    -0.3151     3.8780     3.8780     0.0000
  1 C      5.9673     6.0000     0.0327     3.8457     3.8457     0.0000
  2 O      8.3740     8.0000    -0.3740     2.0300     2.0300    -0.0000
  3 C      5.5315     6.0000     0.4685     4.2286     4.2286     0.0000
  4 O      8.4238     8.0000    -0.4238     2.0874     2.0874     0.0000
  5 C      6.2336     6.0000    -0.2336     3.6650     3.6650    -0.0000
  6 C      5.8492     6.0000     0.1508     3.8772     3.8772    -0.0000
  7 C      6.2695     6.0000    -0.2695     3.9057     3.9057    -0.0000
  8 N      7.1236     7.0000    -0.1236     3.3040     3.3040     0.0000
  9 C      5.7858     6.0000     0.2142     4.1467     4.1467    -0.0000
 10 S     16.4385    16.0000    -0.4385     1.7579     1.7579    -0.0000
 11 N      7.2028     7.0000    -0.2028     3.2409     3.2409     0.0000
 12 C      5.9567     6.0000     0.0433     3.9450     3.9450     0.0000
 13 C      5.9067     6.0000     0.0933     3.6884     3.6884     0.0000
 14 C      6.1929     6.0000    -0.1929     3.8516     3.8516    -0.0000
 15 C      6.1338     6.0000    -0.1338     3.7951     3.7951    -0.0000
 16 C      6.2796     6.0000    -0.2796     3.7947     3.7947     0.0000
 17 C      5.6750     6.0000     0.3250     3.8714     3.8714     0.0000
 18 O      8.3594     8.0000    -0.3594     2.1180     2.1180    -0.0000
 19 C      6.2810     6.0000    -0.2810     3.8223     3.8223     0.0000
 20 H      0.8928     1.0000     0.1072     0.9788     0.9788     0.0000
 21 H      0.8871     1.0000     0.1129     0.9827     0.9827     0.0000
 22 H      0.8947     1.0000     0.1053     0.9797     0.9797     0.0000
 23 H      0.8948     1.0000     0.1052     0.9779     0.9779     0.0000
 24 H      0.8822     1.0000     0.1178     0.9881     0.9881     0.0000
 25 H      0.8709     1.0000     0.1291     0.9802     0.9802    -0.0000
 26 H      0.8658     1.0000     0.1342     0.9804     0.9804    -0.0000
 27 H      0.9054     1.0000     0.0946     0.9858     0.9858     0.0000
 28 H      0.8016     1.0000     0.1984     1.0222     1.0222     0.0000
 29 H      0.8068     1.0000     0.1932     1.0199     1.0199    -0.0000
 30 H      0.8503     1.0000     0.1497     0.9940     0.9940     0.0000
 31 H      0.8527     1.0000     0.1473     0.9858     0.9858    -0.0000
 32 H      0.8375     1.0000     0.1625     0.9770     0.9770     0.0000
 33 H      0.8685     1.0000     0.1315     0.9916     0.9916     0.0000
 34 H      0.7583     1.0000     0.2417     1.0102     1.0102    -0.0000
 35 H      0.8311     1.0000     0.1689     0.9861     0.9861     0.0000

  Mayer bond orders larger than 0.100000
B(  0-C ,  1-C ) :   0.9625 B(  0-C , 20-H ) :   0.9730 B(  0-C , 21-H ) :   0.9778 
B(  0-C , 22-H ) :   0.9741 B(  1-C ,  2-O ) :   0.8845 B(  1-C , 23-H ) :   0.9860 
B(  1-C , 24-H ) :   0.9776 B(  2-O ,  3-C ) :   1.1273 B(  3-C ,  4-O ) :   1.9863 
B(  3-C ,  5-C ) :   1.0660 B(  5-C ,  6-C ) :   1.6521 B(  5-C , 12-C ) :   0.9752 
B(  6-C ,  7-C ) :   0.9703 B(  6-C ,  8-N ) :   1.1573 B(  7-C , 25-H ) :   0.9625 
B(  7-C , 26-H ) :   0.9579 B(  7-C , 27-H ) :   0.9896 B(  8-N ,  9-C ) :   1.1799 
B(  8-N , 28-H ) :   0.9480 B(  9-C , 10-S ) :   1.6087 B(  9-C , 11-N ) :   1.3054 
B( 11-N , 12-C ) :   0.9690 B( 11-N , 29-H ) :   0.9534 B( 12-C , 13-C ) :   0.9444 
B( 12-C , 30-H ) :   1.0036 B( 13-C , 14-C ) :   1.3519 B( 13-C , 19-C ) :   1.3613 
B( 14-C , 15-C ) :   1.3886 B( 14-C , 31-H ) :   0.9742 B( 15-C , 16-C ) :   1.3619 
B( 15-C , 32-H ) :   0.9710 B( 16-C , 17-C ) :   1.3318 B( 16-C , 33-H ) :   0.9849 
B( 17-C , 18-O ) :   1.1110 B( 17-C , 19-C ) :   1.3661 B( 18-O , 34-H ) :   0.9793 
B( 19-C , 35-H ) :   0.9582 

-------
TIMINGS
-------

Total SCF time: 0 days 1 hours 34 min 46 sec 

Total time                  ....    5686.252 sec
Sum of individual times     ....    5679.729 sec  ( 99.9%)

Fock matrix formation       ....    5661.881 sec  ( 99.6%)
Diagonalization             ....       1.389 sec  (  0.0%)
Density matrix formation    ....       0.186 sec  (  0.0%)
Population analysis         ....       0.515 sec  (  0.0%)
Initial guess               ....       5.550 sec  (  0.1%)
Orbital Transformation      ....       0.000 sec  (  0.0%)
Orbital Orthonormalization  ....       0.000 sec  (  0.0%)
DIIS solution               ....       5.568 sec  (  0.1%)
SOSCF solution              ....       3.339 sec  (  0.1%)

Maximum memory used throughout the entire SCF-calculation: 752.3 MB

------------------------------------------------------------------------------
                                ORCA  MP2 
------------------------------------------------------------------------------

Freezing NCore=48 chemical core electrons

-------------
RI-MP2 ENERGY
-------------
Dimension of the basis                    ...  828
Memory devoted to MP2                     ...  256 MB   
Data format for buffers                   ... DOUBLE
Compression type for matrix containers    ... UNCOMPRESSED
Overall scaling of the MP2 energy         ...   1.000e+00
Calculating two index integrals           ... done (    0.036 sec)
Cholesky decomposition of V**-1           ... done (    0.578 sec)

-----------------
RI-TRANSFORMATION (AUX index driven)
-----------------

Dimension of the orbital-basis         ... 828
Dimension of the aux-basis             ... 2141
Transformation of internal/external MOs...   24-  76 to   77- 827
Number Format for Storage              ... Double (8 Byte)
Integral mode                          ... Direct

First Phase: integral generation and transformation of MO indices
  Aux angular momentum 0               ... done (    4.559 sec)
  Aux angular momentum 1               ... done (    7.428 sec)
  Aux angular momentum 2               ... done (    9.144 sec)
  Aux angular momentum 3               ... done (    7.898 sec)
  Aux angular momentum 4               ... done (    2.900 sec)
Closing buffer VIA ( 0.63 GB; CompressionRatio= 1.00)
  Phase 1 completed in    32.141 sec
Second Phase: sorting and transformation of aux index

IA-Transformation
Memory available                       ... 157 MB 
Max. # MO pairs treated in a batch     ... 11    
# of internal orbitals                 ... 53
# batches for internal orbitals        ... 5
Closing buffer IAV ( 0.63 GB; CompressionRatio= 1.00)
(ia|v) transformation done in    32.899 sec

  Phase 2 completed in    32.910 sec
RI-Integral transformation completed in    65.075 sec
Opening buffers                              ... done

Starting loop over batches of integrals:

Operator 0  - window                       ... ( 24- 76)x( 77-827)
Operator 0  - Memory available             ...   256 MB
Operator 0  - Memory needed per MO         ...  12.3 MB
Operator 0  - Number of orbitals per batch ... 13
Operator 0  - Number of batches            ... 5

OPERATOR  0   PASS   0:  MOs    24 ...   36
  Reading integrals       ... ok
  Internal MO  26
  Internal MO  29
  Internal MO  32
  Internal MO  35
OPERATOR  0   PASS   1:  MOs    37 ...   49
  Reading integrals       ... ok
  Internal MO  38
  Internal MO  41
  Internal MO  44
  Internal MO  47
OPERATOR  0   PASS   2:  MOs    50 ...   62
  Reading integrals       ... ok
  Internal MO  50
  Internal MO  53
  Internal MO  56
  Internal MO  59
  Internal MO  62
OPERATOR  0   PASS   3:  MOs    63 ...   75
  Reading integrals       ... ok
  Internal MO  65
  Internal MO  68
  Internal MO  71
  Internal MO  74
OPERATOR  0   PASS   4:  MOs    76 ...   76
  Reading integrals       ... ok
Time spent in pair loops =   137.643 sec
Deleting buffer (Ka|jb)[aa] ...done

-----------------------------------------------
 RI-MP2 CORRELATION ENERGY:     -3.536766258 Eh
-----------------------------------------------


-------
TIMINGS
-------

Total time                :  203.492 sec
Integral trafo            :   65.090 sec ( 32.0%)
I/O of integrals          :    5.028 sec (  2.5%)
K(i,j) Operators          :   82.894 sec ( 40.7%)
T(i,j) pair energies      :    3.511 sec (  1.7%)
V-calculation             :    0.036 sec (  0.0%)
V**(-1/2)                 :    0.578 sec (  0.3%)
Gamma(ia|P)               :    0.000 sec (  0.0%)
Gamma-Trafo               :    0.000 sec (  0.0%)
D(virtual)                :    0.000 sec (  0.0%)
D(internal)               :    0.000 sec (  0.0%)
W(virtual)                :    0.000 sec (  0.0%)
W(internal)               :    0.000 sec (  0.0%)
L(virtual)                :    0.000 sec (  0.0%)
L(internal)               :    0.000 sec (  0.0%)
G(D)                      :    0.000 sec (  0.0%)
G(Z)                      :    0.000 sec (  0.0%)
Z-Vector Solution         :    0.000 sec (  0.0%)
3-Index Derivative        :    0.000 sec (  0.0%)
2-Index Derivative        :    0.000 sec (  0.0%)
Separable Gradient        :    0.000 sec (  0.0%)


---------------------------------------
MP2 TOTAL ENERGY:    -1274.341427435 Eh
---------------------------------------

Maximum memory used throughout the entire MP2-calculation: 305.4 MB

-------------------------   --------------------
FINAL SINGLE POINT ENERGY     -1274.341427435034
-------------------------   --------------------


                            ***************************************
                            *     ORCA property calculations      *
                            ***************************************


  WARNING: The energy has been calculated at the MP2 level but the densities
           used in the property calculations are still SCF densities
           MP2 response densities have not been calculated 
           use %mp2 Density relaxed end
           or  %mp2 Density unrelaxed end

                                    ---------------------
                                    Active property flags
                                    ---------------------
   (+) Dipole Moment


------------------------------------------------------------------------------
                       ORCA ELECTRIC PROPERTIES CALCULATION
------------------------------------------------------------------------------

Dipole Moment Calculation                       ... on
Quadrupole Moment Calculation                   ... off
Polarizability Calculation                      ... off
GBWName                                         ... CONFS/Conf243.orca.gbw
Electron density file                           ... CONFS/Conf243.orca.scfp
The origin for moment calculation is the CENTER OF MASS  = (32.777208, 31.525173 35.176327)

-------------
DIPOLE MOMENT
-------------
                                X             Y             Z
Electronic contribution:      8.93659      10.15198       5.35646
Nuclear contribution   :     -9.86171     -11.83061      -5.46046
                        -----------------------------------------
Total Dipole Moment    :     -0.92512      -1.67863      -0.10400
                        -----------------------------------------
Magnitude (a.u.)       :      1.91950
Magnitude (Debye)      :      4.87897



--------------------
Rotational spectrum 
--------------------
 
Rotational constants in cm-1:     0.012126     0.009277     0.006533 
Rotational constants in MHz :   363.520805   278.121151   195.840081 

 Dipole components along the rotational axes: 
x,y,z [a.u.] :    -1.915479     0.021418     0.122275 
x,y,z [Debye]:    -4.868761     0.054440     0.310798 

 

Timings for individual modules:

Sum of individual times         ...     5894.934 sec (=  98.249 min)
GTO integral calculation        ...        4.105 sec (=   0.068 min)   0.1 %
SCF iterations                  ...     5686.420 sec (=  94.774 min)  96.5 %
MP2 module                      ...      204.409 sec (=   3.407 min)   3.5 %
                             ****ORCA TERMINATED NORMALLY****
TOTAL RUN TIME: 0 days 1 hours 38 minutes 16 seconds 735 msec
