
                                        *****************
                                        * O   R   C   A *
                                        *****************

                                            #,                                       
                                            ###                                      
                                            ####                                     
                                            #####                                    
                                            ######                                   
                                           ########,                                 
                                     ,,################,,,,,                         
                               ,,#################################,,                 
                          ,,##########################################,,             
                       ,#########################################, ''#####,          
                    ,#############################################,,   '####,        
                  ,##################################################,,,,####,       
                ,###########''''           ''''###############################       
              ,#####''   ,,,,##########,,,,          '''####'''          '####       
            ,##' ,,,,###########################,,,                        '##       
           ' ,,###''''                  '''############,,,                           
         ,,##''                                '''############,,,,        ,,,,,,###''
      ,#''                                            '''#######################'''  
     '                                                          ''''####''''         
             ,#######,   #######,   ,#######,      ##                                
            ,#'     '#,  ##    ##  ,#'     '#,    #''#        ######   ,####,        
            ##       ##  ##   ,#'  ##            #'  '#       #        #'  '#        
            ##       ##  #######   ##           ,######,      #####,   #    #        
            '#,     ,#'  ##    ##  '#,     ,#' ,#      #,         ##   #,  ,#        
             '#######'   ##     ##  '#######'  #'      '#     #####' # '####'        



                  #######################################################
                  #                        -***-                        #
                  #          Department of theory and spectroscopy      #
                  #    Directorship and core code : Frank Neese         #
                  #        Max Planck Institute fuer Kohlenforschung    #
                  #                Kaiser Wilhelm Platz 1               #
                  #                 D-45470 Muelheim/Ruhr               #
                  #                      Germany                        #
                  #                                                     #
                  #                  All rights reserved                #
                  #                        -***-                        #
                  #######################################################


                         Program Version 5.0.0 -  RELEASE  -
                                (SVN: $Rev: 19529$)
                ($Date: 2021-06-28 11:36:33 +0200 (Mo, 28 Jun 2021) $)


 With contributions from (in alphabetic order):
   Daniel Aravena         : Magnetic Suceptibility
   Michael Atanasov       : Ab Initio Ligand Field Theory (pilot matlab implementation)
   Alexander A. Auer      : GIAO ZORA, VPT2 properties, NMR spectrum
   Ute Becker             : Parallelization
   Giovanni Bistoni       : ED, misc. LED, open-shell LED, HFLD
   Martin Brehm           : Molecular dynamics
   Dmytro Bykov           : SCF Hessian
   Vijay G. Chilkuri      : MRCI spin determinant printing, contributions to CSF-ICE
   Dipayan Datta          : RHF DLPNO-CCSD density
   Achintya Kumar Dutta   : EOM-CC, STEOM-CC
   Dmitry Ganyushin       : Spin-Orbit,Spin-Spin,Magnetic field MRCI
   Miquel Garcia          : C-PCM Hessian, Gaussian charge scheme
   Yang Guo               : DLPNO-NEVPT2, F12-NEVPT2, CIM, IAO-localization
   Andreas Hansen         : Spin unrestricted coupled pair/coupled cluster methods
   Benjamin Helmich-Paris : MC-RPA, TRAH-SCF, COSX integrals
   Lee Huntington         : MR-EOM, pCC
   Robert Izsak           : Overlap fitted RIJCOSX, COSX-SCS-MP3, EOM
   Marcus Kettner         : VPT2
   Christian Kollmar      : KDIIS, OOCD, Brueckner-CCSD(T), CCSD density, CASPT2, CASPT2-K
   Simone Kossmann        : Meta GGA functionals, TD-DFT gradient, OOMP2, MP2 Hessian
   Martin Krupicka        : Initial AUTO-CI
   Lucas Lang             : DCDCAS
   Marvin Lechner         : AUTO-CI (C++ implementation), FIC-MRCC
   Dagmar Lenk            : GEPOL surface, SMD
   Dimitrios Liakos       : Extrapolation schemes; Compound Job, initial MDCI parallelization
   Dimitrios Manganas     : Further ROCIS development; embedding schemes
   Dimitrios Pantazis     : SARC Basis sets
   Anastasios Papadopoulos: AUTO-CI, single reference methods and gradients
   Taras Petrenko         : DFT Hessian,TD-DFT gradient, ASA, ECA, R-Raman, ABS, FL, XAS/XES, NRVS
   Peter Pinski           : DLPNO-MP2, DLPNO-MP2 Gradient
   Christoph Reimann      : Effective Core Potentials
   Marius Retegan         : Local ZFS, SOC
   Christoph Riplinger    : Optimizer, TS searches, QM/MM, DLPNO-CCSD(T), (RO)-DLPNO pert. Triples
   Tobias Risthaus        : Range-separated hybrids, TD-DFT gradient, RPA, STAB
   Michael Roemelt        : Original ROCIS implementation
   Masaaki Saitow         : Open-shell DLPNO-CCSD energy and density
   Barbara Sandhoefer     : DKH picture change effects
   Avijit Sen             : IP-ROCIS
   Kantharuban Sivalingam : CASSCF convergence, NEVPT2, FIC-MRCI
   Bernardo de Souza      : ESD, SOC TD-DFT
   Georgi Stoychev        : AutoAux, RI-MP2 NMR
   Willem Van den Heuvel  : Paramagnetic NMR
   Boris Wezisla          : Elementary symmetry handling
   Frank Wennmohs         : Technical directorship


 We gratefully acknowledge several colleagues who have allowed us to
 interface, adapt or use parts of their codes:
   Stefan Grimme, W. Hujo, H. Kruse, P. Pracht,  : VdW corrections, initial TS optimization,
                  C. Bannwarth, S. Ehlert          DFT functionals, gCP, sTDA/sTD-DF
   Ed Valeev, F. Pavosevic, A. Kumar             : LibInt (2-el integral package), F12 methods
   Garnet Chan, S. Sharma, J. Yang, R. Olivares  : DMRG
   Ulf Ekstrom                                   : XCFun DFT Library
   Mihaly Kallay                                 : mrcc  (arbitrary order and MRCC methods)
   Jiri Pittner, Ondrej Demel                    : Mk-CCSD
   Frank Weinhold                                : gennbo (NPA and NBO analysis)
   Christopher J. Cramer and Donald G. Truhlar   : smd solvation model
   Lars Goerigk                                  : TD-DFT with DH, B97 family of functionals
   V. Asgeirsson, H. Jonsson                     : NEB implementation
   FAccTs GmbH                                   : IRC, NEB, NEB-TS, DLPNO-Multilevel, CI-OPT
                                                   MM, QMMM, 2- and 3-layer-ONIOM, Crystal-QMMM,
                                                   LR-CPCM, SF, NACMEs, symmetry and pop. for TD-DFT,
                                                   nearIR, NL-DFT gradient (VV10), updates on ESD,
                                                   ML-optimized integration grids
   S Lehtola, MJT Oliveira, MAL Marques          : LibXC Library
   Liviu Ungur et al                             : ANISO software


 Your calculation uses the libint2 library for the computation of 2-el integrals
 For citations please refer to: http://libint.valeyev.net

 Your ORCA version has been built with support for libXC version: 5.1.0
 For citations please refer to: https://tddft.org/programs/libxc/

 This ORCA versions uses:
   CBLAS   interface :  Fast vector & matrix operations
   LAPACKE interface :  Fast linear algebra routines
   SCALAPACK package :  Parallel linear algebra routines
   Shared memory     :  Shared parallel matrices
   BLAS/LAPACK       :  OpenBLAS 0.3.15  USE64BITINT DYNAMIC_ARCH NO_AFFINITY Zen SINGLE_THREADED
        Core in use  :  Zen
   Copyright (c) 2011-2014, The OpenBLAS Project


================================================================================

----- Orbital basis set information -----
Your calculation utilizes the basis: cc-pVTZ 
       H, B-Ne : Obtained from the ccRepo (grant-hill.group.shef.ac.uk/ccrepo) Feb. 2017
                 T. H. Dunning, Jr., J. Chem. Phys. 90, 1007 (1989)
            He : Obtained from the ccRepo (grant-hill.group.shef.ac.uk/ccrepo) Feb. 2017
                 D. E. Woon, T. H. Dunning, Jr., J. Chem. Phys. 100, 2975 (1994)
  Li-Be, Na-Mg : Obtained from the ccRepo (grant-hill.group.shef.ac.uk/ccrepo) Feb. 2017
                 B. P. Prascher, D. E. Woon, K. A. Peterson, T. H. Dunning, Jr., A. K. Wilson, Theor. Chem. Acc. 128, 69 (2011)
         Al-Ar : Obtained from the ccRepo (grant-hill.group.shef.ac.uk/ccrepo) Feb. 2017
                 D. E. Woon, T. H. Dunning, Jr., J. Chem. Phys. 98, 1358 (1993)
            Ca : Obtained from the Peterson Research Group Website (tyr0.chem.wsu.edu/~kipeters) Feb. 2017
                 J. Koput, K. A. Peterson, J. Phys. Chem. 106, 9595 (2002)
         Sc-Zn : Obtained from the ccRepo (grant-hill.group.shef.ac.uk/ccrepo) Feb. 2017
                 N. B. Balabanov, K. A. Peterson, J. Chem. Phys. 123, 064107 (2005)
                 N. B. Balabanov, K. A. Peterson, J. Chem. Phys. 125, 074110 (2006)
         Ga-Kr : Obtained from the ccRepo (grant-hill.group.shef.ac.uk/ccrepo) Feb. 2017
                 A. K. Wilson, D. E. Woon, K. A. Peterson, T. H. Dunning, Jr., J. Chem. Phys. 110, 7667 (1999)
             Y : Obtained from the ccRepo (grant-hill.group.shef.ac.uk/ccrepo) Feb. 2017
                 K. A. Peterson, D. Figgen, M. Dolg, H. Stoll, J. Chem. Phys. 126, 124101 (2007)
        Ag, Au : Obtained from the Peterson Research Group Website (tyr0.chem.wsu.edu/~kipeters) Feb. 2017
                 K. A. Peterson, C. Puzzarini, Theor. Chem. Acc. 114, 283 (2005)

----- AuxC basis set information -----
Your calculation utilizes the auxiliary basis: cc-pVTZ/C 
  Obtained from the EMSL Basis Set Exchange (bse.pnl.gov) Feb. 2017
  H-He, B-F, Al-Ar, Ga-Kr : F. Weigend, A. Kohn, C. Hattig, J. Chem. Phys. 116, 3175 (2002)
             Li-Be, Na-Mg : C. Haettig, Phys. Chem. Chem. Phys. 7, 59 (2005)
                       Ne : C. Haettig, Phys. Chem. Chem. Phys. 7, 59 (2005)
                            F. Weigend, A. Kohn, C. Hattig, J. Chem. Phys. 116, 3175 (2002)
                    Sc-Zn : J. G. Hill, J. A. Platts, J. Chem. Phys. 128, 044104 (2008)

================================================================================
                                        WARNINGS
                       Please study these warnings very carefully!
================================================================================


WARNING: No MP2 level density has been requested!
         To caclulate MP2 level properties use
         %mp2 Density relaxed end
         or
         %mp2 Density unrelaxed end

WARNING: Post HF methods need fully converged wavefunctions
  ===> : Setting SCFConvForced true
         You can overwrite this default with %scf ConvForced false 


INFO   : the flag for use of the SHARK integral package has been found!

================================================================================
                                       INPUT FILE
================================================================================
NAME = CONFS/Conf546.orca
|  1> ! ri-mp2 cc-pvtz cc-pvtz/c TightSCF NoKeepInts
|  2> 
|  3> %scf
|  4>   MaxCore 4096
|  5> end
|  6> *xyz  0  1
|  7>     C       15.0250690   15.4513724   16.9529709
|  8>     C       16.1440956   14.3864247   16.9087037
|  9>     O       17.3059308   14.8254884   16.1646834
| 10>     C       17.7609770   16.1130758   16.0420688
| 11>     O       17.9974488   16.5564586   14.9336239
| 12>     C       17.7758201   16.9841688   17.2648707
| 13>     C       17.3479569   18.2684969   17.2019858
| 14>     C       16.6259851   18.9239911   16.0452361
| 15>     N       17.6071974   19.1461143   18.2577013
| 16>     C       18.4997748   18.8919246   19.2657597
| 17>     S       18.9158353   20.0424079   20.3784449
| 18>     N       19.0442495   17.6316648   19.2951301
| 19>     C       18.5655839   16.4909640   18.4905385
| 20>     C       17.8113589   15.5386800   19.4081349
| 21>     C       18.3227733   14.2527120   19.6685336
| 22>     C       17.6389218   13.3720220   20.5235786
| 23>     C       16.4399121   13.7827225   21.1308455
| 24>     C       15.9382444   15.0687336   20.8890840
| 25>     O       14.7823249   15.4698175   21.4745554
| 26>     C       16.6208833   15.9434130   20.0384520
| 27>     H       15.2651358   16.2820085   17.6230641
| 28>     H       14.0962796   14.9989812   17.3214952
| 29>     H       14.8274425   15.8496112   15.9497314
| 30>     H       16.4090108   14.0859184   17.9245566
| 31>     H       15.7501734   13.4874043   16.4173377
| 32>     H       15.9153888   18.2309940   15.5784749
| 33>     H       17.3433851   19.2226443   15.2695765
| 34>     H       16.0635105   19.8143084   16.3500258
| 35>     H       17.2423173   20.0850204   18.2274294
| 36>     H       19.6880107   17.4701882   20.0592174
| 37>     H       19.4508655   15.9619099   18.1098272
| 38>     H       19.2499638   13.9306189   19.2010631
| 39>     H       18.0393685   12.3775657   20.7150125
| 40>     H       15.9086050   13.1054481   21.7918357
| 41>     H       14.5036026   14.7689485   22.0834852
| 42>     H       16.2235969   16.9397771   19.8769656
| 43> *
| 44> 
| 45>                          ****END OF INPUT****
================================================================================

                       ****************************
                       * Single Point Calculation *
                       ****************************

---------------------------------
CARTESIAN COORDINATES (ANGSTROEM)
---------------------------------
  C     15.025069   15.451372   16.952971
  C     16.144096   14.386425   16.908704
  O     17.305931   14.825488   16.164683
  C     17.760977   16.113076   16.042069
  O     17.997449   16.556459   14.933624
  C     17.775820   16.984169   17.264871
  C     17.347957   18.268497   17.201986
  C     16.625985   18.923991   16.045236
  N     17.607197   19.146114   18.257701
  C     18.499775   18.891925   19.265760
  S     18.915835   20.042408   20.378445
  N     19.044249   17.631665   19.295130
  C     18.565584   16.490964   18.490538
  C     17.811359   15.538680   19.408135
  C     18.322773   14.252712   19.668534
  C     17.638922   13.372022   20.523579
  C     16.439912   13.782723   21.130845
  C     15.938244   15.068734   20.889084
  O     14.782325   15.469817   21.474555
  C     16.620883   15.943413   20.038452
  H     15.265136   16.282008   17.623064
  H     14.096280   14.998981   17.321495
  H     14.827443   15.849611   15.949731
  H     16.409011   14.085918   17.924557
  H     15.750173   13.487404   16.417338
  H     15.915389   18.230994   15.578475
  H     17.343385   19.222644   15.269576
  H     16.063510   19.814308   16.350026
  H     17.242317   20.085020   18.227429
  H     19.688011   17.470188   20.059217
  H     19.450865   15.961910   18.109827
  H     19.249964   13.930619   19.201063
  H     18.039368   12.377566   20.715013
  H     15.908605   13.105448   21.791836
  H     14.503603   14.768948   22.083485
  H     16.223597   16.939777   19.876966

----------------------------
CARTESIAN COORDINATES (A.U.)
----------------------------
  NO LB      ZA    FRAG     MASS         X           Y           Z
   0 C     6.0000    0    12.011   28.393266   29.198862   32.036472
   1 C     6.0000    0    12.011   30.507919   27.186403   31.952819
   2 O     8.0000    0    15.999   32.703470   28.016113   30.546825
   3 C     6.0000    0    12.011   33.563382   30.449300   30.315117
   4 O     8.0000    0    15.999   34.010249   31.287173   28.220459
   5 C     6.0000    0    12.011   33.591432   32.095428   32.625877
   6 C     6.0000    0    12.011   32.782888   34.522456   32.507042
   7 C     6.0000    0    12.011   31.418559   35.761161   30.321102
   8 N     7.0000    0    14.007   33.272781   36.180913   34.502055
   9 C     6.0000    0    12.011   34.959508   35.700564   36.407010
  10 S    16.0000    0    32.060   35.745748   37.874662   38.509680
  11 N     7.0000    0    14.007   35.988416   33.319018   36.462512
  12 C     6.0000    0    12.011   35.083869   31.163406   34.942054
  13 C     6.0000    0    12.011   33.658590   29.363850   36.676060
  14 C     6.0000    0    12.011   34.625024   26.933722   37.168142
  15 C     6.0000    0    12.011   33.332731   25.269459   38.783943
  16 C     6.0000    0    12.011   31.066932   26.045571   39.931511
  17 C     6.0000    0    12.011   30.118917   28.475780   39.474648
  18 O     8.0000    0    15.999   27.934546   29.233718   40.581029
  19 C     6.0000    0    12.011   31.408918   30.128684   37.867186
  20 H     1.0000    0     1.008   28.846926   30.768537   33.302765
  21 H     1.0000    0     1.008   26.638108   28.343967   32.732882
  22 H     1.0000    0     1.008   28.019806   29.951424   30.140624
  23 H     1.0000    0     1.008   31.008537   26.618528   33.872503
  24 H     1.0000    0     1.008   29.763514   25.487500   31.024272
  25 H     1.0000    0     1.008   30.075726   34.451586   29.439051
  26 H     1.0000    0     1.008   32.774248   36.325533   28.855318
  27 H     1.0000    0     1.008   30.355636   37.443616   30.897071
  28 H     1.0000    0     1.008   32.583258   37.955188   34.444850
  29 H     1.0000    0     1.008   37.204948   33.013871   37.906427
  30 H     1.0000    0     1.008   36.756809   30.163638   34.222614
  31 H     1.0000    0     1.008   36.377160   26.325055   36.284751
  32 H     1.0000    0     1.008   34.089466   23.390209   39.145700
  33 H     1.0000    0     1.008   30.062907   24.765708   41.180601
  34 H     1.0000    0     1.008   27.407837   27.909268   41.731739
  35 H     1.0000    0     1.008   30.658155   32.011539   37.562021

--------------------------------
INTERNAL COORDINATES (ANGSTROEM)
--------------------------------
 C      0   0   0     0.000000000000     0.00000000     0.00000000
 C      1   0   0     1.545410534531     0.00000000     0.00000000
 O      2   1   0     1.447827396974   112.75608918     0.00000000
 C      3   2   1     1.371124610277   126.65943076    30.83437266
 O      4   3   2     1.217028067001   119.21263544   230.74527314
 C      4   3   2     1.501421932340   118.37759870    42.73423945
 C      6   4   3     1.355182680310   120.59265734   223.71027280
 C      7   6   4     1.512939455061   126.63730437    10.23631315
 N      7   6   4     1.397123170863   120.11055447   192.71936200
 C      9   7   6     1.370214784765   124.07360371    13.52218244
 S     10   9   7     1.653718995942   121.99422135   171.77263134
 N     10   9   7     1.373160618002   116.37775955   352.47835920
 C     12  10   9     1.475698720788   124.69157957   348.52175430
 C     13  12  10     1.522393943949   108.39642113   254.31572247
 C     14  13  12     1.408213715497   120.18218367   246.38340301
 C     15  14  13     1.405122664459   120.53991552   179.43500415
 C     16  15  14     1.405372637143   119.66969749   359.53575405
 C     17  16  15     1.401407739892   119.93639838   359.54040869
 O     18  17  16     1.356390410441   120.12932859   180.08859241
 C     18  17  16     1.398082515448   120.28397639     0.42988585
 H      1   2   3     1.093898210882   112.45126643   286.30760882
 H      1   2   3     1.096867223998   109.78859526   167.24080848
 H      1   2   3     1.097333071445   110.75089597    48.41098574
 H      2   1   3     1.091989566786   109.79483974   125.01229131
 H      2   1   3     1.097657927236   108.50347632   240.61568017
 H      8   7   6     1.096840052153   111.14823514    37.99409027
 H      8   7   6     1.097954602405   110.25435275   279.35042207
 H      8   7   6     1.096329937359   112.58877380   158.53649527
 H      9   7   6     1.007769090577   119.69322769   183.38362406
 H     12  10   9     1.012093166163   114.50584176   180.92697152
 H     13  12  10     1.099346554082   107.43407330   138.00906512
 H     15  14  13     1.087177472508   120.05023449   358.97129425
 H     16  15  14     1.089012318672   120.02370893   179.68287596
 H     17  16  15     1.085309122740   119.89816383   179.99307744
 H     19  18  17     0.969380718297   107.60048311     5.44194837
 H     20  18  17     1.084737646060   119.10468060   180.94348351

---------------------------
INTERNAL COORDINATES (A.U.)
---------------------------
 C      0   0   0     0.000000000000     0.00000000     0.00000000
 C      1   0   0     2.920402674740     0.00000000     0.00000000
 O      2   1   0     2.735997269469   112.75608918     0.00000000
 C      3   2   1     2.591050008902   126.65943076    30.83437266
 O      4   3   2     2.299849743927   119.21263544   230.74527314
 C      4   3   2     2.837276263585   118.37759870    42.73423945
 C      6   4   3     2.560924127219   120.59265734   223.71027280
 C      7   6   4     2.859041227269   126.63730437    10.23631315
 N      7   6   4     2.640180168287   120.11055447   192.71936200
 C      9   7   6     2.589330687855   124.07360371    13.52218244
 S     10   9   7     3.125076004793   121.99422135   171.77263134
 N     10   9   7     2.594897505910   116.37775955   352.47835920
 C     12  10   9     2.788666438467   124.69157957   348.52175430
 C     13  12  10     2.876907622005   108.39642113   254.31572247
 C     14  13  12     2.661138260320   120.18218367   246.38340301
 C     15  14  13     2.655297020394   120.53991552   179.43500415
 C     16  15  14     2.655769400307   119.66969749   359.53575405
 C     17  16  15     2.648276830353   119.93639838   359.54040869
 O     18  17  16     2.563206406411   120.12932859   180.08859241
 C     18  17  16     2.641993066821   120.28397639     0.42988585
 H      1   2   3     2.067168036954   112.45126643   286.30760882
 H      1   2   3     2.072778658630   109.78859526   167.24080848
 H      1   2   3     2.073658982727   110.75089597    48.41098574
 H      2   1   3     2.063561222325   109.79483974   125.01229131
 H      2   1   3     2.074272871205   108.50347632   240.61568017
 H      8   7   6     2.072727311286   111.14823514    37.99409027
 H      8   7   6     2.074833506024   110.25435275   279.35042207
 H      8   7   6     2.071763334028   112.58877380   158.53649527
 H      9   7   6     1.904407587422   119.69322769   183.38362406
 H     12  10   9     1.912578906062   114.50584176   180.92697152
 H     13  12  10     2.077463913486   107.43407330   138.00906512
 H     15  14  13     2.054467682008   120.05023449   358.97129425
 H     16  15  14     2.057935038757   120.02370893   179.68287596
 H     17  16  15     2.050937012624   119.89816383   179.99307744
 H     19  18  17     1.831864077086   107.60048311     5.44194837
 H     20  18  17     2.049857078207   119.10468060   180.94348351

---------------------
BASIS SET INFORMATION
---------------------
There are 5 groups of distinct atoms

 Group   1 Type C   : 18s5p2d1f contracted to 4s3p2d1f pattern {8811/311/11/1}
 Group   2 Type O   : 18s5p2d1f contracted to 4s3p2d1f pattern {8811/311/11/1}
 Group   3 Type N   : 18s5p2d1f contracted to 4s3p2d1f pattern {8811/311/11/1}
 Group   4 Type S   : 41s16p2d1f contracted to 5s4p2d1f pattern {13131311/7711/11/1}
 Group   5 Type H   : 5s2p1d contracted to 3s2p1d pattern {311/11/1}

Atom   0C    basis set group =>   1
Atom   1C    basis set group =>   1
Atom   2O    basis set group =>   2
Atom   3C    basis set group =>   1
Atom   4O    basis set group =>   2
Atom   5C    basis set group =>   1
Atom   6C    basis set group =>   1
Atom   7C    basis set group =>   1
Atom   8N    basis set group =>   3
Atom   9C    basis set group =>   1
Atom  10S    basis set group =>   4
Atom  11N    basis set group =>   3
Atom  12C    basis set group =>   1
Atom  13C    basis set group =>   1
Atom  14C    basis set group =>   1
Atom  15C    basis set group =>   1
Atom  16C    basis set group =>   1
Atom  17C    basis set group =>   1
Atom  18O    basis set group =>   2
Atom  19C    basis set group =>   1
Atom  20H    basis set group =>   5
Atom  21H    basis set group =>   5
Atom  22H    basis set group =>   5
Atom  23H    basis set group =>   5
Atom  24H    basis set group =>   5
Atom  25H    basis set group =>   5
Atom  26H    basis set group =>   5
Atom  27H    basis set group =>   5
Atom  28H    basis set group =>   5
Atom  29H    basis set group =>   5
Atom  30H    basis set group =>   5
Atom  31H    basis set group =>   5
Atom  32H    basis set group =>   5
Atom  33H    basis set group =>   5
Atom  34H    basis set group =>   5
Atom  35H    basis set group =>   5
---------------------------------
AUXILIARY/C BASIS SET INFORMATION
---------------------------------
There are 5 groups of distinct atoms

 Group   1 Type C   : 8s6p5d3f1g contracted to 8s6p5d3f1g pattern {11111111/111111/11111/111/1}
 Group   2 Type O   : 8s6p5d3f1g contracted to 8s6p5d3f1g pattern {11111111/111111/11111/111/1}
 Group   3 Type N   : 8s6p5d3f1g contracted to 8s6p5d3f1g pattern {11111111/111111/11111/111/1}
 Group   4 Type S   : 10s8p7d5f2g contracted to 10s8p7d5f2g pattern {1111111111/11111111/1111111/11111/11}
 Group   5 Type H   : 4s3p2d1f contracted to 4s3p2d1f pattern {1111/111/11/1}

Atom   0C    basis set group =>   1
Atom   1C    basis set group =>   1
Atom   2O    basis set group =>   2
Atom   3C    basis set group =>   1
Atom   4O    basis set group =>   2
Atom   5C    basis set group =>   1
Atom   6C    basis set group =>   1
Atom   7C    basis set group =>   1
Atom   8N    basis set group =>   3
Atom   9C    basis set group =>   1
Atom  10S    basis set group =>   4
Atom  11N    basis set group =>   3
Atom  12C    basis set group =>   1
Atom  13C    basis set group =>   1
Atom  14C    basis set group =>   1
Atom  15C    basis set group =>   1
Atom  16C    basis set group =>   1
Atom  17C    basis set group =>   1
Atom  18O    basis set group =>   2
Atom  19C    basis set group =>   1
Atom  20H    basis set group =>   5
Atom  21H    basis set group =>   5
Atom  22H    basis set group =>   5
Atom  23H    basis set group =>   5
Atom  24H    basis set group =>   5
Atom  25H    basis set group =>   5
Atom  26H    basis set group =>   5
Atom  27H    basis set group =>   5
Atom  28H    basis set group =>   5
Atom  29H    basis set group =>   5
Atom  30H    basis set group =>   5
Atom  31H    basis set group =>   5
Atom  32H    basis set group =>   5
Atom  33H    basis set group =>   5
Atom  34H    basis set group =>   5
Atom  35H    basis set group =>   5
------------------------------------------------------------------------------
                           ORCA GTO INTEGRAL CALCULATION
------------------------------------------------------------------------------
------------------------------------------------------------------------------
                   ___                                                        
                  /   \      - P O W E R E D   B Y -                         
                 /     \                                                     
                 |  |  |   _    _      __       _____    __    __             
                 |  |  |  | |  | |    /  \     |  _  \  |  |  /  |          
                  \  \/   | |  | |   /    \    | | | |  |  | /  /          
                 / \  \   | |__| |  /  /\  \   | |_| |  |  |/  /          
                |  |  |   |  __  | /  /__\  \  |    /   |      \           
                |  |  |   | |  | | |   __   |  |    \   |  |\   \          
                \     /   | |  | | |  |  |  |  | |\  \  |  | \   \       
                 \___/    |_|  |_| |__|  |__|  |_| \__\ |__|  \__/        
                                                                              
                      - O R C A' S   B I G   F R I E N D -                    
                                      &                                       
                       - I N T E G R A L  F E E D E R -                       
                                                                              
 v1 FN, 2020, v2 2021                                                         
------------------------------------------------------------------------------


Reading SHARK input file CONFS/Conf546.orca.SHARKINP.tmp ... ok
----------------------
SHARK INTEGRAL PACKAGE
----------------------

Number of atoms                             ...     36
Number of basis functions                   ...    828
Number of shells                            ...    298
Maximum angular momentum                    ...      3
Integral batch strategy                     ... SHARK/LIBINT Hybrid
RI-J (if used) integral strategy            ... SPLIT-RIJ (Revised 2003 algorithm where possible)
Printlevel                                  ...      1
Contraction scheme used                     ... SEGMENTED contraction
Coulomb Range Separation                    ... NOT USED
Exchange Range Separation                   ... NOT USED
Finite Nucleus Model                        ... NOT USED
Auxiliary Coulomb fitting basis             ... NOT available
Auxiliary J/K fitting basis                 ... NOT available
Auxiliary Correlation fitting basis         ... AVAILABLE
   # of basis functions in Aux-C            ...   2141
   # of shells in Aux-C                     ...    629
   Maximum angular momentum in Aux-C        ...      4
Auxiliary 'external' fitting basis          ... NOT available
Integral threshold                          ...     2.500000e-11
Primitive cut-off                           ...     2.500000e-12
Primitive pair pre-selection threshold      ...     2.500000e-12

Calculating pre-screening integrals         ... done (  0.5 sec) Dimension = 298
Organizing shell pair data                  ... done (  1.1 sec)
Shell pair information
Total number of shell pairs                 ...     44551
Shell pairs after pre-screening             ...     34939
Total number of primitive shell pairs       ...    234348
Primitive shell pairs kept                  ...     99863
          la=0 lb=0:   6930 shell pairs
          la=1 lb=0:   9670 shell pairs
          la=1 lb=1:   3430 shell pairs
          la=2 lb=0:   5587 shell pairs
          la=2 lb=1:   3848 shell pairs
          la=2 lb=2:   1107 shell pairs
          la=3 lb=0:   2019 shell pairs
          la=3 lb=1:   1402 shell pairs
          la=3 lb=2:    794 shell pairs
          la=3 lb=3:    152 shell pairs

Calculating one electron integrals          ... done (  0.3 sec)
Calculating RI/C V-Matrix + Cholesky decomp.... done (  1.1 sec)
Calculating Nuclear repulsion               ... done (  0.3 sec) ENN=   1738.395262701127 Eh

SHARK setup successfully completed in   3.9 seconds

Maximum memory used throughout the entire GTOINT-calculation: 521.6 MB
-------------------------------------------------------------------------------
                                 ORCA SCF
-------------------------------------------------------------------------------

------------
SCF SETTINGS
------------
Hamiltonian:
 Ab initio Hamiltonian  Method          .... Hartree-Fock(GTOs)


General Settings:
 Integral files         IntName         .... CONFS/Conf546.orca
 Hartree-Fock type      HFTyp           .... RHF
 Total Charge           Charge          ....    0
 Multiplicity           Mult            ....    1
 Number of Electrons    NEL             ....  154
 Basis Dimension        Dim             ....  828
 Nuclear Repulsion      ENuc            ....   1738.3952627011 Eh

Convergence Acceleration:
 DIIS                   CNVDIIS         .... on
   Start iteration      DIISMaxIt       ....    12
   Startup error        DIISStart       ....  0.200000
   # of expansion vecs  DIISMaxEq       ....     5
   Bias factor          DIISBfac        ....   1.050
   Max. coefficient     DIISMaxC        ....  10.000
 Trust-Rad. Augm. Hess. CNVTRAH         .... auto
   Auto Start mean grad. ratio tolernc. ....  1.125000
   Auto Start start iteration           ....    20
   Auto Start num. interpolation iter.  ....    10
   Max. Number of Micro iterations      ....    16
   Max. Number of Macro iterations      .... Maxiter - #DIIS iter
   Number of Davidson start vectors     ....     2
   Converg. threshold I  (grad. norm)   ....   1.000e-05
   Converg. threshold II (energy diff.) ....   1.000e-08
   Grad. Scal. Fac. for Micro threshold ....   0.100
   Minimum threshold for Micro iter.    ....   0.010
   NR start threshold (gradient norm)   ....   0.001
   Initial trust radius                 ....   0.400
   Minimum AH scaling param. (alpha)    ....   1.000
   Maximum AH scaling param. (alpha)    .... 1000.000
   Orbital update algorithm             .... Taylor
   White noise on init. David. guess    .... on
   Maximum white noise                  ....   0.010
   Quad. conv. algorithm                .... NR
 SOSCF                  CNVSOSCF        .... on
   Start iteration      SOSCFMaxIt      ....   150
   Startup grad/error   SOSCFStart      ....  0.003300
 Level Shifting         CNVShift        .... on
   Level shift para.    LevelShift      ....    0.2500
   Turn off err/grad.   ShiftErr        ....    0.0010
 Zerner damping         CNVZerner       .... off
 Static damping         CNVDamp         .... on
   Fraction old density DampFac         ....    0.7000
   Max. Damping (<1)    DampMax         ....    0.9800
   Min. Damping (>=0)   DampMin         ....    0.0000
   Turn off err/grad.   DampErr         ....    0.1000
 Fernandez-Rico         CNVRico         .... off

SCF Procedure:
 Maximum # iterations   MaxIter         ....   125
 SCF integral mode      SCFMode         .... Direct
   Integral package                     .... SHARK and LIBINT hybrid scheme
 Reset frequency        DirectResetFreq ....    20
 Integral Threshold     Thresh          ....  2.500e-11 Eh
 Primitive CutOff       TCut            ....  2.500e-12 Eh

Convergence Tolerance:
 Convergence Check Mode ConvCheckMode   .... Total+1el-Energy
 Convergence forced     ConvForced      .... 1
 Energy Change          TolE            ....  1.000e-08 Eh
 1-El. energy change                    ....  1.000e-05 Eh
 Orbital Gradient       TolG            ....  1.000e-05
 Orbital Rotation angle TolX            ....  1.000e-05
 DIIS Error             TolErr          ....  5.000e-07


Diagonalization of the overlap matrix:
Smallest eigenvalue                        ... 3.162e-05
Time for diagonalization                   ...    0.106 sec
Threshold for overlap eigenvalues          ... 1.000e-08
Number of eigenvalues below threshold      ... 0
Time for construction of square roots      ...    0.083 sec
Total time needed                          ...    0.190 sec

Time for model grid setup =    1.369 sec

------------------------------
INITIAL GUESS: MODEL POTENTIAL
------------------------------
Loading Hartree-Fock densities                     ... done
Calculating cut-offs                               ... done
Initializing the effective Hamiltonian             ... done
Setting up the integral package (SHARK)            ... done
Starting the Coulomb interaction                   ... done (   4.7 sec)
Reading the grid                                   ... done
Mapping shells                                     ... done
Starting the XC term evaluation                    ... done (   1.4 sec)
Transforming the Hamiltonian                       ... done (   0.1 sec)
Diagonalizing the Hamiltonian                      ... done (   0.1 sec)
Back transforming the eigenvectors                 ... done (   0.0 sec)
Now organizing SCF variables                       ... done
                      ------------------
                      INITIAL GUESS DONE (   8.6 sec)
                      ------------------
--------------
SCF ITERATIONS
--------------
ITER       Energy         Delta-E        Max-DP      RMS-DP      [F,P]     Damp
               ***  Starting incremental Fock matrix formation  ***
  0  -1269.9944230888   0.000000000000 0.04930906  0.00043712  0.3197728 0.7000
  1  -1270.2595508866  -0.265127797794 0.03607426  0.00035355  0.1911521 0.7000
                               ***Turning on DIIS***
  2  -1270.4248058802  -0.165254993587 0.02583263  0.00023595  0.1097479 0.7000
  3  -1272.5388900505  -2.114084170260 0.06313154  0.00050790  0.0829149 0.0000
  4  -1270.7357455568   1.803144493691 0.00915148  0.00010034  0.0067438 0.0000
  5  -1270.7893146428  -0.053569086030 0.00427481  0.00005207  0.0045587 0.0000
  6  -1270.7683553685   0.020959274277 0.00215531  0.00002680  0.0035992 0.0000
                      *** Initiating the SOSCF procedure ***
                           *** Shutting down DIIS ***
                      *** Re-Reading the Fockian *** 
                      *** Removing any level shift *** 
ITER      Energy       Delta-E        Grad      Rot      Max-DP    RMS-DP
  7  -1270.78431657  -0.0159612033  0.001022  0.001022  0.001118  0.000015
               *** Restarting incremental Fock matrix formation ***
  8  -1270.78432115  -0.0000045830  0.000546  0.001390  0.000567  0.000008
  9  -1270.78433525  -0.0000140935  0.000254  0.001603  0.000780  0.000010
 10  -1270.78434092  -0.0000056721  0.000058  0.000124  0.000194  0.000002
 11  -1270.78434148  -0.0000005560  0.000040  0.000072  0.000061  0.000001
 12  -1270.78434159  -0.0000001110  0.000010  0.000032  0.000025  0.000000
 13  -1270.78434160  -0.0000000164  0.000008  0.000035  0.000018  0.000000
                  ***Gradient check signals convergence***
              ***Rediagonalizing the Fockian in SOSCF/NRSCF***

               *****************************************************
               *                     SUCCESS                       *
               *           SCF CONVERGED AFTER  14 CYCLES          *
               *****************************************************


----------------
TOTAL SCF ENERGY
----------------

Total Energy       :        -1270.78434162 Eh          -34579.79994 eV

Components:
Nuclear Repulsion  :         1738.39526270 Eh           47304.13999 eV
Electronic Energy  :        -3009.17960432 Eh          -81883.93993 eV
One Electron Energy:        -5197.38812499 Eh         -141428.12095 eV
Two Electron Energy:         2188.20852068 Eh           59544.18102 eV

Virial components:
Potential Energy   :        -2539.76590769 Eh          -69110.54386 eV
Kinetic Energy     :         1268.98156607 Eh           34530.74392 eV
Virial Ratio       :            2.00142065


---------------
SCF CONVERGENCE
---------------

  Last Energy change         ...   -1.3813e-08  Tolerance :   1.0000e-08
  Last MAX-Density change    ...    2.9341e-06  Tolerance :   1.0000e-07
  Last RMS-Density change    ...    4.8305e-08  Tolerance :   5.0000e-09
  Last Orbital Gradient      ...    1.6313e-06  Tolerance :   1.0000e-05
  Last Orbital Rotation      ...    6.9949e-06  Tolerance :   1.0000e-05

             **** THE GBW FILE WAS UPDATED (CONFS/Conf546.orca.gbw) ****
             **** DENSITY CONFS/Conf546.orca.scfp WAS UPDATED ****
             **** ENERGY FILE WAS UPDATED (CONFS/Conf546.orca.en.tmp) ****
             **** THE GBW FILE WAS UPDATED (CONFS/Conf546.orca.gbw) ****
             **** DENSITY CONFS/Conf546.orca.scfp WAS UPDATED ****
----------------
ORBITAL ENERGIES
----------------

  NO   OCC          E(Eh)            E(eV) 
   0   2.0000     -91.890862     -2500.4775 
   1   2.0000     -20.605624      -560.7075 
   2   2.0000     -20.587730      -560.2206 
   3   2.0000     -20.548519      -559.1536 
   4   2.0000     -15.628772      -425.2805 
   5   2.0000     -15.611388      -424.8075 
   6   2.0000     -11.394594      -310.0627 
   7   2.0000     -11.385956      -309.8276 
   8   2.0000     -11.330980      -308.3316 
   9   2.0000     -11.323971      -308.1409 
  10   2.0000     -11.318443      -307.9905 
  11   2.0000     -11.299563      -307.4767 
  12   2.0000     -11.268636      -306.6352 
  13   2.0000     -11.265008      -306.5365 
  14   2.0000     -11.258988      -306.3726 
  15   2.0000     -11.255057      -306.2657 
  16   2.0000     -11.253449      -306.2219 
  17   2.0000     -11.247925      -306.0716 
  18   2.0000     -11.247598      -306.0627 
  19   2.0000     -11.231572      -305.6266 
  20   2.0000      -8.895901      -242.0698 
  21   2.0000      -6.577470      -178.9821 
  22   2.0000      -6.575470      -178.9276 
  23   2.0000      -6.574879      -178.9116 
  24   2.0000      -1.441146       -39.2156 
  25   2.0000      -1.425322       -38.7850 
  26   2.0000      -1.352558       -36.8050 
  27   2.0000      -1.341573       -36.5060 
  28   2.0000      -1.241409       -33.7805 
  29   2.0000      -1.166583       -31.7443 
  30   2.0000      -1.123236       -30.5648 
  31   2.0000      -1.050462       -28.5845 
  32   2.0000      -1.033383       -28.1198 
  33   2.0000      -1.025001       -27.8917 
  34   2.0000      -1.002794       -27.2874 
  35   2.0000      -0.988505       -26.8986 
  36   2.0000      -0.928463       -25.2647 
  37   2.0000      -0.897853       -24.4318 
  38   2.0000      -0.850946       -23.1554 
  39   2.0000      -0.847361       -23.0579 
  40   2.0000      -0.843092       -22.9417 
  41   2.0000      -0.827549       -22.5188 
  42   2.0000      -0.749347       -20.3908 
  43   2.0000      -0.739190       -20.1144 
  44   2.0000      -0.717808       -19.5326 
  45   2.0000      -0.704748       -19.1772 
  46   2.0000      -0.693217       -18.8634 
  47   2.0000      -0.678893       -18.4736 
  48   2.0000      -0.673891       -18.3375 
  49   2.0000      -0.661909       -18.0114 
  50   2.0000      -0.654783       -17.8176 
  51   2.0000      -0.650218       -17.6933 
  52   2.0000      -0.638818       -17.3831 
  53   2.0000      -0.624341       -16.9892 
  54   2.0000      -0.615454       -16.7473 
  55   2.0000      -0.607889       -16.5415 
  56   2.0000      -0.603307       -16.4168 
  57   2.0000      -0.584885       -15.9155 
  58   2.0000      -0.577050       -15.7023 
  59   2.0000      -0.567099       -15.4316 
  60   2.0000      -0.554922       -15.1002 
  61   2.0000      -0.547250       -14.8914 
  62   2.0000      -0.540473       -14.7070 
  63   2.0000      -0.535718       -14.5776 
  64   2.0000      -0.532101       -14.4792 
  65   2.0000      -0.518059       -14.0971 
  66   2.0000      -0.507841       -13.8191 
  67   2.0000      -0.497960       -13.5502 
  68   2.0000      -0.482572       -13.1315 
  69   2.0000      -0.469644       -12.7797 
  70   2.0000      -0.448445       -12.2028 
  71   2.0000      -0.446443       -12.1483 
  72   2.0000      -0.358658        -9.7596 
  73   2.0000      -0.356070        -9.6892 
  74   2.0000      -0.333889        -9.0856 
  75   2.0000      -0.329030        -8.9534 
  76   2.0000      -0.318012        -8.6535 
  77   0.0000       0.074829         2.0362 
  78   0.0000       0.100626         2.7382 
  79   0.0000       0.119385         3.2486 
  80   0.0000       0.125858         3.4248 
  81   0.0000       0.130840         3.5603 
  82   0.0000       0.137261         3.7351 
  83   0.0000       0.148683         4.0459 
  84   0.0000       0.151733         4.1289 
  85   0.0000       0.156574         4.2606 
  86   0.0000       0.173049         4.7089 
  87   0.0000       0.177703         4.8355 
  88   0.0000       0.181184         4.9303 
  89   0.0000       0.190045         5.1714 
  90   0.0000       0.198596         5.4041 
  91   0.0000       0.208377         5.6702 
  92   0.0000       0.214374         5.8334 
  93   0.0000       0.220894         6.0108 
  94   0.0000       0.229365         6.2413 
  95   0.0000       0.235192         6.3999 
  96   0.0000       0.243632         6.6296 
  97   0.0000       0.257582         7.0092 
  98   0.0000       0.269433         7.3317 
  99   0.0000       0.273433         7.4405 
 100   0.0000       0.297916         8.1067 
 101   0.0000       0.300854         8.1867 
 102   0.0000       0.302251         8.2247 
 103   0.0000       0.311431         8.4745 
 104   0.0000       0.323402         8.8002 
 105   0.0000       0.330445         8.9919 
 106   0.0000       0.340742         9.2721 
 107   0.0000       0.351828         9.5737 
 108   0.0000       0.359839         9.7917 
 109   0.0000       0.368116        10.0169 
 110   0.0000       0.370883        10.0923 
 111   0.0000       0.372668        10.1408 
 112   0.0000       0.383563        10.4373 
 113   0.0000       0.387542        10.5456 
 114   0.0000       0.405364        11.0305 
 115   0.0000       0.409777        11.1506 
 116   0.0000       0.414910        11.2903 
 117   0.0000       0.426839        11.6149 
 118   0.0000       0.431041        11.7292 
 119   0.0000       0.436094        11.8667 
 120   0.0000       0.437942        11.9170 
 121   0.0000       0.450167        12.2497 
 122   0.0000       0.455736        12.4012 
 123   0.0000       0.459544        12.5048 
 124   0.0000       0.461269        12.5518 
 125   0.0000       0.466750        12.7009 
 126   0.0000       0.470349        12.7988 
 127   0.0000       0.479887        13.0584 
 128   0.0000       0.488681        13.2977 
 129   0.0000       0.496411        13.5080 
 130   0.0000       0.504890        13.7387 
 131   0.0000       0.507818        13.8184 
 132   0.0000       0.509764        13.8714 
 133   0.0000       0.518685        14.1141 
 134   0.0000       0.522639        14.2217 
 135   0.0000       0.524621        14.2757 
 136   0.0000       0.538464        14.6523 
 137   0.0000       0.539453        14.6793 
 138   0.0000       0.544380        14.8133 
 139   0.0000       0.553744        15.0681 
 140   0.0000       0.554934        15.1005 
 141   0.0000       0.559796        15.2328 
 142   0.0000       0.564327        15.3561 
 143   0.0000       0.565600        15.3908 
 144   0.0000       0.568717        15.4756 
 145   0.0000       0.577953        15.7269 
 146   0.0000       0.588163        16.0047 
 147   0.0000       0.593966        16.1626 
 148   0.0000       0.595720        16.2104 
 149   0.0000       0.602391        16.3919 
 150   0.0000       0.603572        16.4240 
 151   0.0000       0.604907        16.4603 
 152   0.0000       0.611202        16.6317 
 153   0.0000       0.614379        16.7181 
 154   0.0000       0.619575        16.8595 
 155   0.0000       0.626269        17.0416 
 156   0.0000       0.628981        17.1154 
 157   0.0000       0.637067        17.3355 
 158   0.0000       0.640547        17.4302 
 159   0.0000       0.646729        17.5984 
 160   0.0000       0.651677        17.7330 
 161   0.0000       0.661229        17.9929 
 162   0.0000       0.665856        18.1189 
 163   0.0000       0.667276        18.1575 
 164   0.0000       0.670759        18.2523 
 165   0.0000       0.677070        18.4240 
 166   0.0000       0.687716        18.7137 
 167   0.0000       0.695000        18.9119 
 168   0.0000       0.697329        18.9753 
 169   0.0000       0.701495        19.0886 
 170   0.0000       0.704358        19.1666 
 171   0.0000       0.716418        19.4947 
 172   0.0000       0.722508        19.6604 
 173   0.0000       0.722826        19.6691 
 174   0.0000       0.727132        19.7863 
 175   0.0000       0.733187        19.9510 
 176   0.0000       0.743274        20.2255 
 177   0.0000       0.746837        20.3225 
 178   0.0000       0.755241        20.5512 
 179   0.0000       0.763777        20.7834 
 180   0.0000       0.777478        21.1563 
 181   0.0000       0.784136        21.3374 
 182   0.0000       0.788213        21.4484 
 183   0.0000       0.795436        21.6449 
 184   0.0000       0.801690        21.8151 
 185   0.0000       0.815725        22.1970 
 186   0.0000       0.821979        22.3672 
 187   0.0000       0.833041        22.6682 
 188   0.0000       0.835869        22.7451 
 189   0.0000       0.846055        23.0223 
 190   0.0000       0.849876        23.1263 
 191   0.0000       0.854019        23.2390 
 192   0.0000       0.862770        23.4772 
 193   0.0000       0.865850        23.5610 
 194   0.0000       0.877276        23.8719 
 195   0.0000       0.881731        23.9931 
 196   0.0000       0.892653        24.2903 
 197   0.0000       0.895434        24.3660 
 198   0.0000       0.899961        24.4892 
 199   0.0000       0.912100        24.8195 
 200   0.0000       0.916069        24.9275 
 201   0.0000       0.924180        25.1482 
 202   0.0000       0.928707        25.2714 
 203   0.0000       0.936316        25.4785 
 204   0.0000       0.943438        25.6723 
 205   0.0000       0.951336        25.8872 
 206   0.0000       0.956871        26.0378 
 207   0.0000       0.968102        26.3434 
 208   0.0000       0.971707        26.4415 
 209   0.0000       0.981195        26.6997 
 210   0.0000       0.985634        26.8205 
 211   0.0000       0.991732        26.9864 
 212   0.0000       0.998053        27.1584 
 213   0.0000       1.004035        27.3212 
 214   0.0000       1.012468        27.5507 
 215   0.0000       1.017976        27.7005 
 216   0.0000       1.021926        27.8080 
 217   0.0000       1.030531        28.0422 
 218   0.0000       1.041569        28.3425 
 219   0.0000       1.045099        28.4386 
 220   0.0000       1.056451        28.7475 
 221   0.0000       1.060865        28.8676 
 222   0.0000       1.073091        29.2003 
 223   0.0000       1.082868        29.4663 
 224   0.0000       1.086857        29.5749 
 225   0.0000       1.100899        29.9570 
 226   0.0000       1.101405        29.9708 
 227   0.0000       1.117619        30.4120 
 228   0.0000       1.130447        30.7610 
 229   0.0000       1.135274        30.8924 
 230   0.0000       1.140165        31.0255 
 231   0.0000       1.143778        31.1238 
 232   0.0000       1.147738        31.2315 
 233   0.0000       1.156585        31.4723 
 234   0.0000       1.159033        31.5389 
 235   0.0000       1.178509        32.0688 
 236   0.0000       1.182563        32.1792 
 237   0.0000       1.187792        32.3215 
 238   0.0000       1.189331        32.3633 
 239   0.0000       1.196649        32.5625 
 240   0.0000       1.199348        32.6359 
 241   0.0000       1.202595        32.7243 
 242   0.0000       1.212013        32.9806 
 243   0.0000       1.225599        33.3502 
 244   0.0000       1.226484        33.3743 
 245   0.0000       1.239820        33.7372 
 246   0.0000       1.242891        33.8208 
 247   0.0000       1.255790        34.1718 
 248   0.0000       1.257025        34.2054 
 249   0.0000       1.262645        34.3583 
 250   0.0000       1.270713        34.5779 
 251   0.0000       1.275091        34.6970 
 252   0.0000       1.294586        35.2275 
 253   0.0000       1.298224        35.3265 
 254   0.0000       1.304751        35.5041 
 255   0.0000       1.320410        35.9302 
 256   0.0000       1.325256        36.0620 
 257   0.0000       1.330343        36.2005 
 258   0.0000       1.340921        36.4883 
 259   0.0000       1.346417        36.6379 
 260   0.0000       1.355630        36.8886 
 261   0.0000       1.359587        36.9962 
 262   0.0000       1.368337        37.2343 
 263   0.0000       1.384152        37.6647 
 264   0.0000       1.387896        37.7666 
 265   0.0000       1.391365        37.8610 
 266   0.0000       1.397593        38.0304 
 267   0.0000       1.415810        38.5261 
 268   0.0000       1.420878        38.6641 
 269   0.0000       1.424920        38.7740 
 270   0.0000       1.434766        39.0420 
 271   0.0000       1.443994        39.2931 
 272   0.0000       1.451672        39.5020 
 273   0.0000       1.453897        39.5626 
 274   0.0000       1.457965        39.6732 
 275   0.0000       1.467554        39.9342 
 276   0.0000       1.470669        40.0189 
 277   0.0000       1.475388        40.1473 
 278   0.0000       1.484962        40.4079 
 279   0.0000       1.487953        40.4893 
 280   0.0000       1.504266        40.9332 
 281   0.0000       1.505774        40.9742 
 282   0.0000       1.510889        41.1134 
 283   0.0000       1.514761        41.2188 
 284   0.0000       1.525064        41.4991 
 285   0.0000       1.530571        41.6490 
 286   0.0000       1.542618        41.9768 
 287   0.0000       1.546992        42.0958 
 288   0.0000       1.554019        42.2870 
 289   0.0000       1.560193        42.4550 
 290   0.0000       1.562324        42.5130 
 291   0.0000       1.575266        42.8652 
 292   0.0000       1.580549        43.0089 
 293   0.0000       1.585635        43.1473 
 294   0.0000       1.595532        43.4166 
 295   0.0000       1.605985        43.7011 
 296   0.0000       1.610310        43.8188 
 297   0.0000       1.625539        44.2332 
 298   0.0000       1.631385        44.3922 
 299   0.0000       1.633251        44.4430 
 300   0.0000       1.646085        44.7922 
 301   0.0000       1.652795        44.9748 
 302   0.0000       1.660315        45.1795 
 303   0.0000       1.663191        45.2577 
 304   0.0000       1.677476        45.6464 
 305   0.0000       1.682178        45.7744 
 306   0.0000       1.684698        45.8430 
 307   0.0000       1.705006        46.3956 
 308   0.0000       1.711133        46.5623 
 309   0.0000       1.722516        46.8720 
 310   0.0000       1.730907        47.1004 
 311   0.0000       1.738462        47.3059 
 312   0.0000       1.747842        47.5612 
 313   0.0000       1.751949        47.6729 
 314   0.0000       1.762207        47.9521 
 315   0.0000       1.782957        48.5167 
 316   0.0000       1.788909        48.6787 
 317   0.0000       1.797899        48.9233 
 318   0.0000       1.803534        49.0766 
 319   0.0000       1.806398        49.1546 
 320   0.0000       1.822243        49.5857 
 321   0.0000       1.835397        49.9437 
 322   0.0000       1.841781        50.1174 
 323   0.0000       1.847536        50.2740 
 324   0.0000       1.861422        50.6519 
 325   0.0000       1.886387        51.3312 
 326   0.0000       1.891841        51.4796 
 327   0.0000       1.901370        51.7389 
 328   0.0000       1.911680        52.0195 
 329   0.0000       1.921205        52.2787 
 330   0.0000       1.923665        52.3456 
 331   0.0000       1.942344        52.8539 
 332   0.0000       1.946056        52.9549 
 333   0.0000       1.953264        53.1510 
 334   0.0000       1.972604        53.6773 
 335   0.0000       1.980919        53.9035 
 336   0.0000       1.992411        54.2163 
 337   0.0000       1.995146        54.2907 
 338   0.0000       2.011101        54.7248 
 339   0.0000       2.022647        55.0390 
 340   0.0000       2.027234        55.1638 
 341   0.0000       2.043842        55.6158 
 342   0.0000       2.057330        55.9828 
 343   0.0000       2.065729        56.2113 
 344   0.0000       2.088736        56.8374 
 345   0.0000       2.113981        57.5243 
 346   0.0000       2.122684        57.7612 
 347   0.0000       2.139813        58.2273 
 348   0.0000       2.149802        58.4991 
 349   0.0000       2.162138        58.8348 
 350   0.0000       2.174083        59.1598 
 351   0.0000       2.204508        59.9877 
 352   0.0000       2.215499        60.2868 
 353   0.0000       2.229845        60.6772 
 354   0.0000       2.235450        60.8297 
 355   0.0000       2.243164        61.0396 
 356   0.0000       2.281018        62.0696 
 357   0.0000       2.285755        62.1985 
 358   0.0000       2.297654        62.5223 
 359   0.0000       2.310127        62.8617 
 360   0.0000       2.326992        63.3207 
 361   0.0000       2.332553        63.4720 
 362   0.0000       2.343821        63.7786 
 363   0.0000       2.355710        64.1021 
 364   0.0000       2.366599        64.3984 
 365   0.0000       2.375792        64.6486 
 366   0.0000       2.396284        65.2062 
 367   0.0000       2.403319        65.3976 
 368   0.0000       2.408196        65.5303 
 369   0.0000       2.438881        66.3653 
 370   0.0000       2.449115        66.6438 
 371   0.0000       2.459339        66.9220 
 372   0.0000       2.471733        67.2593 
 373   0.0000       2.478082        67.4320 
 374   0.0000       2.493038        67.8390 
 375   0.0000       2.518439        68.5302 
 376   0.0000       2.527650        68.7809 
 377   0.0000       2.540125        69.1203 
 378   0.0000       2.553257        69.4776 
 379   0.0000       2.570873        69.9570 
 380   0.0000       2.576163        70.1010 
 381   0.0000       2.581415        70.2439 
 382   0.0000       2.594339        70.5956 
 383   0.0000       2.613652        71.1211 
 384   0.0000       2.624773        71.4237 
 385   0.0000       2.628348        71.5210 
 386   0.0000       2.640115        71.8412 
 387   0.0000       2.656831        72.2960 
 388   0.0000       2.674039        72.7643 
 389   0.0000       2.675914        72.8153 
 390   0.0000       2.693976        73.3068 
 391   0.0000       2.700199        73.4761 
 392   0.0000       2.721177        74.0470 
 393   0.0000       2.726817        74.2005 
 394   0.0000       2.731145        74.3182 
 395   0.0000       2.734710        74.4152 
 396   0.0000       2.750147        74.8353 
 397   0.0000       2.765124        75.2429 
 398   0.0000       2.772438        75.4419 
 399   0.0000       2.778086        75.5956 
 400   0.0000       2.796996        76.1101 
 401   0.0000       2.804470        76.3135 
 402   0.0000       2.806869        76.3788 
 403   0.0000       2.819141        76.7127 
 404   0.0000       2.832486        77.0758 
 405   0.0000       2.841871        77.3312 
 406   0.0000       2.842461        77.3473 
 407   0.0000       2.854089        77.6637 
 408   0.0000       2.861477        77.8648 
 409   0.0000       2.872491        78.1644 
 410   0.0000       2.879929        78.3669 
 411   0.0000       2.889921        78.6388 
 412   0.0000       2.906990        79.1032 
 413   0.0000       2.911992        79.2393 
 414   0.0000       2.916923        79.3735 
 415   0.0000       2.927582        79.6636 
 416   0.0000       2.931727        79.7764 
 417   0.0000       2.939852        79.9974 
 418   0.0000       2.956483        80.4500 
 419   0.0000       2.963604        80.6438 
 420   0.0000       2.976430        80.9928 
 421   0.0000       2.985264        81.2332 
 422   0.0000       2.990003        81.3621 
 423   0.0000       2.995819        81.5204 
 424   0.0000       3.009520        81.8932 
 425   0.0000       3.015568        82.0578 
 426   0.0000       3.018044        82.1251 
 427   0.0000       3.024335        82.2963 
 428   0.0000       3.034847        82.5824 
 429   0.0000       3.041553        82.7649 
 430   0.0000       3.049228        82.9737 
 431   0.0000       3.061779        83.3152 
 432   0.0000       3.068166        83.4891 
 433   0.0000       3.073925        83.6458 
 434   0.0000       3.079765        83.8047 
 435   0.0000       3.086611        83.9910 
 436   0.0000       3.091914        84.1353 
 437   0.0000       3.095108        84.2222 
 438   0.0000       3.108971        84.5994 
 439   0.0000       3.110874        84.6512 
 440   0.0000       3.118258        84.8521 
 441   0.0000       3.124578        85.0241 
 442   0.0000       3.138705        85.4085 
 443   0.0000       3.143628        85.5425 
 444   0.0000       3.149206        85.6943 
 445   0.0000       3.155341        85.8612 
 446   0.0000       3.166228        86.1574 
 447   0.0000       3.180667        86.5504 
 448   0.0000       3.187599        86.7390 
 449   0.0000       3.195086        86.9427 
 450   0.0000       3.203244        87.1647 
 451   0.0000       3.207382        87.2773 
 452   0.0000       3.210003        87.3486 
 453   0.0000       3.222224        87.6812 
 454   0.0000       3.229189        87.8707 
 455   0.0000       3.237585        88.0992 
 456   0.0000       3.243298        88.2546 
 457   0.0000       3.243821        88.2689 
 458   0.0000       3.249353        88.4194 
 459   0.0000       3.264692        88.8368 
 460   0.0000       3.279303        89.2344 
 461   0.0000       3.281640        89.2980 
 462   0.0000       3.290277        89.5330 
 463   0.0000       3.298663        89.7612 
 464   0.0000       3.304909        89.9311 
 465   0.0000       3.321242        90.3756 
 466   0.0000       3.322869        90.4199 
 467   0.0000       3.333801        90.7173 
 468   0.0000       3.337555        90.8195 
 469   0.0000       3.339861        90.8822 
 470   0.0000       3.345120        91.0253 
 471   0.0000       3.351862        91.2088 
 472   0.0000       3.354982        91.2937 
 473   0.0000       3.358810        91.3979 
 474   0.0000       3.363340        91.5211 
 475   0.0000       3.369500        91.6888 
 476   0.0000       3.379693        91.9661 
 477   0.0000       3.380830        91.9971 
 478   0.0000       3.386635        92.1550 
 479   0.0000       3.394305        92.3637 
 480   0.0000       3.403128        92.6038 
 481   0.0000       3.406836        92.7047 
 482   0.0000       3.411266        92.8253 
 483   0.0000       3.416911        92.9789 
 484   0.0000       3.420997        93.0901 
 485   0.0000       3.430395        93.3458 
 486   0.0000       3.436663        93.5164 
 487   0.0000       3.437626        93.5426 
 488   0.0000       3.442400        93.6725 
 489   0.0000       3.444956        93.7420 
 490   0.0000       3.451603        93.9229 
 491   0.0000       3.458333        94.1060 
 492   0.0000       3.475694        94.5784 
 493   0.0000       3.479384        94.6788 
 494   0.0000       3.481718        94.7424 
 495   0.0000       3.489449        94.9527 
 496   0.0000       3.499160        95.2170 
 497   0.0000       3.507003        95.4304 
 498   0.0000       3.510332        95.5210 
 499   0.0000       3.512527        95.5807 
 500   0.0000       3.530533        96.0707 
 501   0.0000       3.536286        96.2272 
 502   0.0000       3.541144        96.3594 
 503   0.0000       3.544600        96.4535 
 504   0.0000       3.551559        96.6428 
 505   0.0000       3.556430        96.7754 
 506   0.0000       3.561457        96.9122 
 507   0.0000       3.574882        97.2775 
 508   0.0000       3.580756        97.4373 
 509   0.0000       3.595630        97.8421 
 510   0.0000       3.603288        98.0504 
 511   0.0000       3.608285        98.1864 
 512   0.0000       3.618742        98.4710 
 513   0.0000       3.624810        98.6361 
 514   0.0000       3.626725        98.6882 
 515   0.0000       3.630436        98.7892 
 516   0.0000       3.635803        98.9352 
 517   0.0000       3.641665        99.0948 
 518   0.0000       3.649544        99.3091 
 519   0.0000       3.652894        99.4003 
 520   0.0000       3.658475        99.5522 
 521   0.0000       3.666688        99.7757 
 522   0.0000       3.672492        99.9336 
 523   0.0000       3.676730       100.0489 
 524   0.0000       3.683934       100.2449 
 525   0.0000       3.693000       100.4916 
 526   0.0000       3.698416       100.6390 
 527   0.0000       3.701133       100.7129 
 528   0.0000       3.709679       100.9455 
 529   0.0000       3.713242       101.0425 
 530   0.0000       3.729249       101.4780 
 531   0.0000       3.738957       101.7422 
 532   0.0000       3.745332       101.9157 
 533   0.0000       3.750330       102.0517 
 534   0.0000       3.757380       102.2435 
 535   0.0000       3.759140       102.2914 
 536   0.0000       3.759802       102.3094 
 537   0.0000       3.766989       102.5050 
 538   0.0000       3.777997       102.8045 
 539   0.0000       3.791309       103.1668 
 540   0.0000       3.794187       103.2451 
 541   0.0000       3.801190       103.4356 
 542   0.0000       3.806605       103.5830 
 543   0.0000       3.807807       103.6157 
 544   0.0000       3.813520       103.7712 
 545   0.0000       3.828690       104.1839 
 546   0.0000       3.836536       104.3975 
 547   0.0000       3.839463       104.4771 
 548   0.0000       3.845590       104.6438 
 549   0.0000       3.859616       105.0255 
 550   0.0000       3.867015       105.2268 
 551   0.0000       3.872761       105.3832 
 552   0.0000       3.882081       105.6368 
 553   0.0000       3.884738       105.7091 
 554   0.0000       3.896454       106.0279 
 555   0.0000       3.905292       106.2684 
 556   0.0000       3.913754       106.4987 
 557   0.0000       3.926457       106.8443 
 558   0.0000       3.932334       107.0043 
 559   0.0000       3.936430       107.1157 
 560   0.0000       3.945848       107.3720 
 561   0.0000       3.955820       107.6433 
 562   0.0000       3.969238       108.0085 
 563   0.0000       3.980596       108.3175 
 564   0.0000       3.987500       108.5054 
 565   0.0000       3.992324       108.6366 
 566   0.0000       3.997877       108.7878 
 567   0.0000       4.001578       108.8885 
 568   0.0000       4.007576       109.0517 
 569   0.0000       4.022470       109.4570 
 570   0.0000       4.035503       109.8116 
 571   0.0000       4.042769       110.0093 
 572   0.0000       4.061449       110.5176 
 573   0.0000       4.063622       110.5768 
 574   0.0000       4.064942       110.6127 
 575   0.0000       4.074903       110.8837 
 576   0.0000       4.080033       111.0233 
 577   0.0000       4.087754       111.2334 
 578   0.0000       4.095451       111.4429 
 579   0.0000       4.111820       111.8883 
 580   0.0000       4.118828       112.0790 
 581   0.0000       4.124552       112.2348 
 582   0.0000       4.137925       112.5987 
 583   0.0000       4.143248       112.7435 
 584   0.0000       4.154392       113.0468 
 585   0.0000       4.161904       113.2512 
 586   0.0000       4.162938       113.2793 
 587   0.0000       4.169975       113.4708 
 588   0.0000       4.182425       113.8096 
 589   0.0000       4.183470       113.8380 
 590   0.0000       4.191114       114.0460 
 591   0.0000       4.194919       114.1495 
 592   0.0000       4.198346       114.2428 
 593   0.0000       4.208807       114.5275 
 594   0.0000       4.211011       114.5874 
 595   0.0000       4.221904       114.8839 
 596   0.0000       4.224379       114.9512 
 597   0.0000       4.236550       115.2824 
 598   0.0000       4.244678       115.5036 
 599   0.0000       4.249913       115.6460 
 600   0.0000       4.258772       115.8871 
 601   0.0000       4.266464       116.0964 
 602   0.0000       4.274907       116.3261 
 603   0.0000       4.288217       116.6883 
 604   0.0000       4.298298       116.9626 
 605   0.0000       4.299986       117.0086 
 606   0.0000       4.312969       117.3618 
 607   0.0000       4.317913       117.4964 
 608   0.0000       4.328226       117.7770 
 609   0.0000       4.332709       117.8990 
 610   0.0000       4.335614       117.9781 
 611   0.0000       4.341144       118.1285 
 612   0.0000       4.347273       118.2953 
 613   0.0000       4.370011       118.9140 
 614   0.0000       4.379589       119.1747 
 615   0.0000       4.383011       119.2678 
 616   0.0000       4.392435       119.5242 
 617   0.0000       4.399054       119.7043 
 618   0.0000       4.418619       120.2367 
 619   0.0000       4.429417       120.5306 
 620   0.0000       4.436880       120.7337 
 621   0.0000       4.441907       120.8704 
 622   0.0000       4.446746       121.0021 
 623   0.0000       4.457100       121.2839 
 624   0.0000       4.467147       121.5572 
 625   0.0000       4.472802       121.7111 
 626   0.0000       4.473405       121.7275 
 627   0.0000       4.483948       122.0144 
 628   0.0000       4.490881       122.2031 
 629   0.0000       4.499620       122.4409 
 630   0.0000       4.510236       122.7298 
 631   0.0000       4.515800       122.8812 
 632   0.0000       4.528720       123.2327 
 633   0.0000       4.541386       123.5774 
 634   0.0000       4.547055       123.7317 
 635   0.0000       4.552835       123.8889 
 636   0.0000       4.560953       124.1098 
 637   0.0000       4.572123       124.4138 
 638   0.0000       4.575033       124.4930 
 639   0.0000       4.587736       124.8386 
 640   0.0000       4.591717       124.9470 
 641   0.0000       4.601456       125.2120 
 642   0.0000       4.605394       125.3191 
 643   0.0000       4.616657       125.6256 
 644   0.0000       4.626044       125.8811 
 645   0.0000       4.634928       126.1228 
 646   0.0000       4.638091       126.2089 
 647   0.0000       4.639853       126.2568 
 648   0.0000       4.646142       126.4280 
 649   0.0000       4.655211       126.6747 
 650   0.0000       4.657725       126.7432 
 651   0.0000       4.667125       126.9989 
 652   0.0000       4.684184       127.4631 
 653   0.0000       4.687309       127.5482 
 654   0.0000       4.696465       127.7973 
 655   0.0000       4.710173       128.1703 
 656   0.0000       4.718446       128.3954 
 657   0.0000       4.735616       128.8627 
 658   0.0000       4.741070       129.0111 
 659   0.0000       4.760385       129.5367 
 660   0.0000       4.766381       129.6998 
 661   0.0000       4.780643       130.0879 
 662   0.0000       4.790573       130.3581 
 663   0.0000       4.802576       130.6847 
 664   0.0000       4.815653       131.0406 
 665   0.0000       4.826756       131.3427 
 666   0.0000       4.846136       131.8701 
 667   0.0000       4.869359       132.5020 
 668   0.0000       4.877986       132.7367 
 669   0.0000       4.892541       133.1328 
 670   0.0000       4.920319       133.8887 
 671   0.0000       4.933647       134.2514 
 672   0.0000       4.948924       134.6671 
 673   0.0000       4.958368       134.9241 
 674   0.0000       4.978212       135.4640 
 675   0.0000       4.996277       135.9556 
 676   0.0000       5.015172       136.4698 
 677   0.0000       5.029169       136.8507 
 678   0.0000       5.030984       136.9000 
 679   0.0000       5.036299       137.0447 
 680   0.0000       5.048735       137.3831 
 681   0.0000       5.064143       137.8023 
 682   0.0000       5.076787       138.1464 
 683   0.0000       5.079218       138.2126 
 684   0.0000       5.104781       138.9081 
 685   0.0000       5.128503       139.5537 
 686   0.0000       5.132416       139.6601 
 687   0.0000       5.142636       139.9382 
 688   0.0000       5.145945       140.0283 
 689   0.0000       5.157245       140.3358 
 690   0.0000       5.168044       140.6296 
 691   0.0000       5.179237       140.9342 
 692   0.0000       5.194288       141.3438 
 693   0.0000       5.200217       141.5051 
 694   0.0000       5.208250       141.7237 
 695   0.0000       5.218137       141.9927 
 696   0.0000       5.220307       142.0518 
 697   0.0000       5.225778       142.2006 
 698   0.0000       5.238330       142.5422 
 699   0.0000       5.242792       142.6636 
 700   0.0000       5.271010       143.4315 
 701   0.0000       5.280410       143.6873 
 702   0.0000       5.296302       144.1197 
 703   0.0000       5.305893       144.3807 
 704   0.0000       5.322913       144.8438 
 705   0.0000       5.334248       145.1523 
 706   0.0000       5.342585       145.3791 
 707   0.0000       5.355770       145.7379 
 708   0.0000       5.364812       145.9839 
 709   0.0000       5.379684       146.3887 
 710   0.0000       5.389977       146.6687 
 711   0.0000       5.411355       147.2505 
 712   0.0000       5.419924       147.4836 
 713   0.0000       5.453101       148.3864 
 714   0.0000       5.457507       148.5063 
 715   0.0000       5.479578       149.1069 
 716   0.0000       5.483160       149.2044 
 717   0.0000       5.503007       149.7444 
 718   0.0000       5.518335       150.1615 
 719   0.0000       5.524919       150.3407 
 720   0.0000       5.529065       150.4535 
 721   0.0000       5.545943       150.9128 
 722   0.0000       5.560537       151.3099 
 723   0.0000       5.575797       151.7251 
 724   0.0000       5.582756       151.9145 
 725   0.0000       5.607155       152.5784 
 726   0.0000       5.612937       152.7358 
 727   0.0000       5.623519       153.0237 
 728   0.0000       5.644723       153.6007 
 729   0.0000       5.650633       153.7615 
 730   0.0000       5.653607       153.8425 
 731   0.0000       5.666105       154.1826 
 732   0.0000       5.677999       154.5062 
 733   0.0000       5.698676       155.0689 
 734   0.0000       5.708865       155.3461 
 735   0.0000       5.717775       155.5886 
 736   0.0000       5.724440       155.7699 
 737   0.0000       5.734320       156.0388 
 738   0.0000       5.745192       156.3346 
 739   0.0000       5.754491       156.5877 
 740   0.0000       5.766364       156.9107 
 741   0.0000       5.768363       156.9651 
 742   0.0000       5.799856       157.8221 
 743   0.0000       5.811346       158.1348 
 744   0.0000       5.822547       158.4396 
 745   0.0000       5.851814       159.2359 
 746   0.0000       5.861159       159.4902 
 747   0.0000       5.867885       159.6733 
 748   0.0000       5.885825       160.1615 
 749   0.0000       5.906078       160.7126 
 750   0.0000       5.936102       161.5295 
 751   0.0000       5.963729       162.2813 
 752   0.0000       5.984409       162.8440 
 753   0.0000       6.004313       163.3857 
 754   0.0000       6.016550       163.7186 
 755   0.0000       6.030713       164.1040 
 756   0.0000       6.045764       164.5136 
 757   0.0000       6.062507       164.9692 
 758   0.0000       6.065126       165.0405 
 759   0.0000       6.100720       166.0090 
 760   0.0000       6.115287       166.4054 
 761   0.0000       6.161440       167.6613 
 762   0.0000       6.213406       169.0754 
 763   0.0000       6.244927       169.9331 
 764   0.0000       6.265585       170.4952 
 765   0.0000       6.286281       171.0584 
 766   0.0000       6.328260       172.2007 
 767   0.0000       6.335348       172.3936 
 768   0.0000       6.351197       172.8249 
 769   0.0000       6.365933       173.2258 
 770   0.0000       6.387223       173.8052 
 771   0.0000       6.391938       173.9335 
 772   0.0000       6.406139       174.3199 
 773   0.0000       6.445525       175.3916 
 774   0.0000       6.456540       175.6914 
 775   0.0000       6.494032       176.7116 
 776   0.0000       6.517130       177.3401 
 777   0.0000       6.547861       178.1763 
 778   0.0000       6.573640       178.8778 
 779   0.0000       6.602774       179.6706 
 780   0.0000       6.630004       180.4116 
 781   0.0000       6.665391       181.3745 
 782   0.0000       6.734764       183.2622 
 783   0.0000       6.783423       184.5863 
 784   0.0000       6.794189       184.8793 
 785   0.0000       6.881156       187.2458 
 786   0.0000       6.900255       187.7655 
 787   0.0000       6.918718       188.2679 
 788   0.0000       6.962286       189.4534 
 789   0.0000       6.999036       190.4535 
 790   0.0000       7.044400       191.6879 
 791   0.0000       7.066409       192.2868 
 792   0.0000       7.075674       192.5389 
 793   0.0000       7.127915       193.9604 
 794   0.0000       7.210168       196.1987 
 795   0.0000       7.246208       197.1793 
 796   0.0000       7.251002       197.3098 
 797   0.0000       7.277754       198.0378 
 798   0.0000       7.337424       199.6614 
 799   0.0000       7.375829       200.7065 
 800   0.0000       7.384233       200.9352 
 801   0.0000       7.524716       204.7579 
 802   0.0000       7.573558       206.0870 
 803   0.0000       7.581444       206.3016 
 804   0.0000       7.641233       207.9285 
 805   0.0000       7.768874       211.4018 
 806   0.0000       7.816295       212.6922 
 807   0.0000       7.928589       215.7479 
 808   0.0000       8.020849       218.2584 
 809   0.0000       9.532837       259.4017 
 810   0.0000       9.714495       264.3449 
 811   0.0000      10.753933       292.6294 
 812   0.0000      11.207841       304.9809 
 813   0.0000      11.937262       324.8294 
 814   0.0000      12.740502       346.6867 
 815   0.0000      12.881438       350.5218 
 816   0.0000      13.074841       355.7845 
 817   0.0000      13.164831       358.2333 
 818   0.0000      13.236793       360.1915 
 819   0.0000      13.407736       364.8431 
 820   0.0000      13.506684       367.5356 
 821   0.0000      13.671545       372.0217 
 822   0.0000      13.987504       380.6193 
 823   0.0000      14.012459       381.2984 
 824   0.0000      14.084996       383.2722 
 825   0.0000      14.498019       394.5111 
 826   0.0000      14.527201       395.3052 
 827   0.0000      16.016288       435.8254 

                    ********************************
                    * MULLIKEN POPULATION ANALYSIS *
                    ********************************

-----------------------
MULLIKEN ATOMIC CHARGES
-----------------------
   0 C :   -0.346237
   1 C :    0.037417
   2 O :   -0.341167
   3 C :    0.417102
   4 O :   -0.370227
   5 C :   -0.255860
   6 C :    0.160822
   7 C :   -0.282183
   8 N :   -0.127653
   9 C :    0.203748
  10 S :   -0.435960
  11 N :   -0.191428
  12 C :    0.046947
  13 C :    0.044120
  14 C :   -0.177762
  15 C :   -0.131690
  16 C :   -0.273550
  17 C :    0.319190
  18 O :   -0.356157
  19 C :   -0.291204
  20 H :    0.109105
  21 H :    0.119664
  22 H :    0.116329
  23 H :    0.104131
  24 H :    0.125539
  25 H :    0.120570
  26 H :    0.147698
  27 H :    0.095520
  28 H :    0.197844
  29 H :    0.191117
  30 H :    0.151704
  31 H :    0.150598
  32 H :    0.164189
  33 H :    0.135155
  34 H :    0.242559
  35 H :    0.180012
Sum of atomic charges:    0.0000000

--------------------------------
MULLIKEN REDUCED ORBITAL CHARGES
--------------------------------
  0 C s       :     3.272163  s :     3.272163
      pz      :     1.027277  p :     2.993468
      px      :     0.980805
      py      :     0.985386
      dz2     :     0.015080  d :     0.076179
      dxz     :     0.009013
      dyz     :     0.021857
      dx2y2   :     0.010817
      dxy     :     0.019412
      f0      :     0.000763  f :     0.004426
      f+1     :     0.000308
      f-1     :     0.000847
      f+2     :     0.000111
      f-2     :     0.000738
      f+3     :     0.000616
      f-3     :     0.001041
  1 C s       :     3.170206  s :     3.170206
      pz      :     0.923563  p :     2.627349
      px      :     0.718643
      py      :     0.985143
      dz2     :     0.030345  d :     0.153609
      dxz     :     0.031210
      dyz     :     0.027701
      dx2y2   :     0.031996
      dxy     :     0.032357
      f0      :     0.001321  f :     0.011419
      f+1     :     0.002362
      f-1     :     0.000758
      f+2     :     0.001314
      f-2     :     0.002006
      f+3     :     0.002014
      f-3     :     0.001643
  2 O s       :     3.714631  s :     3.714631
      pz      :     1.719854  p :     4.592582
      px      :     1.491733
      py      :     1.380995
      dz2     :     0.005051  d :     0.031660
      dxz     :     0.006033
      dyz     :     0.003740
      dx2y2   :     0.011134
      dxy     :     0.005701
      f0      :     0.000288  f :     0.002294
      f+1     :     0.000210
      f-1     :     0.000328
      f+2     :     0.000296
      f-2     :     0.000297
[...]
 15 C s       :     2.705734  s :     2.705734
      pz      :     0.887249  p :     2.793276
      px      :     0.949441
      py      :     0.956586
      dz2     :     0.082680  d :     0.416878
      dxz     :     0.076337
      dyz     :     0.052920
      dx2y2   :     0.105491
      dxy     :     0.099451
      f0      :     0.003370  f :     0.041107
      f+1     :     0.005199
      f-1     :     0.005139
      f+2     :     0.007443
      f-2     :     0.005709
      f+3     :     0.007627
      f-3     :     0.006620
 16 C s       :     2.701607  s :     2.701607
      pz      :     0.930479  p :     2.866942
      px      :     0.969577
      py      :     0.966886
      dz2     :     0.038647  d :     0.390187
      dxz     :     0.064448
      dyz     :     0.076545
      dx2y2   :     0.097860
      dxy     :     0.112687
      f0      :     0.003631  f :     0.040294
      f+1     :     0.004880
      f-1     :     0.003714
      f+2     :     0.005911
      f-2     :     0.004958
      f+3     :     0.008550
      f-3     :     0.008650
 17 C s       :     2.701016  s :     2.701016
      pz      :     0.853214  p :     2.679802
      px      :     0.821626
      py      :     1.004962
      dz2     :     0.117537  d :     0.710218
      dxz     :     0.118279
      dyz     :     0.121999
      dx2y2   :     0.176738
      dxy     :     0.175665
      f0      :     0.008096  f :     0.099385
      f+1     :     0.016404
      f-1     :     0.007968
      f+2     :     0.015801
      f-2     :     0.013289
      f+3     :     0.017710
      f-3     :     0.020117
 18 O s       :     3.177026  s :     3.177026
      pz      :     1.444753  p :     4.344847
      px      :     1.388435
      py      :     1.511658
      dz2     :     0.007554  d :     0.075443
      dxz     :     0.017227
      dyz     :     0.016440
      dx2y2   :     0.017779
      dxy     :     0.016444
      f0      :     0.000549  f :     0.005057
      f+1     :     0.000736
      f-1     :     0.000410
      f+2     :     0.000652
      f-2     :     0.000873
      f+3     :     0.000806
      f-3     :     0.001032
 19 C s       :     2.694292  s :     2.694292
      pz      :     0.923827  p :     2.841459
      px      :     0.958579
      py      :     0.959052
      dz2     :     0.068208  d :     0.388029
      dxz     :     0.071856
      dyz     :     0.055296
      dx2y2   :     0.093696
      dxy     :     0.098974
      f0      :     0.003324  f :     0.040869
      f+1     :     0.005322
      f-1     :     0.004832
      f+2     :     0.007413
      f-2     :     0.006304
      f+3     :     0.007410
      f-3     :     0.006264
 20 H s       :     0.847839  s :     0.847839
      pz      :     0.054996  p :     0.162091
      px      :     0.044999
      py      :     0.062097
      dz2     :     0.007188  d :     0.028236
      dxz     :     0.003162
      dyz     :     0.006867
      dx2y2   :     0.004952
      dxy     :     0.006066
 21 H s       :     0.842211  s :     0.842211
      pz      :     0.043961  p :     0.151692
      px      :     0.063365
      py      :     0.044366
      dz2     :     0.004062  d :     0.027548
      dxz     :     0.006542
      dyz     :     0.002608
      dx2y2   :     0.007196
      dxy     :     0.007140
 22 H s       :     0.848000  s :     0.848000
      pz      :     0.067872  p :     0.152044
      px      :     0.039705
      py      :     0.044467
      dz2     :     0.008482  d :     0.027614
      dxz     :     0.007785
      dyz     :     0.008305
      dx2y2   :     0.001093
      dxy     :     0.001948
 23 H s       :     0.847619  s :     0.847619
      pz      :     0.081364  p :     0.161375
      px      :     0.034880
      py      :     0.045132
      dz2     :     0.009745  d :     0.027932
      dxz     :     0.006341
      dyz     :     0.009325
      dx2y2   :     0.000722
      dxy     :     0.001799
 24 H s       :     0.850217  s :     0.850217
      pz      :     0.042983  p :     0.144563
      px      :     0.035404
      py      :     0.066176
      dz2     :     0.004784  d :     0.027026
      dxz     :     0.003007
      dyz     :     0.005979
      dx2y2   :     0.006823
      dxy     :     0.006434
 25 H s       :     0.832280  s :     0.832280
      pz      :     0.045125  p :     0.149821
      px      :     0.052528
      py      :     0.052167
      dz2     :     0.004226  d :     0.027712
      dxz     :     0.005263
      dyz     :     0.004960
      dx2y2   :     0.007023
      dxy     :     0.006240
 26 H s       :     0.823053  s :     0.823053
      pz      :     0.057183  p :     0.151616
      px      :     0.053548
      py      :     0.040886
      dz2     :     0.007328  d :     0.027636
      dxz     :     0.006741
      dyz     :     0.005085
      dx2y2   :     0.003460
      dxy     :     0.005022
 27 H s       :     0.843607  s :     0.843607
      pz      :     0.038780  p :     0.150419
      px      :     0.049413
      py      :     0.062226
      dz2     :     0.003028  d :     0.027651
      dxz     :     0.003306
      dyz     :     0.005993
      dx2y2   :     0.008089
      dxy     :     0.007235
 28 H s       :     0.742552  s :     0.742552
      pz      :     0.055253  p :     0.253441
      px      :     0.081294
      py      :     0.116894
      dz2     :     0.005617  d :     0.061687
      dxz     :     0.002564
      dyz     :     0.016010
      dx2y2   :     0.018389
      dxy     :     0.019106
 29 H s       :     0.749312  s :     0.749312
      pz      :     0.110543  p :     0.254343
      px      :     0.098515
      py      :     0.045286
      dz2     :     0.019872  d :     0.061417
      dxz     :     0.015222
      dyz     :     0.010069
      dx2y2   :     0.009638
      dxy     :     0.006617
 30 H s       :     0.830734  s :     0.830734
      pz      :     0.040059  p :     0.146488
      px      :     0.064027
      py      :     0.042402
      dz2     :     0.003428  d :     0.028410
      dxz     :     0.007156
      dyz     :     0.003506
      dx2y2   :     0.006956
      dxy     :     0.007364
 31 H s       :     0.843122  s :     0.843122
      pz      :     0.050575  p :     0.157948
      px      :     0.069785
      py      :     0.037588
      dz2     :     0.004294  d :     0.027474
      dxz     :     0.007165
      dyz     :     0.002434
      dx2y2   :     0.006674
      dxy     :     0.006908
 32 H s       :     0.841313  s :     0.841313
      pz      :     0.038323  p :     0.150998
      px      :     0.040560
      py      :     0.072115
      dz2     :     0.002819  d :     0.026403
      dxz     :     0.001312
      dyz     :     0.006784
      dx2y2   :     0.007655
      dxy     :     0.007832
 33 H s       :     0.846993  s :     0.846993
      pz      :     0.058661  p :     0.158496
      px      :     0.047049
      py      :     0.052785
      dz2     :     0.006096  d :     0.027699
      dxz     :     0.004852
      dyz     :     0.005979
      dx2y2   :     0.005625
      dxy     :     0.005148
 34 H s       :     0.705315  s :     0.705315
      pz      :     0.121849  p :     0.347121
      px      :     0.081084
      py      :     0.144189
      dz2     :     0.025760  d :     0.099370
      dxz     :     0.012933
      dyz     :     0.024092
      dx2y2   :     0.018842
      dxy     :     0.017743
 35 H s       :     0.838269  s :     0.838269
      pz      :     0.041121  p :     0.157182
      px      :     0.042032
      py      :     0.074029
      dz2     :     0.002855  d :     0.028113
      dxz     :     0.001421
      dyz     :     0.007546
      dx2y2   :     0.008141
      dxy     :     0.008150


                      *****************************
                      * MAYER POPULATION ANALYSIS *
                      *****************************

  NA   - Mulliken gross atomic population
  ZA   - Total nuclear charge
  QA   - Mulliken gross atomic charge
  VA   - Mayer's total valence
  BVA  - Mayer's bonded valence
  FA   - Mayer's free valence

  ATOM       NA         ZA         QA         VA         BVA        FA
  0 C      6.3462     6.0000    -0.3462     3.8656     3.8656    -0.0000
  1 C      5.9626     6.0000     0.0374     3.8626     3.8626    -0.0000
  2 O      8.3412     8.0000    -0.3412     2.0384     2.0384     0.0000
  3 C      5.5829     6.0000     0.4171     4.2725     4.2725     0.0000
  4 O      8.3702     8.0000    -0.3702     2.1285     2.1285    -0.0000
  5 C      6.2559     6.0000    -0.2559     3.5766     3.5766    -0.0000
  6 C      5.8392     6.0000     0.1608     3.8549     3.8549     0.0000
  7 C      6.2822     6.0000    -0.2822     3.9021     3.9021    -0.0000
  8 N      7.1277     7.0000    -0.1277     3.2854     3.2854     0.0000
  9 C      5.7963     6.0000     0.2037     4.1526     4.1526    -0.0000
 10 S     16.4360    16.0000    -0.4360     1.7629     1.7629    -0.0000
 11 N      7.1914     7.0000    -0.1914     3.2414     3.2414     0.0000
 12 C      5.9531     6.0000     0.0469     3.9562     3.9562     0.0000
 13 C      5.9559     6.0000     0.0441     3.7016     3.7016     0.0000
 14 C      6.1778     6.0000    -0.1778     3.8325     3.8325     0.0000
 15 C      6.1317     6.0000    -0.1317     3.8094     3.8094     0.0000
 16 C      6.2735     6.0000    -0.2735     3.7901     3.7901    -0.0000
 17 C      5.6808     6.0000     0.3192     3.8806     3.8806     0.0000
 18 O      8.3562     8.0000    -0.3562     2.1207     2.1207     0.0000
 19 C      6.2912     6.0000    -0.2912     3.8228     3.8228     0.0000
 20 H      0.8909     1.0000     0.1091     0.9752     0.9752    -0.0000
 21 H      0.8803     1.0000     0.1197     0.9832     0.9832     0.0000
 22 H      0.8837     1.0000     0.1163     0.9788     0.9788     0.0000
 23 H      0.8959     1.0000     0.1041     0.9549     0.9549    -0.0000
 24 H      0.8745     1.0000     0.1255     0.9728     0.9728     0.0000
 25 H      0.8794     1.0000     0.1206     0.9810     0.9810    -0.0000
 26 H      0.8523     1.0000     0.1477     0.9763     0.9763    -0.0000
 27 H      0.9045     1.0000     0.0955     0.9845     0.9845     0.0000
 28 H      0.8022     1.0000     0.1978     1.0214     1.0214     0.0000
 29 H      0.8089     1.0000     0.1911     1.0211     1.0211    -0.0000
 30 H      0.8483     1.0000     0.1517     0.9873     0.9873     0.0000
 31 H      0.8494     1.0000     0.1506     0.9858     0.9858    -0.0000
 32 H      0.8358     1.0000     0.1642     0.9768     0.9768     0.0000
 33 H      0.8648     1.0000     0.1352     0.9903     0.9903     0.0000
 34 H      0.7574     1.0000     0.2426     1.0098     1.0098    -0.0000
 35 H      0.8200     1.0000     0.1800     0.9793     0.9793     0.0000

  Mayer bond orders larger than 0.100000
B(  0-C ,  1-C ) :   0.9589 B(  0-C , 20-H ) :   0.9677 B(  0-C , 21-H ) :   0.9764 
B(  0-C , 22-H ) :   0.9755 B(  1-C ,  2-O ) :   0.9039 B(  1-C , 23-H ) :   0.9662 
B(  1-C , 24-H ) :   0.9833 B(  2-O ,  3-C ) :   1.1755 B(  3-C ,  4-O ) :   2.1013 
B(  3-C ,  5-C ) :   0.9478 B(  5-C ,  6-C ) :   1.6954 B(  5-C , 12-C ) :   0.9712 
B(  6-C ,  7-C ) :   0.9562 B(  6-C ,  8-N ) :   1.1331 B(  7-C , 25-H ) :   0.9723 
B(  7-C , 26-H ) :   0.9573 B(  7-C , 27-H ) :   0.9839 B(  8-N ,  9-C ) :   1.1873 
B(  8-N , 28-H ) :   0.9502 B(  9-C , 10-S ) :   1.6172 B(  9-C , 11-N ) :   1.2891 
B( 11-N , 12-C ) :   0.9852 B( 11-N , 29-H ) :   0.9539 B( 12-C , 13-C ) :   0.9410 
B( 12-C , 30-H ) :   1.0071 B( 13-C , 14-C ) :   1.3519 B( 13-C , 19-C ) :   1.3596 
B( 14-C , 15-C ) :   1.3930 B( 14-C , 31-H ) :   0.9735 B( 15-C , 16-C ) :   1.3685 
B( 15-C , 32-H ) :   0.9699 B( 16-C , 17-C ) :   1.3254 B( 16-C , 33-H ) :   0.9830 
B( 17-C , 18-O ) :   1.1150 B( 17-C , 19-C ) :   1.3728 B( 18-O , 34-H ) :   0.9786 
B( 19-C , 35-H ) :   0.9523 

-------
TIMINGS
-------

Total SCF time: 0 days 2 hours 7 min 48 sec 

Total time                  ....    7668.950 sec
Sum of individual times     ....    7657.253 sec  ( 99.8%)

Fock matrix formation       ....    7612.361 sec  ( 99.3%)
Diagonalization             ....       2.523 sec  (  0.0%)
Density matrix formation    ....       0.260 sec  (  0.0%)
Population analysis         ....       0.284 sec  (  0.0%)
Initial guess               ....       7.200 sec  (  0.1%)
Orbital Transformation      ....       0.000 sec  (  0.0%)
Orbital Orthonormalization  ....       0.000 sec  (  0.0%)
DIIS solution               ....      29.668 sec  (  0.4%)
SOSCF solution              ....       3.588 sec  (  0.0%)

Maximum memory used throughout the entire SCF-calculation: 764.0 MB

------------------------------------------------------------------------------
                                ORCA  MP2 
------------------------------------------------------------------------------

Freezing NCore=48 chemical core electrons

-------------
RI-MP2 ENERGY
-------------
Dimension of the basis                    ...  828
Memory devoted to MP2                     ...  256 MB   
Data format for buffers                   ... DOUBLE
Compression type for matrix containers    ... UNCOMPRESSED
Overall scaling of the MP2 energy         ...   1.000e+00
Calculating two index integrals           ... done (    0.032 sec)
Cholesky decomposition of V**-1           ... done (    0.540 sec)

-----------------
RI-TRANSFORMATION (AUX index driven)
-----------------

Dimension of the orbital-basis         ... 828
Dimension of the aux-basis             ... 2141
Transformation of internal/external MOs...   24-  76 to   77- 827
Number Format for Storage              ... Double (8 Byte)
Integral mode                          ... Direct

First Phase: integral generation and transformation of MO indices
  Aux angular momentum 0               ... done (    4.544 sec)
  Aux angular momentum 1               ... done (    9.236 sec)
  Aux angular momentum 2               ... done (    9.746 sec)
  Aux angular momentum 3               ... done (    7.473 sec)
  Aux angular momentum 4               ... done (    2.976 sec)
Closing buffer VIA ( 0.63 GB; CompressionRatio= 1.00)
  Phase 1 completed in    34.429 sec
Second Phase: sorting and transformation of aux index

IA-Transformation
Memory available                       ... 156 MB 
Max. # MO pairs treated in a batch     ... 11    
# of internal orbitals                 ... 53
# batches for internal orbitals        ... 5
Closing buffer IAV ( 0.63 GB; CompressionRatio= 1.00)
(ia|v) transformation done in    37.089 sec

  Phase 2 completed in    37.099 sec
RI-Integral transformation completed in    71.566 sec
Opening buffers                              ... done

Starting loop over batches of integrals:

Operator 0  - window                       ... ( 24- 76)x( 77-827)
Operator 0  - Memory available             ...   256 MB
Operator 0  - Memory needed per MO         ...  12.3 MB
Operator 0  - Number of orbitals per batch ... 13
Operator 0  - Number of batches            ... 5

OPERATOR  0   PASS   0:  MOs    24 ...   36
  Reading integrals       ... ok
  Internal MO  26
  Internal MO  29
  Internal MO  32
  Internal MO  35
OPERATOR  0   PASS   1:  MOs    37 ...   49
  Reading integrals       ... ok
  Internal MO  38
  Internal MO  41
  Internal MO  44
  Internal MO  47
OPERATOR  0   PASS   2:  MOs    50 ...   62
  Reading integrals       ... ok
  Internal MO  50
  Internal MO  53
  Internal MO  56
  Internal MO  59
  Internal MO  62
OPERATOR  0   PASS   3:  MOs    63 ...   75
  Reading integrals       ... ok
  Internal MO  65
  Internal MO  68
  Internal MO  71
  Internal MO  74
OPERATOR  0   PASS   4:  MOs    76 ...   76
  Reading integrals       ... ok
Time spent in pair loops =   116.305 sec
Deleting buffer (Ka|jb)[aa] ...done

-----------------------------------------------
 RI-MP2 CORRELATION ENERGY:     -3.541760266 Eh
-----------------------------------------------


-------
TIMINGS
-------

Total time                :  188.564 sec
Integral trafo            :   71.591 sec ( 38.0%)
I/O of integrals          :    1.862 sec (  1.0%)
K(i,j) Operators          :   78.722 sec ( 41.7%)
T(i,j) pair energies      :    3.050 sec (  1.6%)
V-calculation             :    0.032 sec (  0.0%)
V**(-1/2)                 :    0.540 sec (  0.3%)
Gamma(ia|P)               :    0.000 sec (  0.0%)
Gamma-Trafo               :    0.000 sec (  0.0%)
D(virtual)                :    0.000 sec (  0.0%)
D(internal)               :    0.000 sec (  0.0%)
W(virtual)                :    0.000 sec (  0.0%)
W(internal)               :    0.000 sec (  0.0%)
L(virtual)                :    0.000 sec (  0.0%)
L(internal)               :    0.000 sec (  0.0%)
G(D)                      :    0.000 sec (  0.0%)
G(Z)                      :    0.000 sec (  0.0%)
Z-Vector Solution         :    0.000 sec (  0.0%)
3-Index Derivative        :    0.000 sec (  0.0%)
2-Index Derivative        :    0.000 sec (  0.0%)
Separable Gradient        :    0.000 sec (  0.0%)


---------------------------------------
MP2 TOTAL ENERGY:    -1274.326101884 Eh
---------------------------------------

Maximum memory used throughout the entire MP2-calculation: 306.2 MB

-------------------------   --------------------
FINAL SINGLE POINT ENERGY     -1274.326101883549
-------------------------   --------------------


                            ***************************************
                            *     ORCA property calculations      *
                            ***************************************


  WARNING: The energy has been calculated at the MP2 level but the densities
           used in the property calculations are still SCF densities
           MP2 response densities have not been calculated 
           use %mp2 Density relaxed end
           or  %mp2 Density unrelaxed end

                                    ---------------------
                                    Active property flags
                                    ---------------------
   (+) Dipole Moment


------------------------------------------------------------------------------
                       ORCA ELECTRIC PROPERTIES CALCULATION
------------------------------------------------------------------------------

Dipole Moment Calculation                       ... on
Quadrupole Moment Calculation                   ... off
Polarizability Calculation                      ... off
GBWName                                         ... CONFS/Conf546.orca.gbw
Electron density file                           ... CONFS/Conf546.orca.scfp
The origin for moment calculation is the CENTER OF MASS  = (32.824068, 31.349896 35.138236)

-------------
DIPOLE MOMENT
-------------
                                X             Y             Z
Electronic contribution:      9.88507       6.71782       5.34009
Nuclear contribution   :    -11.26535      -8.40087      -4.79791
                        -----------------------------------------
Total Dipole Moment    :     -1.38027      -1.68305       0.54218
                        -----------------------------------------
Magnitude (a.u.)       :      2.24316
Magnitude (Debye)      :      5.70166



--------------------
Rotational spectrum 
--------------------
 
Rotational constants in cm-1:     0.011774     0.009825     0.006756 
Rotational constants in MHz :   352.978537   294.542805   202.532125 

 Dipole components along the rotational axes: 
x,y,z [a.u.] :    -2.138013    -0.096936     0.671763 
x,y,z [Debye]:    -5.434398    -0.246392     1.707485 

 

Timings for individual modules:

Sum of individual times         ...     7862.757 sec (= 131.046 min)
GTO integral calculation        ...        3.944 sec (=   0.066 min)   0.1 %
SCF iterations                  ...     7669.229 sec (= 127.820 min)  97.5 %
MP2 module                      ...      189.584 sec (=   3.160 min)   2.4 %
                             ****ORCA TERMINATED NORMALLY****
TOTAL RUN TIME: 0 days 2 hours 11 minutes 4 seconds 676 msec
