
                                        *****************
                                        * O   R   C   A *
                                        *****************

                                            #,                                       
                                            ###                                      
                                            ####                                     
                                            #####                                    
                                            ######                                   
                                           ########,                                 
                                     ,,################,,,,,                         
                               ,,#################################,,                 
                          ,,##########################################,,             
                       ,#########################################, ''#####,          
                    ,#############################################,,   '####,        
                  ,##################################################,,,,####,       
                ,###########''''           ''''###############################       
              ,#####''   ,,,,##########,,,,          '''####'''          '####       
            ,##' ,,,,###########################,,,                        '##       
           ' ,,###''''                  '''############,,,                           
         ,,##''                                '''############,,,,        ,,,,,,###''
      ,#''                                            '''#######################'''  
     '                                                          ''''####''''         
             ,#######,   #######,   ,#######,      ##                                
            ,#'     '#,  ##    ##  ,#'     '#,    #''#        ######   ,####,        
            ##       ##  ##   ,#'  ##            #'  '#       #        #'  '#        
            ##       ##  #######   ##           ,######,      #####,   #    #        
            '#,     ,#'  ##    ##  '#,     ,#' ,#      #,         ##   #,  ,#        
             '#######'   ##     ##  '#######'  #'      '#     #####' # '####'        



                  #######################################################
                  #                        -***-                        #
                  #          Department of theory and spectroscopy      #
                  #    Directorship and core code : Frank Neese         #
                  #        Max Planck Institute fuer Kohlenforschung    #
                  #                Kaiser Wilhelm Platz 1               #
                  #                 D-45470 Muelheim/Ruhr               #
                  #                      Germany                        #
                  #                                                     #
                  #                  All rights reserved                #
                  #                        -***-                        #
                  #######################################################


                         Program Version 5.0.0 -  RELEASE  -
                                (SVN: $Rev: 19529$)
                ($Date: 2021-06-28 11:36:33 +0200 (Mo, 28 Jun 2021) $)


 With contributions from (in alphabetic order):
   Daniel Aravena         : Magnetic Suceptibility
   Michael Atanasov       : Ab Initio Ligand Field Theory (pilot matlab implementation)
   Alexander A. Auer      : GIAO ZORA, VPT2 properties, NMR spectrum
   Ute Becker             : Parallelization
   Giovanni Bistoni       : ED, misc. LED, open-shell LED, HFLD
   Martin Brehm           : Molecular dynamics
   Dmytro Bykov           : SCF Hessian
   Vijay G. Chilkuri      : MRCI spin determinant printing, contributions to CSF-ICE
   Dipayan Datta          : RHF DLPNO-CCSD density
   Achintya Kumar Dutta   : EOM-CC, STEOM-CC
   Dmitry Ganyushin       : Spin-Orbit,Spin-Spin,Magnetic field MRCI
   Miquel Garcia          : C-PCM Hessian, Gaussian charge scheme
   Yang Guo               : DLPNO-NEVPT2, F12-NEVPT2, CIM, IAO-localization
   Andreas Hansen         : Spin unrestricted coupled pair/coupled cluster methods
   Benjamin Helmich-Paris : MC-RPA, TRAH-SCF, COSX integrals
   Lee Huntington         : MR-EOM, pCC
   Robert Izsak           : Overlap fitted RIJCOSX, COSX-SCS-MP3, EOM
   Marcus Kettner         : VPT2
   Christian Kollmar      : KDIIS, OOCD, Brueckner-CCSD(T), CCSD density, CASPT2, CASPT2-K
   Simone Kossmann        : Meta GGA functionals, TD-DFT gradient, OOMP2, MP2 Hessian
   Martin Krupicka        : Initial AUTO-CI
   Lucas Lang             : DCDCAS
   Marvin Lechner         : AUTO-CI (C++ implementation), FIC-MRCC
   Dagmar Lenk            : GEPOL surface, SMD
   Dimitrios Liakos       : Extrapolation schemes; Compound Job, initial MDCI parallelization
   Dimitrios Manganas     : Further ROCIS development; embedding schemes
   Dimitrios Pantazis     : SARC Basis sets
   Anastasios Papadopoulos: AUTO-CI, single reference methods and gradients
   Taras Petrenko         : DFT Hessian,TD-DFT gradient, ASA, ECA, R-Raman, ABS, FL, XAS/XES, NRVS
   Peter Pinski           : DLPNO-MP2, DLPNO-MP2 Gradient
   Christoph Reimann      : Effective Core Potentials
   Marius Retegan         : Local ZFS, SOC
   Christoph Riplinger    : Optimizer, TS searches, QM/MM, DLPNO-CCSD(T), (RO)-DLPNO pert. Triples
   Tobias Risthaus        : Range-separated hybrids, TD-DFT gradient, RPA, STAB
   Michael Roemelt        : Original ROCIS implementation
   Masaaki Saitow         : Open-shell DLPNO-CCSD energy and density
   Barbara Sandhoefer     : DKH picture change effects
   Avijit Sen             : IP-ROCIS
   Kantharuban Sivalingam : CASSCF convergence, NEVPT2, FIC-MRCI
   Bernardo de Souza      : ESD, SOC TD-DFT
   Georgi Stoychev        : AutoAux, RI-MP2 NMR
   Willem Van den Heuvel  : Paramagnetic NMR
   Boris Wezisla          : Elementary symmetry handling
   Frank Wennmohs         : Technical directorship


 We gratefully acknowledge several colleagues who have allowed us to
 interface, adapt or use parts of their codes:
   Stefan Grimme, W. Hujo, H. Kruse, P. Pracht,  : VdW corrections, initial TS optimization,
                  C. Bannwarth, S. Ehlert          DFT functionals, gCP, sTDA/sTD-DF
   Ed Valeev, F. Pavosevic, A. Kumar             : LibInt (2-el integral package), F12 methods
   Garnet Chan, S. Sharma, J. Yang, R. Olivares  : DMRG
   Ulf Ekstrom                                   : XCFun DFT Library
   Mihaly Kallay                                 : mrcc  (arbitrary order and MRCC methods)
   Jiri Pittner, Ondrej Demel                    : Mk-CCSD
   Frank Weinhold                                : gennbo (NPA and NBO analysis)
   Christopher J. Cramer and Donald G. Truhlar   : smd solvation model
   Lars Goerigk                                  : TD-DFT with DH, B97 family of functionals
   V. Asgeirsson, H. Jonsson                     : NEB implementation
   FAccTs GmbH                                   : IRC, NEB, NEB-TS, DLPNO-Multilevel, CI-OPT
                                                   MM, QMMM, 2- and 3-layer-ONIOM, Crystal-QMMM,
                                                   LR-CPCM, SF, NACMEs, symmetry and pop. for TD-DFT,
                                                   nearIR, NL-DFT gradient (VV10), updates on ESD,
                                                   ML-optimized integration grids
   S Lehtola, MJT Oliveira, MAL Marques          : LibXC Library
   Liviu Ungur et al                             : ANISO software


 Your calculation uses the libint2 library for the computation of 2-el integrals
 For citations please refer to: http://libint.valeyev.net

 Your ORCA version has been built with support for libXC version: 5.1.0
 For citations please refer to: https://tddft.org/programs/libxc/

 This ORCA versions uses:
   CBLAS   interface :  Fast vector & matrix operations
   LAPACKE interface :  Fast linear algebra routines
   SCALAPACK package :  Parallel linear algebra routines
   Shared memory     :  Shared parallel matrices
   BLAS/LAPACK       :  OpenBLAS 0.3.15  USE64BITINT DYNAMIC_ARCH NO_AFFINITY Zen SINGLE_THREADED
        Core in use  :  Zen
   Copyright (c) 2011-2014, The OpenBLAS Project


================================================================================

----- Orbital basis set information -----
Your calculation utilizes the basis: cc-pVTZ 
       H, B-Ne : Obtained from the ccRepo (grant-hill.group.shef.ac.uk/ccrepo) Feb. 2017
                 T. H. Dunning, Jr., J. Chem. Phys. 90, 1007 (1989)
            He : Obtained from the ccRepo (grant-hill.group.shef.ac.uk/ccrepo) Feb. 2017
                 D. E. Woon, T. H. Dunning, Jr., J. Chem. Phys. 100, 2975 (1994)
  Li-Be, Na-Mg : Obtained from the ccRepo (grant-hill.group.shef.ac.uk/ccrepo) Feb. 2017
                 B. P. Prascher, D. E. Woon, K. A. Peterson, T. H. Dunning, Jr., A. K. Wilson, Theor. Chem. Acc. 128, 69 (2011)
         Al-Ar : Obtained from the ccRepo (grant-hill.group.shef.ac.uk/ccrepo) Feb. 2017
                 D. E. Woon, T. H. Dunning, Jr., J. Chem. Phys. 98, 1358 (1993)
            Ca : Obtained from the Peterson Research Group Website (tyr0.chem.wsu.edu/~kipeters) Feb. 2017
                 J. Koput, K. A. Peterson, J. Phys. Chem. 106, 9595 (2002)
         Sc-Zn : Obtained from the ccRepo (grant-hill.group.shef.ac.uk/ccrepo) Feb. 2017
                 N. B. Balabanov, K. A. Peterson, J. Chem. Phys. 123, 064107 (2005)
                 N. B. Balabanov, K. A. Peterson, J. Chem. Phys. 125, 074110 (2006)
         Ga-Kr : Obtained from the ccRepo (grant-hill.group.shef.ac.uk/ccrepo) Feb. 2017
                 A. K. Wilson, D. E. Woon, K. A. Peterson, T. H. Dunning, Jr., J. Chem. Phys. 110, 7667 (1999)
             Y : Obtained from the ccRepo (grant-hill.group.shef.ac.uk/ccrepo) Feb. 2017
                 K. A. Peterson, D. Figgen, M. Dolg, H. Stoll, J. Chem. Phys. 126, 124101 (2007)
        Ag, Au : Obtained from the Peterson Research Group Website (tyr0.chem.wsu.edu/~kipeters) Feb. 2017
                 K. A. Peterson, C. Puzzarini, Theor. Chem. Acc. 114, 283 (2005)

----- AuxC basis set information -----
Your calculation utilizes the auxiliary basis: cc-pVTZ/C 
  Obtained from the EMSL Basis Set Exchange (bse.pnl.gov) Feb. 2017
  H-He, B-F, Al-Ar, Ga-Kr : F. Weigend, A. Kohn, C. Hattig, J. Chem. Phys. 116, 3175 (2002)
             Li-Be, Na-Mg : C. Haettig, Phys. Chem. Chem. Phys. 7, 59 (2005)
                       Ne : C. Haettig, Phys. Chem. Chem. Phys. 7, 59 (2005)
                            F. Weigend, A. Kohn, C. Hattig, J. Chem. Phys. 116, 3175 (2002)
                    Sc-Zn : J. G. Hill, J. A. Platts, J. Chem. Phys. 128, 044104 (2008)

================================================================================
                                        WARNINGS
                       Please study these warnings very carefully!
================================================================================


WARNING: No MP2 level density has been requested!
         To caclulate MP2 level properties use
         %mp2 Density relaxed end
         or
         %mp2 Density unrelaxed end

WARNING: Post HF methods need fully converged wavefunctions
  ===> : Setting SCFConvForced true
         You can overwrite this default with %scf ConvForced false 


INFO   : the flag for use of the SHARK integral package has been found!

================================================================================
                                       INPUT FILE
================================================================================
NAME = CONFS/Conf223.orca
|  1> ! ri-mp2 cc-pvtz cc-pvtz/c TightSCF NoKeepInts
|  2> 
|  3> %scf
|  4>   MaxCore 4096
|  5> end
|  6> *xyz  0  1
|  7>     C       15.2270381   13.8409397   15.2724363
|  8>     C       15.1575367   14.8923630   16.3961920
|  9>     O       16.1566959   15.8983118   16.1494974
| 10>     C       17.3987858   15.7465927   16.6967788
| 11>     O       17.8892448   14.6438406   16.8756800
| 12>     C       17.8113708   16.9277211   17.5242916
| 13>     C       17.4454649   18.2084528   17.2617814
| 14>     C       16.6047804   18.7116306   16.1065484
| 15>     N       17.9247911   19.2469486   18.0664246
| 16>     C       18.8736961   19.1049127   19.0445598
| 17>     S       19.4751403   20.4055880   19.8704051
| 18>     N       19.2997831   17.8264383   19.3031270
| 19>     C       18.7077244   16.6053451   18.7244533
| 20>     C       17.9337061   15.8304512   19.7878724
| 21>     C       18.2262031   14.4769638   20.0378209
| 22>     C       17.5113340   13.7568271   21.0095359
| 23>     C       16.4936635   14.3947090   21.7389600
| 24>     C       16.1962304   15.7414789   21.4904370
| 25>     O       15.2090457   16.3583015   22.1877473
| 26>     C       16.9089084   16.4553407   20.5219718
| 27>     H       16.1921739   13.3190423   15.2834215
| 28>     H       15.1006677   14.3135730   14.2906816
| 29>     H       14.4357783   13.0921951   15.3982166
| 30>     H       14.1639802   15.3582901   16.3831808
| 31>     H       15.3019133   14.4223559   17.3793472
| 32>     H       16.8982758   18.2261037   15.1673948
| 33>     H       16.7058520   19.7928259   15.9523245
| 34>     H       15.5428188   18.4963697   16.2785025
| 35>     H       17.6246664   20.1927053   17.8914934
| 36>     H       19.9773064   17.7463194   20.0504628
| 37>     H       19.5323260   15.9716865   18.3670547
| 38>     H       19.0006314   13.9763462   19.4616323
| 39>     H       17.7440233   12.7086763   21.1888287
| 40>     H       15.9380693   13.8417817   22.4890089
| 41>     H       14.8729440   15.7229957   22.8376087
| 42>     H       16.6644296   17.4975759   20.3483200
| 43> *
| 44> 
| 45>                          ****END OF INPUT****
================================================================================

                       ****************************
                       * Single Point Calculation *
                       ****************************

---------------------------------
CARTESIAN COORDINATES (ANGSTROEM)
---------------------------------
  C     15.227038   13.840940   15.272436
  C     15.157537   14.892363   16.396192
  O     16.156696   15.898312   16.149497
  C     17.398786   15.746593   16.696779
  O     17.889245   14.643841   16.875680
  C     17.811371   16.927721   17.524292
  C     17.445465   18.208453   17.261781
  C     16.604780   18.711631   16.106548
  N     17.924791   19.246949   18.066425
  C     18.873696   19.104913   19.044560
  S     19.475140   20.405588   19.870405
  N     19.299783   17.826438   19.303127
  C     18.707724   16.605345   18.724453
  C     17.933706   15.830451   19.787872
  C     18.226203   14.476964   20.037821
  C     17.511334   13.756827   21.009536
  C     16.493664   14.394709   21.738960
  C     16.196230   15.741479   21.490437
  O     15.209046   16.358301   22.187747
  C     16.908908   16.455341   20.521972
  H     16.192174   13.319042   15.283421
  H     15.100668   14.313573   14.290682
  H     14.435778   13.092195   15.398217
  H     14.163980   15.358290   16.383181
  H     15.301913   14.422356   17.379347
  H     16.898276   18.226104   15.167395
  H     16.705852   19.792826   15.952324
  H     15.542819   18.496370   16.278502
  H     17.624666   20.192705   17.891493
  H     19.977306   17.746319   20.050463
  H     19.532326   15.971687   18.367055
  H     19.000631   13.976346   19.461632
  H     17.744023   12.708676   21.188829
  H     15.938069   13.841782   22.489009
  H     14.872944   15.722996   22.837609
  H     16.664430   17.497576   20.348320

----------------------------
CARTESIAN COORDINATES (A.U.)
----------------------------
  NO LB      ZA    FRAG     MASS         X           Y           Z
   0 C     6.0000    0    12.011   28.774932   26.155585   28.860722
   1 C     6.0000    0    12.011   28.643593   28.142488   30.984313
   2 O     8.0000    0    15.999   30.531730   30.043455   30.518127
   3 C     6.0000    0    12.011   32.878940   29.756748   31.552339
   4 O     8.0000    0    15.999   33.805773   27.672848   31.890414
   5 C     6.0000    0    12.011   33.658613   31.988757   33.116112
   6 C     6.0000    0    12.011   32.967151   34.408989   32.620039
   7 C     6.0000    0    12.011   31.378487   35.359857   30.436965
   8 N     7.0000    0    14.007   33.872946   36.371462   34.140595
   9 C     6.0000    0    12.011   35.666117   36.103053   35.989002
  10 S    16.0000    0    32.060   36.802682   38.560973   37.549624
  11 N     7.0000    0    14.007   36.471305   33.687086   36.477624
  12 C     6.0000    0    12.011   35.352476   31.379555   35.384089
  13 C     6.0000    0    12.011   33.889793   29.915217   37.393660
  14 C     6.0000    0    12.011   34.442532   27.357497   37.865994
  15 C     6.0000    0    12.011   33.091625   25.996636   39.702269
  16 C     6.0000    0    12.011   31.168507   27.202058   41.080681
  17 C     6.0000    0    12.011   30.606440   29.747084   40.611040
  18 O     8.0000    0    15.999   28.740931   30.912710   41.928766
  19 C     6.0000    0    12.011   31.953206   31.096087   38.780906
  20 H     1.0000    0     1.008   30.598774   25.169342   28.881481
  21 H     1.0000    0     1.008   28.536126   27.048733   27.005474
  22 H     1.0000    0     1.008   27.279668   24.740663   29.098412
  23 H     1.0000    0     1.008   26.766044   29.022962   30.959725
  24 H     1.0000    0     1.008   28.916425   27.254303   32.842207
  25 H     1.0000    0     1.008   31.933113   34.442344   28.662222
  26 H     1.0000    0     1.008   31.569485   37.403020   30.145525
  27 H     1.0000    0     1.008   29.371671   34.953073   30.761912
  28 H     1.0000    0     1.008   33.305793   38.158683   33.810023
  29 H     1.0000    0     1.008   37.751638   33.535684   37.889884
  30 H     1.0000    0     1.008   36.910747   30.182113   34.708703
  31 H     1.0000    0     1.008   35.905990   26.411467   36.777155
  32 H     1.0000    0     1.008   33.531345   24.015918   40.041083
  33 H     1.0000    0     1.008   30.118586   26.157177   42.498068
  34 H     1.0000    0     1.008   28.105791   29.712156   43.156826
  35 H     1.0000    0     1.008   31.491208   33.065626   38.452752

--------------------------------
INTERNAL COORDINATES (ANGSTROEM)
--------------------------------
 C      0   0   0     0.000000000000     0.00000000     0.00000000
 C      1   0   0     1.540502604239     0.00000000     0.00000000
 O      2   1   0     1.439135268429   108.70584615     0.00000000
 C      3   2   1     1.365768258444   119.01689857   268.62370504
 O      4   3   2     1.220089285297   121.65101203    31.84561411
 C      4   3   2     1.500022704387   112.56519251   235.21855249
 C      6   4   3     1.357598033346   124.19552642   327.34388973
 C      7   6   4     1.514761239022   127.62049079   358.41406888
 N      7   6   4     1.398455509457   119.79631336   182.40160137
 C      9   7   6     1.370161802632   124.83026720     7.45647489
 S     10   9   7     1.653938276138   121.78784629   174.99455293
 N     10   9   7     1.372189462115   116.49703362   355.02095913
 C     12  10   9     1.475284839753   124.93474884   352.63267547
 C     13  12  10     1.526572981301   110.51077597   251.30495810
 C     14  13  12     1.407109409257   120.43781781   234.79369799
 C     15  14  13     1.404942966119   120.67239747   180.39817048
 C     16  15  14     1.405206775738   119.65922483     0.00000000
 C     17  16  15     1.401434727003   119.86026043     0.17915894
 O     18  17  16     1.356924981814   120.00768812   179.62783039
 C     18  17  16     1.398368136363   120.34693508   359.86352459
 H      1   2   3     1.097262358412   110.91675598    63.77375427
 H      1   2   3     1.096902003479   110.70859069   303.42431609
 H      1   2   3     1.096599849988   110.47454562   183.47924112
 H      2   1   3     1.097457002589   108.78156340   118.87311312
 H      2   1   3     1.099247662706   110.77392494   237.58311105
 H      8   7   6     1.097217118367   110.93659046   317.12843647
 H      8   7   6     1.096806161726   112.55371164   197.35929785
 H      8   7   6     1.097118000696   110.64042367    76.76567498
 H      9   7   6     1.007537342176   119.67426362   182.29661667
 H     12  10   9     1.011912870825   114.88757666   181.95759223
 H     13  12  10     1.099647570524   107.66774967   133.19687658
 H     15  14  13     1.087359405183   119.78676164   359.27441558
 H     16  15  14     1.088535859771   119.91462210   179.65002073
 H     17  16  15     1.084890255533   119.89441264   179.89417017
 H     19  18  17     0.968967311867   107.39520160     3.38785385
 H     20  18  17     1.084517885243   119.11723105   180.20641045

---------------------------
INTERNAL COORDINATES (A.U.)
---------------------------
 C      0   0   0     0.000000000000     0.00000000     0.00000000
 C      1   0   0     2.911128030604     0.00000000     0.00000000
 O      2   1   0     2.719571526997   108.70584615     0.00000000
 C      3   2   1     2.580927970861   119.01689857   268.62370504
 O      4   3   2     2.305634608143   121.65101203    31.84561411
 C      4   3   2     2.834632105955   112.56519251   235.21855249
 C      6   4   3     2.565488482973   124.19552642   327.34388973
 C      7   6   4     2.862483900030   127.62049079   358.41406888
 N      7   6   4     2.642697923347   119.79631336   182.40160137
 C      9   7   6     2.589230566135   124.83026720     7.45647489
 S     10   9   7     3.125490384311   121.78784629   174.99455293
 N     10   9   7     2.593062287251   116.49703362   355.02095913
 C     12  10   9     2.787884316658   124.93474884   352.63267547
 C     13  12  10     2.884804858102   110.51077597   251.30495810
 C     14  13  12     2.659051423960   120.43781781   234.79369799
 C     15  14  13     2.654957439744   120.67239747   180.39817048
 C     16  15  14     2.655455967674   119.65922483     0.00000000
 C     17  16  15     2.648327828603   119.86026043     0.17915894
 O     18  17  16     2.564216599905   120.00768812   179.62783039
 C     18  17  16     2.642532812127   120.34693508   359.86352459
 H      1   2   3     2.073525354459   110.91675598    63.77375427
 H      1   2   3     2.072844382326   110.70859069   303.42431609
 H      1   2   3     2.072273394976   110.47454562   183.47924112
 H      2   1   3     2.073893178648   108.78156340   118.87311312
 H      2   1   3     2.077277035868   110.77392494   237.58311105
 H      8   7   6     2.073439863164   110.93659046   317.12843647
 H      8   7   6     2.072663267659   112.55371164   197.35929785
 H      8   7   6     2.073252557910   110.64042367    76.76567498
 H      9   7   6     1.903969646411   119.67426362   182.29661667
 H     12  10   9     1.912238197250   114.88757666   181.95759223
 H     13  12  10     2.078032752121   107.66774967   133.19687658
 H     15  14  13     2.054811484940   119.78676164   359.27441558
 H     16  15  14     2.057034661919   119.91462210   179.65002073
 H     17  16  15     2.050145468317   119.89441264   179.89417017
 H     19  18  17     1.831082852150   107.39520160     3.38785385
 H     20  18  17     2.049441790449   119.11723105   180.20641045

---------------------
BASIS SET INFORMATION
---------------------
There are 5 groups of distinct atoms

 Group   1 Type C   : 18s5p2d1f contracted to 4s3p2d1f pattern {8811/311/11/1}
 Group   2 Type O   : 18s5p2d1f contracted to 4s3p2d1f pattern {8811/311/11/1}
 Group   3 Type N   : 18s5p2d1f contracted to 4s3p2d1f pattern {8811/311/11/1}
 Group   4 Type S   : 41s16p2d1f contracted to 5s4p2d1f pattern {13131311/7711/11/1}
 Group   5 Type H   : 5s2p1d contracted to 3s2p1d pattern {311/11/1}

Atom   0C    basis set group =>   1
Atom   1C    basis set group =>   1
Atom   2O    basis set group =>   2
Atom   3C    basis set group =>   1
Atom   4O    basis set group =>   2
Atom   5C    basis set group =>   1
Atom   6C    basis set group =>   1
Atom   7C    basis set group =>   1
Atom   8N    basis set group =>   3
Atom   9C    basis set group =>   1
Atom  10S    basis set group =>   4
Atom  11N    basis set group =>   3
Atom  12C    basis set group =>   1
Atom  13C    basis set group =>   1
Atom  14C    basis set group =>   1
Atom  15C    basis set group =>   1
Atom  16C    basis set group =>   1
Atom  17C    basis set group =>   1
Atom  18O    basis set group =>   2
Atom  19C    basis set group =>   1
Atom  20H    basis set group =>   5
Atom  21H    basis set group =>   5
Atom  22H    basis set group =>   5
Atom  23H    basis set group =>   5
Atom  24H    basis set group =>   5
Atom  25H    basis set group =>   5
Atom  26H    basis set group =>   5
Atom  27H    basis set group =>   5
Atom  28H    basis set group =>   5
Atom  29H    basis set group =>   5
Atom  30H    basis set group =>   5
Atom  31H    basis set group =>   5
Atom  32H    basis set group =>   5
Atom  33H    basis set group =>   5
Atom  34H    basis set group =>   5
Atom  35H    basis set group =>   5
---------------------------------
AUXILIARY/C BASIS SET INFORMATION
---------------------------------
There are 5 groups of distinct atoms

 Group   1 Type C   : 8s6p5d3f1g contracted to 8s6p5d3f1g pattern {11111111/111111/11111/111/1}
 Group   2 Type O   : 8s6p5d3f1g contracted to 8s6p5d3f1g pattern {11111111/111111/11111/111/1}
 Group   3 Type N   : 8s6p5d3f1g contracted to 8s6p5d3f1g pattern {11111111/111111/11111/111/1}
 Group   4 Type S   : 10s8p7d5f2g contracted to 10s8p7d5f2g pattern {1111111111/11111111/1111111/11111/11}
 Group   5 Type H   : 4s3p2d1f contracted to 4s3p2d1f pattern {1111/111/11/1}

Atom   0C    basis set group =>   1
Atom   1C    basis set group =>   1
Atom   2O    basis set group =>   2
Atom   3C    basis set group =>   1
Atom   4O    basis set group =>   2
Atom   5C    basis set group =>   1
Atom   6C    basis set group =>   1
Atom   7C    basis set group =>   1
Atom   8N    basis set group =>   3
Atom   9C    basis set group =>   1
Atom  10S    basis set group =>   4
Atom  11N    basis set group =>   3
Atom  12C    basis set group =>   1
Atom  13C    basis set group =>   1
Atom  14C    basis set group =>   1
Atom  15C    basis set group =>   1
Atom  16C    basis set group =>   1
Atom  17C    basis set group =>   1
Atom  18O    basis set group =>   2
Atom  19C    basis set group =>   1
Atom  20H    basis set group =>   5
Atom  21H    basis set group =>   5
Atom  22H    basis set group =>   5
Atom  23H    basis set group =>   5
Atom  24H    basis set group =>   5
Atom  25H    basis set group =>   5
Atom  26H    basis set group =>   5
Atom  27H    basis set group =>   5
Atom  28H    basis set group =>   5
Atom  29H    basis set group =>   5
Atom  30H    basis set group =>   5
Atom  31H    basis set group =>   5
Atom  32H    basis set group =>   5
Atom  33H    basis set group =>   5
Atom  34H    basis set group =>   5
Atom  35H    basis set group =>   5
------------------------------------------------------------------------------
                           ORCA GTO INTEGRAL CALCULATION
------------------------------------------------------------------------------
------------------------------------------------------------------------------
                   ___                                                        
                  /   \      - P O W E R E D   B Y -                         
                 /     \                                                     
                 |  |  |   _    _      __       _____    __    __             
                 |  |  |  | |  | |    /  \     |  _  \  |  |  /  |          
                  \  \/   | |  | |   /    \    | | | |  |  | /  /          
                 / \  \   | |__| |  /  /\  \   | |_| |  |  |/  /          
                |  |  |   |  __  | /  /__\  \  |    /   |      \           
                |  |  |   | |  | | |   __   |  |    \   |  |\   \          
                \     /   | |  | | |  |  |  |  | |\  \  |  | \   \       
                 \___/    |_|  |_| |__|  |__|  |_| \__\ |__|  \__/        
                                                                              
                      - O R C A' S   B I G   F R I E N D -                    
                                      &                                       
                       - I N T E G R A L  F E E D E R -                       
                                                                              
 v1 FN, 2020, v2 2021                                                         
------------------------------------------------------------------------------


Reading SHARK input file CONFS/Conf223.orca.SHARKINP.tmp ... ok
----------------------
SHARK INTEGRAL PACKAGE
----------------------

Number of atoms                             ...     36
Number of basis functions                   ...    828
Number of shells                            ...    298
Maximum angular momentum                    ...      3
Integral batch strategy                     ... SHARK/LIBINT Hybrid
RI-J (if used) integral strategy            ... SPLIT-RIJ (Revised 2003 algorithm where possible)
Printlevel                                  ...      1
Contraction scheme used                     ... SEGMENTED contraction
Coulomb Range Separation                    ... NOT USED
Exchange Range Separation                   ... NOT USED
Finite Nucleus Model                        ... NOT USED
Auxiliary Coulomb fitting basis             ... NOT available
Auxiliary J/K fitting basis                 ... NOT available
Auxiliary Correlation fitting basis         ... AVAILABLE
   # of basis functions in Aux-C            ...   2141
   # of shells in Aux-C                     ...    629
   Maximum angular momentum in Aux-C        ...      4
Auxiliary 'external' fitting basis          ... NOT available
Integral threshold                          ...     2.500000e-11
Primitive cut-off                           ...     2.500000e-12
Primitive pair pre-selection threshold      ...     2.500000e-12

Calculating pre-screening integrals         ... done (  0.5 sec) Dimension = 298
Organizing shell pair data                  ... done (  0.9 sec)
Shell pair information
Total number of shell pairs                 ...     44551
Shell pairs after pre-screening             ...     32835
Total number of primitive shell pairs       ...    234348
Primitive shell pairs kept                  ...     94465
          la=0 lb=0:   6589 shell pairs
          la=1 lb=0:   9146 shell pairs
          la=1 lb=1:   3229 shell pairs
          la=2 lb=0:   5229 shell pairs
          la=2 lb=1:   3576 shell pairs
          la=2 lb=2:   1012 shell pairs
          la=3 lb=0:   1894 shell pairs
          la=3 lb=1:   1293 shell pairs
          la=3 lb=2:    724 shell pairs
          la=3 lb=3:    143 shell pairs

Calculating one electron integrals          ... done (  0.4 sec)
Calculating RI/C V-Matrix + Cholesky decomp.... done (  0.9 sec)
Calculating Nuclear repulsion               ... done (  0.0 sec) ENN=   1699.771468800750 Eh

SHARK setup successfully completed in   3.7 seconds

Maximum memory used throughout the entire GTOINT-calculation: 487.0 MB
-------------------------------------------------------------------------------
                                 ORCA SCF
-------------------------------------------------------------------------------

------------
SCF SETTINGS
------------
Hamiltonian:
 Ab initio Hamiltonian  Method          .... Hartree-Fock(GTOs)


General Settings:
 Integral files         IntName         .... CONFS/Conf223.orca
 Hartree-Fock type      HFTyp           .... RHF
 Total Charge           Charge          ....    0
 Multiplicity           Mult            ....    1
 Number of Electrons    NEL             ....  154
 Basis Dimension        Dim             ....  828
 Nuclear Repulsion      ENuc            ....   1699.7714688007 Eh

Convergence Acceleration:
 DIIS                   CNVDIIS         .... on
   Start iteration      DIISMaxIt       ....    12
   Startup error        DIISStart       ....  0.200000
   # of expansion vecs  DIISMaxEq       ....     5
   Bias factor          DIISBfac        ....   1.050
   Max. coefficient     DIISMaxC        ....  10.000
 Trust-Rad. Augm. Hess. CNVTRAH         .... auto
   Auto Start mean grad. ratio tolernc. ....  1.125000
   Auto Start start iteration           ....    20
   Auto Start num. interpolation iter.  ....    10
   Max. Number of Micro iterations      ....    16
   Max. Number of Macro iterations      .... Maxiter - #DIIS iter
   Number of Davidson start vectors     ....     2
   Converg. threshold I  (grad. norm)   ....   1.000e-05
   Converg. threshold II (energy diff.) ....   1.000e-08
   Grad. Scal. Fac. for Micro threshold ....   0.100
   Minimum threshold for Micro iter.    ....   0.010
   NR start threshold (gradient norm)   ....   0.001
   Initial trust radius                 ....   0.400
   Minimum AH scaling param. (alpha)    ....   1.000
   Maximum AH scaling param. (alpha)    .... 1000.000
   Orbital update algorithm             .... Taylor
   White noise on init. David. guess    .... on
   Maximum white noise                  ....   0.010
   Quad. conv. algorithm                .... NR
 SOSCF                  CNVSOSCF        .... on
   Start iteration      SOSCFMaxIt      ....   150
   Startup grad/error   SOSCFStart      ....  0.003300
 Level Shifting         CNVShift        .... on
   Level shift para.    LevelShift      ....    0.2500
   Turn off err/grad.   ShiftErr        ....    0.0010
 Zerner damping         CNVZerner       .... off
 Static damping         CNVDamp         .... on
   Fraction old density DampFac         ....    0.7000
   Max. Damping (<1)    DampMax         ....    0.9800
   Min. Damping (>=0)   DampMin         ....    0.0000
   Turn off err/grad.   DampErr         ....    0.1000
 Fernandez-Rico         CNVRico         .... off

SCF Procedure:
 Maximum # iterations   MaxIter         ....   125
 SCF integral mode      SCFMode         .... Direct
   Integral package                     .... SHARK and LIBINT hybrid scheme
 Reset frequency        DirectResetFreq ....    20
 Integral Threshold     Thresh          ....  2.500e-11 Eh
 Primitive CutOff       TCut            ....  2.500e-12 Eh

Convergence Tolerance:
 Convergence Check Mode ConvCheckMode   .... Total+1el-Energy
 Convergence forced     ConvForced      .... 1
 Energy Change          TolE            ....  1.000e-08 Eh
 1-El. energy change                    ....  1.000e-05 Eh
 Orbital Gradient       TolG            ....  1.000e-05
 Orbital Rotation angle TolX            ....  1.000e-05
 DIIS Error             TolErr          ....  5.000e-07


Diagonalization of the overlap matrix:
Smallest eigenvalue                        ... 3.473e-05
Time for diagonalization                   ...    0.111 sec
Threshold for overlap eigenvalues          ... 1.000e-08
Number of eigenvalues below threshold      ... 0
Time for construction of square roots      ...    0.082 sec
Total time needed                          ...    0.194 sec

Time for model grid setup =    1.842 sec

------------------------------
INITIAL GUESS: MODEL POTENTIAL
------------------------------
Loading Hartree-Fock densities                     ... done
Calculating cut-offs                               ... done
Initializing the effective Hamiltonian             ... done
Setting up the integral package (SHARK)            ... done
Starting the Coulomb interaction                   ... done (   7.2 sec)
Reading the grid                                   ... done
Mapping shells                                     ... done
Starting the XC term evaluation                    ... done (   1.5 sec)
Transforming the Hamiltonian                       ... done (   0.1 sec)
Diagonalizing the Hamiltonian                      ... done (   0.2 sec)
Back transforming the eigenvectors                 ... done (   0.1 sec)
Now organizing SCF variables                       ... done
                      ------------------
                      INITIAL GUESS DONE (  11.8 sec)
                      ------------------
--------------
SCF ITERATIONS
--------------
ITER       Energy         Delta-E        Max-DP      RMS-DP      [F,P]     Damp
               ***  Starting incremental Fock matrix formation  ***
  0  -1269.9997879518   0.000000000000 0.04930046  0.00043184  0.3095588 0.7000
  1  -1270.2692726480  -0.269484696206 0.03607100  0.00034628  0.1822922 0.7000
                               ***Turning on DIIS***
  2  -1270.4370895725  -0.167816924433 0.02583153  0.00023237  0.1097349 0.7000
  3  -1272.5963458908  -2.159256318366 0.06312302  0.00050635  0.0828398 0.0000
  4  -1270.7440211593   1.852324731552 0.00940592  0.00009683  0.0070630 0.0000
  5  -1270.8101088360  -0.066087676722 0.00395811  0.00005172  0.0035537 0.0000
                      *** Initiating the SOSCF procedure ***
                           *** Shutting down DIIS ***
                      *** Re-Reading the Fockian *** 
                      *** Removing any level shift *** 
ITER      Energy       Delta-E        Grad      Rot      Max-DP    RMS-DP
  6  -1270.78704627   0.0230625641  0.001609  0.001609  0.001904  0.000026
               *** Restarting incremental Fock matrix formation ***
  7  -1270.80135431  -0.0143080332  0.000922  0.002378  0.001266  0.000016
  8  -1270.80140373  -0.0000494242  0.000466  0.002814  0.001405  0.000018
  9  -1270.80142263  -0.0000189049  0.000193  0.000365  0.000372  0.000004
 10  -1270.80142505  -0.0000024177  0.000053  0.000144  0.000120  0.000001
 11  -1270.80142528  -0.0000002320  0.000021  0.000122  0.000064  0.000001
 12  -1270.80142535  -0.0000000663  0.000011  0.000039  0.000028  0.000000
                  ***Gradient check signals convergence***
              ***Rediagonalizing the Fockian in SOSCF/NRSCF***

               *****************************************************
               *                     SUCCESS                       *
               *           SCF CONVERGED AFTER  13 CYCLES          *
               *****************************************************


----------------
TOTAL SCF ENERGY
----------------

Total Energy       :        -1270.80142535 Eh          -34580.26481 eV

Components:
Nuclear Repulsion  :         1699.77146880 Eh           46253.13313 eV
Electronic Energy  :        -2970.57289415 Eh          -80833.39794 eV
One Electron Energy:        -5120.91991249 Eh         -139347.31510 eV
Two Electron Energy:         2150.34701833 Eh           58513.91716 eV

Virial components:
Potential Energy   :        -2539.78377056 Eh          -69111.02993 eV
Kinetic Energy     :         1268.98234521 Eh           34530.76512 eV
Virial Ratio       :            2.00143350


---------------
SCF CONVERGENCE
---------------

  Last Energy change         ...   -1.6603e-09  Tolerance :   1.0000e-08
  Last MAX-Density change    ...    5.9405e-06  Tolerance :   1.0000e-07
  Last RMS-Density change    ...    9.3140e-08  Tolerance :   5.0000e-09
  Last Orbital Gradient      ...    2.3143e-06  Tolerance :   1.0000e-05
  Last Orbital Rotation      ...    8.0163e-06  Tolerance :   1.0000e-05

             **** THE GBW FILE WAS UPDATED (CONFS/Conf223.orca.gbw) ****
             **** DENSITY CONFS/Conf223.orca.scfp WAS UPDATED ****
             **** ENERGY FILE WAS UPDATED (CONFS/Conf223.orca.en.tmp) ****
             **** THE GBW FILE WAS UPDATED (CONFS/Conf223.orca.gbw) ****
             **** DENSITY CONFS/Conf223.orca.scfp WAS UPDATED ****
----------------
ORBITAL ENERGIES
----------------

  NO   OCC          E(Eh)            E(eV) 
   0   2.0000     -91.888191     -2500.4048 
   1   2.0000     -20.593736      -560.3840 
   2   2.0000     -20.593099      -560.3667 
   3   2.0000     -20.552369      -559.2584 
   4   2.0000     -15.627932      -425.2576 
   5   2.0000     -15.607407      -424.6991 
   6   2.0000     -11.396612      -310.1176 
   7   2.0000     -11.383430      -309.7589 
   8   2.0000     -11.333743      -308.4068 
   9   2.0000     -11.309833      -307.7562 
  10   2.0000     -11.307346      -307.6885 
  11   2.0000     -11.300452      -307.5009 
  12   2.0000     -11.259936      -306.3984 
  13   2.0000     -11.259212      -306.3787 
  14   2.0000     -11.255642      -306.2816 
  15   2.0000     -11.250064      -306.1298 
  16   2.0000     -11.239673      -305.8470 
  17   2.0000     -11.235607      -305.7364 
  18   2.0000     -11.232831      -305.6609 
  19   2.0000     -11.221778      -305.3601 
  20   2.0000      -8.893263      -241.9980 
  21   2.0000      -6.574842      -178.9105 
  22   2.0000      -6.572832      -178.8559 
  23   2.0000      -6.572248      -178.8400 
  24   2.0000      -1.453535       -39.5527 
  25   2.0000      -1.413487       -38.4629 
  26   2.0000      -1.357883       -36.9499 
  27   2.0000      -1.339073       -36.4380 
  28   2.0000      -1.237142       -33.6643 
  29   2.0000      -1.154164       -31.4064 
  30   2.0000      -1.120353       -30.4864 
  31   2.0000      -1.043027       -28.3822 
  32   2.0000      -1.032717       -28.1017 
  33   2.0000      -1.011567       -27.5261 
  34   2.0000      -0.997692       -27.1486 
  35   2.0000      -0.983021       -26.7494 
  36   2.0000      -0.922167       -25.0934 
  37   2.0000      -0.887155       -24.1407 
  38   2.0000      -0.847940       -23.0736 
  39   2.0000      -0.837127       -22.7794 
  40   2.0000      -0.830145       -22.5894 
  41   2.0000      -0.822053       -22.3692 
  42   2.0000      -0.753006       -20.4903 
  43   2.0000      -0.733889       -19.9701 
  44   2.0000      -0.726658       -19.7734 
  45   2.0000      -0.692420       -18.8417 
  46   2.0000      -0.685779       -18.6610 
  47   2.0000      -0.680793       -18.5253 
  48   2.0000      -0.672159       -18.2904 
  49   2.0000      -0.661629       -18.0038 
  50   2.0000      -0.646296       -17.5866 
  51   2.0000      -0.641307       -17.4509 
  52   2.0000      -0.632305       -17.2059 
  53   2.0000      -0.606452       -16.5024 
  54   2.0000      -0.601694       -16.3729 
  55   2.0000      -0.599754       -16.3201 
  56   2.0000      -0.596656       -16.2358 
  57   2.0000      -0.585324       -15.9275 
  58   2.0000      -0.574753       -15.6398 
  59   2.0000      -0.567776       -15.4500 
  60   2.0000      -0.561313       -15.2741 
  61   2.0000      -0.547330       -14.8936 
  62   2.0000      -0.534815       -14.5531 
  63   2.0000      -0.519358       -14.1325 
  64   2.0000      -0.516473       -14.0539 
  65   2.0000      -0.511154       -13.9092 
  66   2.0000      -0.502678       -13.6786 
  67   2.0000      -0.496660       -13.5148 
  68   2.0000      -0.481001       -13.0887 
  69   2.0000      -0.462923       -12.5968 
  70   2.0000      -0.455328       -12.3901 
  71   2.0000      -0.453882       -12.3508 
  72   2.0000      -0.353644        -9.6231 
  73   2.0000      -0.345953        -9.4139 
  74   2.0000      -0.327435        -8.9099 
  75   2.0000      -0.317053        -8.6275 
  76   2.0000      -0.314985        -8.5712 
  77   0.0000       0.073829         2.0090 
  78   0.0000       0.109079         2.9682 
  79   0.0000       0.120897         3.2898 
  80   0.0000       0.134292         3.6543 
  81   0.0000       0.138921         3.7802 
  82   0.0000       0.146204         3.9784 
  83   0.0000       0.151776         4.1300 
  84   0.0000       0.157284         4.2799 
  85   0.0000       0.162756         4.4288 
  86   0.0000       0.166583         4.5330 
  87   0.0000       0.177486         4.8296 
  88   0.0000       0.192640         5.2420 
  89   0.0000       0.193747         5.2721 
  90   0.0000       0.197300         5.3688 
  91   0.0000       0.208791         5.6815 
  92   0.0000       0.211790         5.7631 
  93   0.0000       0.216449         5.8899 
  94   0.0000       0.222674         6.0593 
  95   0.0000       0.235186         6.3997 
  96   0.0000       0.240149         6.5348 
  97   0.0000       0.246706         6.7132 
  98   0.0000       0.253238         6.8910 
  99   0.0000       0.278679         7.5832 
 100   0.0000       0.291624         7.9355 
 101   0.0000       0.302925         8.2430 
 102   0.0000       0.308410         8.3923 
 103   0.0000       0.317432         8.6378 
 104   0.0000       0.327090         8.9006 
 105   0.0000       0.334414         9.0999 
 106   0.0000       0.340396         9.2626 
 107   0.0000       0.351204         9.5567 
 108   0.0000       0.354841         9.6557 
 109   0.0000       0.369008        10.0412 
 110   0.0000       0.371202        10.1009 
 111   0.0000       0.379675        10.3315 
 112   0.0000       0.385938        10.5019 
 113   0.0000       0.387922        10.5559 
 114   0.0000       0.401212        10.9175 
 115   0.0000       0.405648        11.0382 
 116   0.0000       0.424672        11.5559 
 117   0.0000       0.429923        11.6988 
 118   0.0000       0.433906        11.8072 
 119   0.0000       0.440144        11.9769 
 120   0.0000       0.447264        12.1707 
 121   0.0000       0.451063        12.2740 
 122   0.0000       0.456302        12.4166 
 123   0.0000       0.459707        12.5093 
 124   0.0000       0.460961        12.5434 
 125   0.0000       0.469894        12.7865 
 126   0.0000       0.473939        12.8965 
 127   0.0000       0.490737        13.3536 
 128   0.0000       0.493493        13.4286 
 129   0.0000       0.499462        13.5910 
 130   0.0000       0.502150        13.6642 
 131   0.0000       0.505522        13.7560 
 132   0.0000       0.513797        13.9811 
 133   0.0000       0.516453        14.0534 
 134   0.0000       0.522808        14.2263 
 135   0.0000       0.526380        14.3235 
 136   0.0000       0.532912        14.5013 
 137   0.0000       0.539346        14.6764 
 138   0.0000       0.540237        14.7006 
 139   0.0000       0.544836        14.8258 
 140   0.0000       0.555253        15.1092 
 141   0.0000       0.558152        15.1881 
 142   0.0000       0.566696        15.4206 
 143   0.0000       0.568643        15.4736 
 144   0.0000       0.573879        15.6160 
 145   0.0000       0.578642        15.7457 
 146   0.0000       0.582495        15.8505 
 147   0.0000       0.584371        15.9015 
 148   0.0000       0.596061        16.2196 
 149   0.0000       0.597891        16.2694 
 150   0.0000       0.604883        16.4597 
 151   0.0000       0.608752        16.5650 
 152   0.0000       0.613457        16.6930 
 153   0.0000       0.619385        16.8543 
 154   0.0000       0.623429        16.9644 
 155   0.0000       0.625235        17.0135 
 156   0.0000       0.629704        17.1351 
 157   0.0000       0.634480        17.2651 
 158   0.0000       0.635518        17.2933 
 159   0.0000       0.637056        17.3352 
 160   0.0000       0.643562        17.5122 
 161   0.0000       0.648190        17.6381 
 162   0.0000       0.652714        17.7613 
 163   0.0000       0.653606        17.7855 
 164   0.0000       0.663089        18.0436 
 165   0.0000       0.669043        18.2056 
 166   0.0000       0.674458        18.3529 
 167   0.0000       0.683058        18.5869 
 168   0.0000       0.689480        18.7617 
 169   0.0000       0.693817        18.8797 
 170   0.0000       0.702466        19.1151 
 171   0.0000       0.707739        19.2586 
 172   0.0000       0.709521        19.3071 
 173   0.0000       0.719907        19.5897 
 174   0.0000       0.722899        19.6711 
 175   0.0000       0.731496        19.9050 
 176   0.0000       0.738733        20.1019 
 177   0.0000       0.745771        20.2935 
 178   0.0000       0.749659        20.3993 
 179   0.0000       0.750854        20.4318 
 180   0.0000       0.754734        20.5373 
 181   0.0000       0.763199        20.7677 
 182   0.0000       0.772587        21.0232 
 183   0.0000       0.781695        21.2710 
 184   0.0000       0.788430        21.4543 
 185   0.0000       0.804315        21.8865 
 186   0.0000       0.809430        22.0257 
 187   0.0000       0.817675        22.2501 
 188   0.0000       0.821845        22.3636 
 189   0.0000       0.832481        22.6530 
 190   0.0000       0.835994        22.7486 
 191   0.0000       0.845842        23.0165 
 192   0.0000       0.855991        23.2927 
 193   0.0000       0.860466        23.4145 
 194   0.0000       0.865853        23.5611 
 195   0.0000       0.874268        23.7900 
 196   0.0000       0.884836        24.0776 
 197   0.0000       0.889726        24.2107 
 198   0.0000       0.898126        24.4392 
 199   0.0000       0.904381        24.6095 
 200   0.0000       0.912777        24.8379 
 201   0.0000       0.920981        25.0612 
 202   0.0000       0.929191        25.2846 
 203   0.0000       0.936967        25.4962 
 204   0.0000       0.944630        25.7047 
 205   0.0000       0.949524        25.8379 
 206   0.0000       0.956667        26.0322 
 207   0.0000       0.969085        26.3701 
 208   0.0000       0.974635        26.5212 
 209   0.0000       0.979629        26.6571 
 210   0.0000       0.983571        26.7643 
 211   0.0000       0.987381        26.8680 
 212   0.0000       0.998402        27.1679 
 213   0.0000       1.005161        27.3518 
 214   0.0000       1.011247        27.5174 
 215   0.0000       1.020683        27.7742 
 216   0.0000       1.027372        27.9562 
 217   0.0000       1.028687        27.9920 
 218   0.0000       1.032414        28.0934 
 219   0.0000       1.043186        28.3865 
 220   0.0000       1.047740        28.5105 
 221   0.0000       1.057475        28.7754 
 222   0.0000       1.067996        29.0617 
 223   0.0000       1.075800        29.2740 
 224   0.0000       1.082903        29.4673 
 225   0.0000       1.095171        29.8011 
 226   0.0000       1.102391        29.9976 
 227   0.0000       1.105945        30.0943 
 228   0.0000       1.113371        30.2964 
 229   0.0000       1.118000        30.4223 
 230   0.0000       1.130625        30.7659 
 231   0.0000       1.136754        30.9326 
 232   0.0000       1.141823        31.0706 
 233   0.0000       1.150492        31.3065 
 234   0.0000       1.160431        31.5769 
 235   0.0000       1.162388        31.6302 
 236   0.0000       1.175963        31.9996 
 237   0.0000       1.177959        32.0539 
 238   0.0000       1.179498        32.0958 
 239   0.0000       1.186229        32.2789 
 240   0.0000       1.191671        32.4270 
 241   0.0000       1.199261        32.6336 
 242   0.0000       1.206400        32.8278 
 243   0.0000       1.212259        32.9872 
 244   0.0000       1.218037        33.1445 
 245   0.0000       1.227851        33.4115 
 246   0.0000       1.233503        33.5653 
 247   0.0000       1.239480        33.7280 
 248   0.0000       1.243837        33.8465 
 249   0.0000       1.250272        34.0216 
 250   0.0000       1.258146        34.2359 
 251   0.0000       1.266872        34.4734 
 252   0.0000       1.273088        34.6425 
 253   0.0000       1.282625        34.9020 
 254   0.0000       1.289489        35.0888 
 255   0.0000       1.289961        35.1016 
 256   0.0000       1.305908        35.5356 
 257   0.0000       1.308272        35.5999 
 258   0.0000       1.323210        36.0064 
 259   0.0000       1.328450        36.1490 
 260   0.0000       1.335100        36.3299 
 261   0.0000       1.343755        36.5654 
 262   0.0000       1.357707        36.9451 
 263   0.0000       1.365012        37.1439 
 264   0.0000       1.370277        37.2871 
 265   0.0000       1.372565        37.3494 
 266   0.0000       1.387169        37.7468 
 267   0.0000       1.398305        38.0498 
 268   0.0000       1.406901        38.2837 
 269   0.0000       1.409634        38.3581 
 270   0.0000       1.422428        38.7062 
 271   0.0000       1.426879        38.8273 
 272   0.0000       1.434726        39.0409 
 273   0.0000       1.442572        39.2544 
 274   0.0000       1.450418        39.4679 
 275   0.0000       1.458488        39.6875 
 276   0.0000       1.467543        39.9339 
 277   0.0000       1.477997        40.2183 
 278   0.0000       1.483472        40.3673 
 279   0.0000       1.486038        40.4372 
 280   0.0000       1.493470        40.6394 
 281   0.0000       1.499642        40.8073 
 282   0.0000       1.503261        40.9058 
 283   0.0000       1.511086        41.1187 
 284   0.0000       1.516583        41.2683 
 285   0.0000       1.520915        41.3862 
 286   0.0000       1.525892        41.5216 
 287   0.0000       1.539686        41.8970 
 288   0.0000       1.539962        41.9045 
 289   0.0000       1.547745        42.1163 
 290   0.0000       1.552157        42.2363 
 291   0.0000       1.558484        42.4085 
 292   0.0000       1.568381        42.6778 
 293   0.0000       1.577258        42.9194 
 294   0.0000       1.594211        43.3807 
 295   0.0000       1.599145        43.5150 
 296   0.0000       1.602081        43.5948 
 297   0.0000       1.606916        43.7264 
 298   0.0000       1.616830        43.9962 
 299   0.0000       1.622997        44.1640 
 300   0.0000       1.628282        44.3078 
 301   0.0000       1.636203        44.5234 
 302   0.0000       1.645206        44.7683 
 303   0.0000       1.646639        44.8073 
 304   0.0000       1.656903        45.0866 
 305   0.0000       1.670628        45.4601 
 306   0.0000       1.674142        45.5557 
 307   0.0000       1.690773        46.0083 
 308   0.0000       1.700003        46.2594 
 309   0.0000       1.709924        46.5294 
 310   0.0000       1.714078        46.6424 
 311   0.0000       1.725234        46.9460 
 312   0.0000       1.731665        47.1210 
 313   0.0000       1.736306        47.2473 
 314   0.0000       1.750584        47.6358 
 315   0.0000       1.758931        47.8629 
 316   0.0000       1.764480        48.0139 
 317   0.0000       1.772041        48.2197 
 318   0.0000       1.777716        48.3741 
 319   0.0000       1.797070        48.9008 
 320   0.0000       1.802091        49.0374 
 321   0.0000       1.819326        49.5064 
 322   0.0000       1.825995        49.6879 
 323   0.0000       1.840565        50.0843 
 324   0.0000       1.847085        50.2617 
 325   0.0000       1.862072        50.6695 
 326   0.0000       1.872588        50.9557 
 327   0.0000       1.884962        51.2924 
 328   0.0000       1.907681        51.9106 
 329   0.0000       1.915106        52.1127 
 330   0.0000       1.931374        52.5554 
 331   0.0000       1.935809        52.6760 
 332   0.0000       1.941383        52.8277 
 333   0.0000       1.964327        53.4521 
 334   0.0000       1.965808        53.4924 
 335   0.0000       1.974565        53.7306 
 336   0.0000       1.984206        53.9930 
 337   0.0000       2.001274        54.4574 
 338   0.0000       2.019681        54.9583 
 339   0.0000       2.023782        55.0699 
 340   0.0000       2.030141        55.2429 
 341   0.0000       2.032112        55.2966 
 342   0.0000       2.049557        55.7713 
 343   0.0000       2.060943        56.0811 
 344   0.0000       2.077959        56.5441 
 345   0.0000       2.099653        57.1345 
 346   0.0000       2.120005        57.6883 
 347   0.0000       2.128600        57.9222 
 348   0.0000       2.149024        58.4779 
 349   0.0000       2.156827        58.6902 
 350   0.0000       2.181767        59.3689 
 351   0.0000       2.198392        59.8213 
 352   0.0000       2.214439        60.2580 
 353   0.0000       2.231268        60.7159 
 354   0.0000       2.232291        60.7437 
 355   0.0000       2.250494        61.2391 
 356   0.0000       2.281335        62.0783 
 357   0.0000       2.289616        62.3036 
 358   0.0000       2.301485        62.6266 
 359   0.0000       2.307806        62.7986 
 360   0.0000       2.315762        63.0151 
 361   0.0000       2.325372        63.2766 
 362   0.0000       2.344762        63.8042 
 363   0.0000       2.358888        64.1886 
 364   0.0000       2.362013        64.2736 
 365   0.0000       2.367512        64.4233 
 366   0.0000       2.388386        64.9913 
 367   0.0000       2.398784        65.2742 
 368   0.0000       2.410842        65.6023 
 369   0.0000       2.421984        65.9055 
 370   0.0000       2.437813        66.3363 
 371   0.0000       2.446811        66.5811 
 372   0.0000       2.465447        67.0882 
 373   0.0000       2.472646        67.2841 
 374   0.0000       2.483965        67.5921 
 375   0.0000       2.503723        68.1298 
 376   0.0000       2.513630        68.3993 
 377   0.0000       2.518474        68.5312 
 378   0.0000       2.536477        69.0210 
 379   0.0000       2.564250        69.7768 
 380   0.0000       2.578063        70.1527 
 381   0.0000       2.582813        70.2819 
 382   0.0000       2.586226        70.3748 
 383   0.0000       2.607473        70.9530 
 384   0.0000       2.616037        71.1860 
 385   0.0000       2.626551        71.4721 
 386   0.0000       2.635266        71.7092 
 387   0.0000       2.636516        71.7433 
 388   0.0000       2.656255        72.2804 
 389   0.0000       2.660444        72.3944 
 390   0.0000       2.677965        72.8711 
 391   0.0000       2.685250        73.0694 
 392   0.0000       2.702695        73.5441 
 393   0.0000       2.708992        73.7154 
 394   0.0000       2.714450        73.8639 
 395   0.0000       2.731172        74.3190 
 396   0.0000       2.742734        74.6336 
 397   0.0000       2.748825        74.7993 
 398   0.0000       2.755652        74.9851 
 399   0.0000       2.764975        75.2388 
 400   0.0000       2.772049        75.4313 
 401   0.0000       2.781425        75.6864 
 402   0.0000       2.798907        76.1621 
 403   0.0000       2.803256        76.2805 
 404   0.0000       2.808543        76.4243 
 405   0.0000       2.830055        77.0097 
 406   0.0000       2.837774        77.2198 
 407   0.0000       2.839286        77.2609 
 408   0.0000       2.851820        77.6020 
 409   0.0000       2.859626        77.8144 
 410   0.0000       2.866238        77.9943 
 411   0.0000       2.877162        78.2916 
 412   0.0000       2.883189        78.4556 
 413   0.0000       2.893556        78.7377 
 414   0.0000       2.909346        79.1673 
 415   0.0000       2.913092        79.2693 
 416   0.0000       2.930684        79.7480 
 417   0.0000       2.939387        79.9848 
 418   0.0000       2.945748        80.1579 
 419   0.0000       2.953028        80.3560 
 420   0.0000       2.964947        80.6803 
 421   0.0000       2.975341        80.9632 
 422   0.0000       2.979815        81.0849 
 423   0.0000       2.993384        81.4541 
 424   0.0000       2.998374        81.5899 
 425   0.0000       3.007000        81.8246 
 426   0.0000       3.014829        82.0377 
 427   0.0000       3.024693        82.3061 
 428   0.0000       3.030266        82.4577 
 429   0.0000       3.037895        82.6653 
 430   0.0000       3.044930        82.8568 
 431   0.0000       3.053727        83.0961 
 432   0.0000       3.067171        83.4620 
 433   0.0000       3.070162        83.5434 
 434   0.0000       3.078426        83.7682 
 435   0.0000       3.083774        83.9138 
 436   0.0000       3.089504        84.0697 
 437   0.0000       3.098651        84.3186 
 438   0.0000       3.103731        84.4568 
 439   0.0000       3.105426        84.5029 
 440   0.0000       3.116208        84.7963 
 441   0.0000       3.119403        84.8833 
 442   0.0000       3.127046        85.0913 
 443   0.0000       3.132149        85.2301 
 444   0.0000       3.138059        85.3909 
 445   0.0000       3.145474        85.5927 
 446   0.0000       3.160400        85.9988 
 447   0.0000       3.173158        86.3460 
 448   0.0000       3.180399        86.5430 
 449   0.0000       3.182949        86.6124 
 450   0.0000       3.192772        86.8797 
 451   0.0000       3.201033        87.1045 
 452   0.0000       3.203586        87.1740 
 453   0.0000       3.215879        87.5085 
 454   0.0000       3.223404        87.7133 
 455   0.0000       3.226966        87.8102 
 456   0.0000       3.233606        87.9909 
 457   0.0000       3.243963        88.2727 
 458   0.0000       3.248038        88.3836 
 459   0.0000       3.254967        88.5721 
 460   0.0000       3.271813        89.0305 
 461   0.0000       3.272445        89.0477 
 462   0.0000       3.274600        89.1064 
 463   0.0000       3.292405        89.5909 
 464   0.0000       3.299358        89.7801 
 465   0.0000       3.306716        89.9803 
 466   0.0000       3.309541        90.0572 
 467   0.0000       3.316129        90.2365 
 468   0.0000       3.321561        90.3843 
 469   0.0000       3.332583        90.6842 
 470   0.0000       3.338002        90.8317 
 471   0.0000       3.339770        90.8798 
 472   0.0000       3.347361        91.0863 
 473   0.0000       3.352336        91.2217 
 474   0.0000       3.360249        91.4370 
 475   0.0000       3.372441        91.7688 
 476   0.0000       3.374506        91.8250 
 477   0.0000       3.377548        91.9078 
 478   0.0000       3.387786        92.1863 
 479   0.0000       3.391186        92.2789 
 480   0.0000       3.400156        92.5229 
 481   0.0000       3.401434        92.5577 
 482   0.0000       3.403509        92.6142 
 483   0.0000       3.408095        92.7390 
 484   0.0000       3.413016        92.8729 
 485   0.0000       3.417748        93.0017 
 486   0.0000       3.421342        93.0994 
 487   0.0000       3.427846        93.2764 
 488   0.0000       3.438413        93.5640 
 489   0.0000       3.442094        93.6641 
 490   0.0000       3.443754        93.7093 
 491   0.0000       3.447340        93.8069 
 492   0.0000       3.456210        94.0483 
 493   0.0000       3.457668        94.0879 
 494   0.0000       3.466185        94.3197 
 495   0.0000       3.472614        94.4946 
 496   0.0000       3.479764        94.6892 
 497   0.0000       3.489310        94.9489 
 498   0.0000       3.497437        95.1701 
 499   0.0000       3.502871        95.3180 
 500   0.0000       3.508423        95.4691 
 501   0.0000       3.518370        95.7397 
 502   0.0000       3.523457        95.8781 
 503   0.0000       3.531753        96.1039 
 504   0.0000       3.540113        96.3314 
 505   0.0000       3.548298        96.5541 
 506   0.0000       3.559614        96.8620 
 507   0.0000       3.573944        97.2519 
 508   0.0000       3.576006        97.3081 
 509   0.0000       3.581145        97.4479 
 510   0.0000       3.588522        97.6487 
 511   0.0000       3.595179        97.8298 
 512   0.0000       3.613660        98.3327 
 513   0.0000       3.617966        98.4498 
 514   0.0000       3.621766        98.5533 
 515   0.0000       3.624206        98.6197 
 516   0.0000       3.630237        98.7838 
 517   0.0000       3.636047        98.9419 
 518   0.0000       3.637156        98.9721 
 519   0.0000       3.643887        99.1552 
 520   0.0000       3.652369        99.3860 
 521   0.0000       3.655821        99.4799 
 522   0.0000       3.666464        99.7696 
 523   0.0000       3.667180        99.7890 
 524   0.0000       3.671255        99.8999 
 525   0.0000       3.682534       100.2068 
 526   0.0000       3.687375       100.3386 
 527   0.0000       3.694978       100.5455 
 528   0.0000       3.703608       100.7803 
 529   0.0000       3.706842       100.8683 
 530   0.0000       3.715233       101.0966 
 531   0.0000       3.719994       101.2262 
 532   0.0000       3.731962       101.5519 
 533   0.0000       3.740997       101.7977 
 534   0.0000       3.745731       101.9265 
 535   0.0000       3.753382       102.1347 
 536   0.0000       3.755226       102.1849 
 537   0.0000       3.760986       102.3416 
 538   0.0000       3.770302       102.5951 
 539   0.0000       3.779366       102.8418 
 540   0.0000       3.780005       102.8592 
 541   0.0000       3.789923       103.1290 
 542   0.0000       3.795963       103.2934 
 543   0.0000       3.802604       103.4741 
 544   0.0000       3.810213       103.6812 
 545   0.0000       3.814367       103.7942 
 546   0.0000       3.822049       104.0032 
 547   0.0000       3.828248       104.1719 
 548   0.0000       3.840920       104.5168 
 549   0.0000       3.847089       104.6846 
 550   0.0000       3.850959       104.7899 
 551   0.0000       3.863112       105.1206 
 552   0.0000       3.866790       105.2207 
 553   0.0000       3.871522       105.3495 
 554   0.0000       3.894027       105.9619 
 555   0.0000       3.901307       106.1600 
 556   0.0000       3.910942       106.4221 
 557   0.0000       3.915186       106.5376 
 558   0.0000       3.926757       106.8525 
 559   0.0000       3.930366       106.9507 
 560   0.0000       3.942380       107.2776 
 561   0.0000       3.951983       107.5389 
 562   0.0000       3.962401       107.8224 
 563   0.0000       3.968996       108.0019 
 564   0.0000       3.976684       108.2111 
 565   0.0000       3.982818       108.3780 
 566   0.0000       3.986030       108.4654 
 567   0.0000       3.993648       108.6727 
 568   0.0000       4.003981       108.9539 
 569   0.0000       4.014424       109.2380 
 570   0.0000       4.025458       109.5383 
 571   0.0000       4.028403       109.6184 
 572   0.0000       4.046017       110.0977 
 573   0.0000       4.047504       110.1382 
 574   0.0000       4.054642       110.3324 
 575   0.0000       4.059040       110.4521 
 576   0.0000       4.079784       111.0166 
 577   0.0000       4.087452       111.2252 
 578   0.0000       4.094944       111.4291 
 579   0.0000       4.110466       111.8515 
 580   0.0000       4.116739       112.0222 
 581   0.0000       4.119009       112.0839 
 582   0.0000       4.124523       112.2340 
 583   0.0000       4.130859       112.4064 
 584   0.0000       4.144273       112.7714 
 585   0.0000       4.146611       112.8350 
 586   0.0000       4.157529       113.1321 
 587   0.0000       4.159535       113.1867 
 588   0.0000       4.164367       113.3182 
 589   0.0000       4.171648       113.5163 
 590   0.0000       4.176992       113.6617 
 591   0.0000       4.187690       113.9528 
 592   0.0000       4.189340       113.9977 
 593   0.0000       4.197569       114.2217 
 594   0.0000       4.199205       114.2662 
 595   0.0000       4.207557       114.4935 
 596   0.0000       4.217281       114.7581 
 597   0.0000       4.221709       114.8785 
 598   0.0000       4.226691       115.0141 
 599   0.0000       4.243114       115.4610 
 600   0.0000       4.244816       115.5073 
 601   0.0000       4.254785       115.7786 
 602   0.0000       4.266030       116.0846 
 603   0.0000       4.273191       116.2794 
 604   0.0000       4.277518       116.3972 
 605   0.0000       4.289290       116.7175 
 606   0.0000       4.301837       117.0589 
 607   0.0000       4.303816       117.1128 
 608   0.0000       4.319656       117.5438 
 609   0.0000       4.325234       117.6956 
 610   0.0000       4.338476       118.0559 
 611   0.0000       4.341399       118.1355 
 612   0.0000       4.343850       118.2022 
 613   0.0000       4.352127       118.4274 
 614   0.0000       4.354206       118.4840 
 615   0.0000       4.366115       118.8080 
 616   0.0000       4.371840       118.9638 
 617   0.0000       4.377168       119.1088 
 618   0.0000       4.385828       119.3444 
 619   0.0000       4.390189       119.4631 
 620   0.0000       4.410080       120.0044 
 621   0.0000       4.412543       120.0714 
 622   0.0000       4.416695       120.1844 
 623   0.0000       4.430724       120.5661 
 624   0.0000       4.440198       120.8239 
 625   0.0000       4.446636       120.9991 
 626   0.0000       4.456629       121.2710 
 627   0.0000       4.460076       121.3648 
 628   0.0000       4.472372       121.6994 
 629   0.0000       4.485585       122.0590 
 630   0.0000       4.501259       122.4855 
 631   0.0000       4.509294       122.7041 
 632   0.0000       4.515855       122.8827 
 633   0.0000       4.524284       123.1120 
 634   0.0000       4.531452       123.3071 
 635   0.0000       4.542525       123.6084 
 636   0.0000       4.544989       123.6755 
 637   0.0000       4.552927       123.8914 
 638   0.0000       4.561581       124.1269 
 639   0.0000       4.566087       124.2495 
 640   0.0000       4.578649       124.5914 
 641   0.0000       4.585364       124.7741 
 642   0.0000       4.596298       125.0716 
 643   0.0000       4.602797       125.2485 
 644   0.0000       4.608905       125.4147 
 645   0.0000       4.627742       125.9273 
 646   0.0000       4.631701       126.0350 
 647   0.0000       4.639618       126.2504 
 648   0.0000       4.643920       126.3675 
 649   0.0000       4.651290       126.5680 
 650   0.0000       4.657603       126.7398 
 651   0.0000       4.666931       126.9936 
 652   0.0000       4.669974       127.0765 
 653   0.0000       4.675595       127.2294 
 654   0.0000       4.689716       127.6137 
 655   0.0000       4.699406       127.8774 
 656   0.0000       4.706902       128.0813 
 657   0.0000       4.716456       128.3413 
 658   0.0000       4.732607       128.7808 
 659   0.0000       4.733765       128.8123 
 660   0.0000       4.755245       129.3968 
 661   0.0000       4.762513       129.5946 
 662   0.0000       4.774969       129.9335 
 663   0.0000       4.781051       130.0990 
 664   0.0000       4.802688       130.6878 
 665   0.0000       4.829702       131.4229 
 666   0.0000       4.838403       131.6596 
 667   0.0000       4.855897       132.1357 
 668   0.0000       4.865805       132.4053 
 669   0.0000       4.876363       132.6926 
 670   0.0000       4.904214       133.4505 
 671   0.0000       4.919871       133.8765 
 672   0.0000       4.927920       134.0955 
 673   0.0000       4.938651       134.3875 
 674   0.0000       4.963291       135.0580 
 675   0.0000       4.972361       135.3048 
 676   0.0000       5.004753       136.1863 
 677   0.0000       5.012438       136.3954 
 678   0.0000       5.021100       136.6311 
 679   0.0000       5.028193       136.8241 
 680   0.0000       5.053067       137.5009 
 681   0.0000       5.068616       137.9240 
 682   0.0000       5.092355       138.5700 
 683   0.0000       5.097753       138.7169 
 684   0.0000       5.107041       138.9696 
 685   0.0000       5.112679       139.1231 
 686   0.0000       5.125580       139.4741 
 687   0.0000       5.140043       139.8677 
 688   0.0000       5.143937       139.9736 
 689   0.0000       5.154791       140.2690 
 690   0.0000       5.168611       140.6451 
 691   0.0000       5.175401       140.8298 
 692   0.0000       5.186336       141.1274 
 693   0.0000       5.194111       141.3389 
 694   0.0000       5.205573       141.6508 
 695   0.0000       5.214004       141.8803 
 696   0.0000       5.224658       142.1702 
 697   0.0000       5.232116       142.3731 
 698   0.0000       5.241522       142.6291 
 699   0.0000       5.252274       142.9216 
 700   0.0000       5.257991       143.0772 
 701   0.0000       5.274165       143.5173 
 702   0.0000       5.300151       144.2244 
 703   0.0000       5.322824       144.8414 
 704   0.0000       5.325297       144.9087 
 705   0.0000       5.337163       145.2316 
 706   0.0000       5.344478       145.4306 
 707   0.0000       5.353029       145.6633 
 708   0.0000       5.368462       146.0833 
 709   0.0000       5.377593       146.3318 
 710   0.0000       5.388556       146.6301 
 711   0.0000       5.404626       147.0673 
 712   0.0000       5.431971       147.8114 
 713   0.0000       5.453587       148.3996 
 714   0.0000       5.466778       148.7586 
 715   0.0000       5.484654       149.2450 
 716   0.0000       5.506739       149.8460 
 717   0.0000       5.509083       149.9098 
 718   0.0000       5.513676       150.0347 
 719   0.0000       5.525868       150.3665 
 720   0.0000       5.536045       150.6435 
 721   0.0000       5.545550       150.9021 
 722   0.0000       5.555255       151.1662 
 723   0.0000       5.570044       151.5686 
 724   0.0000       5.584592       151.9645 
 725   0.0000       5.596521       152.2891 
 726   0.0000       5.614802       152.7865 
 727   0.0000       5.619962       152.9269 
 728   0.0000       5.634473       153.3218 
 729   0.0000       5.644881       153.6050 
 730   0.0000       5.651004       153.7716 
 731   0.0000       5.662350       154.0804 
 732   0.0000       5.672736       154.3630 
 733   0.0000       5.680241       154.5672 
 734   0.0000       5.704187       155.2188 
 735   0.0000       5.706990       155.2951 
 736   0.0000       5.714944       155.5115 
 737   0.0000       5.728832       155.8895 
 738   0.0000       5.733388       156.0134 
 739   0.0000       5.751513       156.5066 
 740   0.0000       5.764866       156.8700 
 741   0.0000       5.770999       157.0369 
 742   0.0000       5.790993       157.5809 
 743   0.0000       5.800274       157.8335 
 744   0.0000       5.820020       158.3708 
 745   0.0000       5.845018       159.0510 
 746   0.0000       5.850864       159.2101 
 747   0.0000       5.867025       159.6499 
 748   0.0000       5.903784       160.6501 
 749   0.0000       5.927640       161.2993 
 750   0.0000       5.935882       161.5235 
 751   0.0000       5.975051       162.5894 
 752   0.0000       5.982771       162.7995 
 753   0.0000       5.995090       163.1347 
 754   0.0000       6.013512       163.6360 
 755   0.0000       6.033357       164.1760 
 756   0.0000       6.057086       164.8217 
 757   0.0000       6.059412       164.8850 
 758   0.0000       6.078081       165.3930 
 759   0.0000       6.096480       165.8936 
 760   0.0000       6.103943       166.0967 
 761   0.0000       6.171278       167.9290 
 762   0.0000       6.221919       169.3070 
 763   0.0000       6.224169       169.3682 
 764   0.0000       6.236973       169.7167 
 765   0.0000       6.264772       170.4731 
 766   0.0000       6.273868       170.7206 
 767   0.0000       6.321471       172.0160 
 768   0.0000       6.350190       172.7974 
 769   0.0000       6.358369       173.0200 
 770   0.0000       6.367895       173.2792 
 771   0.0000       6.382803       173.6849 
 772   0.0000       6.405972       174.3154 
 773   0.0000       6.430394       174.9799 
 774   0.0000       6.456092       175.6792 
 775   0.0000       6.461426       175.8243 
 776   0.0000       6.501219       176.9072 
 777   0.0000       6.559168       178.4840 
 778   0.0000       6.591496       179.3637 
 779   0.0000       6.607730       179.8055 
 780   0.0000       6.640187       180.6887 
 781   0.0000       6.676194       181.6685 
 782   0.0000       6.724789       182.9908 
 783   0.0000       6.753374       183.7687 
 784   0.0000       6.794840       184.8970 
 785   0.0000       6.879925       187.2123 
 786   0.0000       6.913841       188.1352 
 787   0.0000       6.925607       188.4554 
 788   0.0000       6.995348       190.3531 
 789   0.0000       7.000691       190.4985 
 790   0.0000       7.054998       191.9763 
 791   0.0000       7.064188       192.2263 
 792   0.0000       7.085143       192.7966 
 793   0.0000       7.136717       194.1999 
 794   0.0000       7.224779       196.5962 
 795   0.0000       7.262669       197.6273 
 796   0.0000       7.271855       197.8772 
 797   0.0000       7.284882       198.2317 
 798   0.0000       7.343591       199.8293 
 799   0.0000       7.355448       200.1519 
 800   0.0000       7.386995       201.0103 
 801   0.0000       7.573808       206.0938 
 802   0.0000       7.584907       206.3958 
 803   0.0000       7.599468       206.7920 
 804   0.0000       7.663036       208.5218 
 805   0.0000       7.816602       212.7005 
 806   0.0000       7.826083       212.9585 
 807   0.0000       7.890003       214.6979 
 808   0.0000       7.937323       215.9856 
 809   0.0000       9.353454       254.5204 
 810   0.0000       9.592078       261.0137 
 811   0.0000      10.838334       294.9261 
 812   0.0000      11.342031       308.6324 
 813   0.0000      11.816901       321.5542 
 814   0.0000      12.589220       342.5701 
 815   0.0000      12.922979       351.6521 
 816   0.0000      13.050318       355.1172 
 817   0.0000      13.079308       355.9061 
 818   0.0000      13.176569       358.5527 
 819   0.0000      13.401792       364.6813 
 820   0.0000      13.475721       366.6930 
 821   0.0000      13.780939       374.9984 
 822   0.0000      13.887622       377.9014 
 823   0.0000      13.940159       379.3310 
 824   0.0000      14.006570       381.1382 
 825   0.0000      14.551322       395.9616 
 826   0.0000      14.671407       399.2293 
 827   0.0000      15.952001       434.0760 

                    ********************************
                    * MULLIKEN POPULATION ANALYSIS *
                    ********************************

-----------------------
MULLIKEN ATOMIC CHARGES
-----------------------
   0 C :   -0.280349
   1 C :    0.045048
   2 O :   -0.361631
   3 C :    0.425309
   4 O :   -0.414435
   5 C :   -0.151888
   6 C :    0.138189
   7 C :   -0.282552
   8 N :   -0.123474
   9 C :    0.202561
  10 S :   -0.440065
  11 N :   -0.199453
  12 C :    0.044907
  13 C :    0.050353
  14 C :   -0.164896
  15 C :   -0.134029
  16 C :   -0.280450
  17 C :    0.311496
  18 O :   -0.358446
  19 C :   -0.272649
  20 H :    0.117275
  21 H :    0.090109
  22 H :    0.089524
  23 H :    0.098947
  24 H :    0.100967
  25 H :    0.123851
  26 H :    0.102326
  27 H :    0.126920
  28 H :    0.197000
  29 H :    0.193901
  30 H :    0.154466
  31 H :    0.155101
  32 H :    0.160218
  33 H :    0.129368
  34 H :    0.240318
  35 H :    0.166163
Sum of atomic charges:   -0.0000000

--------------------------------
MULLIKEN REDUCED ORBITAL CHARGES
--------------------------------
  0 C s       :     3.258312  s :     3.258312
      pz      :     0.951352  p :     2.945611
      px      :     1.029092
      py      :     0.965167
      dz2     :     0.023331  d :     0.071924
      dxz     :     0.003940
      dyz     :     0.018293
      dx2y2   :     0.006173
      dxy     :     0.020187
      f0      :     0.000504  f :     0.004502
      f+1     :     0.000125
      f-1     :     0.001684
      f+2     :     0.000651
      f-2     :     0.000335
      f+3     :     0.000331
      f-3     :     0.000871
  1 C s       :     3.165733  s :     3.165733
      pz      :     0.977429  p :     2.624678
      px      :     0.846664
      py      :     0.800586
      dz2     :     0.032869  d :     0.152898
      dxz     :     0.019265
      dyz     :     0.029904
      dx2y2   :     0.028695
      dxy     :     0.042165
      f0      :     0.001327  f :     0.011642
      f+1     :     0.000992
      f-1     :     0.002164
      f+2     :     0.000704
      f-2     :     0.002064
      f+3     :     0.002078
      f-3     :     0.002314
  2 O s       :     3.718775  s :     3.718775
      pz      :     1.731726  p :     4.607920
      px      :     1.228781
      py      :     1.647413
      dz2     :     0.003665  d :     0.032649
      dxz     :     0.008004
      dyz     :     0.003717
      dx2y2   :     0.008704
      dxy     :     0.008559
      f0      :     0.000257  f :     0.002287
      f+1     :     0.000355
      f-1     :     0.000131
      f+2     :     0.000381
      f-2     :     0.000248
      f+3     :     0.000504
      f-3     :     0.000411
[...]
 15 C s       :     2.705754  s :     2.705754
      pz      :     0.914434  p :     2.796956
      px      :     0.920146
      py      :     0.962376
      dz2     :     0.097414  d :     0.415789
      dxz     :     0.071414
      dyz     :     0.067675
      dx2y2   :     0.107188
      dxy     :     0.072097
      f0      :     0.003966  f :     0.041004
      f+1     :     0.005638
      f-1     :     0.006181
      f+2     :     0.007576
      f-2     :     0.005922
      f+3     :     0.006335
      f-3     :     0.005387
 16 C s       :     2.701860  s :     2.701860
      pz      :     0.940586  p :     2.869225
      px      :     0.952717
      py      :     0.975922
      dz2     :     0.049176  d :     0.391043
      dxz     :     0.058330
      dyz     :     0.091316
      dx2y2   :     0.093717
      dxy     :     0.098504
      f0      :     0.003818  f :     0.040330
      f+1     :     0.004604
      f-1     :     0.005438
      f+2     :     0.006409
      f-2     :     0.004746
      f+3     :     0.009117
      f-3     :     0.006198
 17 C s       :     2.701510  s :     2.701510
      pz      :     0.870290  p :     2.684304
      px      :     0.822539
      py      :     0.991475
      dz2     :     0.133170  d :     0.708024
      dxz     :     0.102946
      dyz     :     0.150276
      dx2y2   :     0.157269
      dxy     :     0.164363
      f0      :     0.009794  f :     0.099225
      f+1     :     0.014629
      f-1     :     0.011752
      f+2     :     0.017413
      f-2     :     0.013339
      f+3     :     0.018340
      f-3     :     0.013956
 18 O s       :     3.177304  s :     3.177304
      pz      :     1.399881  p :     4.348745
      px      :     1.430539
      py      :     1.518325
      dz2     :     0.009104  d :     0.075564
      dxz     :     0.016510
      dyz     :     0.020233
      dx2y2   :     0.012603
      dxy     :     0.017114
      f0      :     0.000596  f :     0.005075
      f+1     :     0.000645
      f-1     :     0.000582
      f+2     :     0.000653
      f-2     :     0.001079
      f+3     :     0.000737
      f-3     :     0.000783
 19 C s       :     2.695355  s :     2.695355
      pz      :     0.939803  p :     2.846995
      px      :     0.944175
      py      :     0.963017
      dz2     :     0.081471  d :     0.388360
      dxz     :     0.071070
      dyz     :     0.066573
      dx2y2   :     0.094100
      dxy     :     0.075146
      f0      :     0.003885  f :     0.040808
      f+1     :     0.006027
      f-1     :     0.005777
      f+2     :     0.007495
      f-2     :     0.006398
      f+3     :     0.006205
      f-3     :     0.005021
 20 H s       :     0.843953  s :     0.843953
      pz      :     0.038462  p :     0.152889
      px      :     0.067947
      py      :     0.046480
      dz2     :     0.002395  d :     0.027591
      dxz     :     0.006512
      dyz     :     0.002514
      dx2y2   :     0.007917
      dxy     :     0.008253
 21 H s       :     0.851478  s :     0.851478
      pz      :     0.066673  p :     0.150927
      px      :     0.040569
      py      :     0.043684
      dz2     :     0.009327  d :     0.027565
      dxz     :     0.006991
      dyz     :     0.007580
      dx2y2   :     0.001354
      dxy     :     0.002313
 22 H s       :     0.849979  s :     0.849979
      pz      :     0.039198  p :     0.151899
      px      :     0.057023
      py      :     0.055678
      dz2     :     0.002576  d :     0.027450
      dxz     :     0.004047
      dyz     :     0.004858
      dx2y2   :     0.009170
      dxy     :     0.006800
 23 H s       :     0.856153  s :     0.856153
      pz      :     0.040668  p :     0.143868
      px      :     0.066277
      py      :     0.036923
      dz2     :     0.002643  d :     0.026848
      dxz     :     0.007511
      dyz     :     0.002349
      dx2y2   :     0.006975
      dxy     :     0.007371
 24 H s       :     0.853515  s :     0.853515
      pz      :     0.073566  p :     0.145496
      px      :     0.030097
      py      :     0.041832
      dz2     :     0.009864  d :     0.026908
      dxz     :     0.005424
      dyz     :     0.008228
      dx2y2   :     0.001264
      dxy     :     0.002128
 25 H s       :     0.830678  s :     0.830678
      pz      :     0.063340  p :     0.150134
      px      :     0.040820
      py      :     0.045974
      dz2     :     0.008796  d :     0.027686
      dxz     :     0.007042
      dyz     :     0.006918
      dx2y2   :     0.003150
      dxy     :     0.001779
 26 H s       :     0.842449  s :     0.842449
      pz      :     0.038054  p :     0.149989
      px      :     0.039514
      py      :     0.072421
      dz2     :     0.002382  d :     0.027692
      dxz     :     0.000318
      dyz     :     0.009222
      dx2y2   :     0.007041
      dxy     :     0.008728
 27 H s       :     0.830133  s :     0.830133
      pz      :     0.038673  p :     0.151685
      px      :     0.072148
      py      :     0.040864
      dz2     :     0.002665  d :     0.027721
      dxz     :     0.008596
      dyz     :     0.000380
      dx2y2   :     0.007750
      dxy     :     0.008330
 28 H s       :     0.743066  s :     0.743066
      pz      :     0.064772  p :     0.253976
      px      :     0.075335
      py      :     0.113869
      dz2     :     0.006230  d :     0.061842
      dxz     :     0.002047
      dyz     :     0.018142
      dx2y2   :     0.016080
      dxy     :     0.019344
 29 H s       :     0.748542  s :     0.748542
      pz      :     0.110621  p :     0.254068
      px      :     0.101513
      py      :     0.041934
      dz2     :     0.020605  d :     0.061342
      dxz     :     0.015215
      dyz     :     0.008626
      dx2y2   :     0.009787
      dxy     :     0.007108
 30 H s       :     0.828157  s :     0.828157
      pz      :     0.041417  p :     0.148432
      px      :     0.058425
      py      :     0.048591
      dz2     :     0.003378  d :     0.028352
      dxz     :     0.006506
      dyz     :     0.004023
      dx2y2   :     0.006902
      dxy     :     0.007542
 31 H s       :     0.841694  s :     0.841694
      pz      :     0.052266  p :     0.155957
      px      :     0.061687
      py      :     0.042003
      dz2     :     0.005217  d :     0.027467
      dxz     :     0.006140
      dyz     :     0.004202
      dx2y2   :     0.005973
      dxy     :     0.005934
 32 H s       :     0.843111  s :     0.843111
      pz      :     0.037454  p :     0.151296
      px      :     0.038043
      py      :     0.075799
      dz2     :     0.002856  d :     0.026473
      dxz     :     0.000606
      dyz     :     0.007659
      dx2y2   :     0.007546
      dxy     :     0.007807
 33 H s       :     0.849134  s :     0.849134
      pz      :     0.061825  p :     0.159161
      px      :     0.051256
      py      :     0.046080
      dz2     :     0.007010  d :     0.027768
      dxz     :     0.005769
      dyz     :     0.005958
      dx2y2   :     0.004674
      dxy     :     0.004357
 34 H s       :     0.706902  s :     0.706902
      pz      :     0.122208  p :     0.348063
      px      :     0.090871
      py      :     0.134985
      dz2     :     0.026780  d :     0.099610
      dxz     :     0.015273
      dyz     :     0.023665
      dx2y2   :     0.016794
      dxy     :     0.017098
 35 H s       :     0.839485  s :     0.839485
      pz      :     0.039938  p :     0.156967
      px      :     0.039993
      py      :     0.077035
      dz2     :     0.002899  d :     0.028028
      dxz     :     0.000730
      dyz     :     0.008259
      dx2y2   :     0.007776
      dxy     :     0.008363


                      *****************************
                      * MAYER POPULATION ANALYSIS *
                      *****************************

  NA   - Mulliken gross atomic population
  ZA   - Total nuclear charge
  QA   - Mulliken gross atomic charge
  VA   - Mayer's total valence
  BVA  - Mayer's bonded valence
  FA   - Mayer's free valence

  ATOM       NA         ZA         QA         VA         BVA        FA
  0 C      6.2803     6.0000    -0.2803     3.8701     3.8701     0.0000
  1 C      5.9550     6.0000     0.0450     3.8745     3.8745    -0.0000
  2 O      8.3616     8.0000    -0.3616     2.0135     2.0135    -0.0000
  3 C      5.5747     6.0000     0.4253     4.1664     4.1664     0.0000
  4 O      8.4144     8.0000    -0.4144     2.0864     2.0864    -0.0000
  5 C      6.1519     6.0000    -0.1519     3.6532     3.6532     0.0000
  6 C      5.8618     6.0000     0.1382     3.8285     3.8285     0.0000
  7 C      6.2826     6.0000    -0.2826     3.8923     3.8923    -0.0000
  8 N      7.1235     7.0000    -0.1235     3.2865     3.2865     0.0000
  9 C      5.7974     6.0000     0.2026     4.1547     4.1547    -0.0000
 10 S     16.4401    16.0000    -0.4401     1.7553     1.7553     0.0000
 11 N      7.1995     7.0000    -0.1995     3.2592     3.2592     0.0000
 12 C      5.9551     6.0000     0.0449     3.9643     3.9643    -0.0000
 13 C      5.9496     6.0000     0.0504     3.7387     3.7387     0.0000
 14 C      6.1649     6.0000    -0.1649     3.8632     3.8632    -0.0000
 15 C      6.1340     6.0000    -0.1340     3.8071     3.8071    -0.0000
 16 C      6.2805     6.0000    -0.2805     3.7930     3.7930    -0.0000
 17 C      5.6885     6.0000     0.3115     3.8750     3.8750    -0.0000
 18 O      8.3584     8.0000    -0.3584     2.1158     2.1158     0.0000
 19 C      6.2726     6.0000    -0.2726     3.8511     3.8511    -0.0000
 20 H      0.8827     1.0000     0.1173     0.9915     0.9915    -0.0000
 21 H      0.9099     1.0000     0.0901     0.9844     0.9844     0.0000
 22 H      0.9105     1.0000     0.0895     0.9840     0.9840    -0.0000
 23 H      0.9011     1.0000     0.0989     0.9755     0.9755    -0.0000
 24 H      0.8990     1.0000     0.1010     0.9827     0.9827     0.0000
 25 H      0.8761     1.0000     0.1239     0.9836     0.9836    -0.0000
 26 H      0.8977     1.0000     0.1023     0.9862     0.9862     0.0000
 27 H      0.8731     1.0000     0.1269     0.9779     0.9779     0.0000
 28 H      0.8030     1.0000     0.1970     1.0227     1.0227    -0.0000
 29 H      0.8061     1.0000     0.1939     1.0184     1.0184     0.0000
 30 H      0.8455     1.0000     0.1545     0.9961     0.9961    -0.0000
 31 H      0.8449     1.0000     0.1551     0.9886     0.9886    -0.0000
 32 H      0.8398     1.0000     0.1602     0.9772     0.9772     0.0000
 33 H      0.8706     1.0000     0.1294     0.9918     0.9918    -0.0000
 34 H      0.7597     1.0000     0.2403     1.0109     1.0109     0.0000
 35 H      0.8338     1.0000     0.1662     0.9881     0.9881    -0.0000

  Mayer bond orders larger than 0.100000
B(  0-C ,  1-C ) :   0.9726 B(  0-C , 20-H ) :   0.9739 B(  0-C , 21-H ) :   0.9767 
B(  0-C , 22-H ) :   0.9765 B(  1-C ,  2-O ) :   0.8969 B(  1-C , 23-H ) :   0.9835 
B(  1-C , 24-H ) :   0.9730 B(  2-O ,  3-C ) :   1.0993 B(  3-C ,  4-O ) :   1.9855 
B(  3-C ,  5-C ) :   1.0444 B(  5-C ,  6-C ) :   1.6596 B(  5-C , 12-C ) :   0.9640 
B(  6-C ,  7-C ) :   0.9534 B(  6-C ,  8-N ) :   1.1393 B(  7-C , 25-H ) :   0.9691 
B(  7-C , 26-H ) :   0.9895 B(  7-C , 27-H ) :   0.9629 B(  8-N ,  9-C ) :   1.1828 
B(  8-N , 28-H ) :   0.9495 B(  9-C , 10-S ) :   1.6102 B(  9-C , 11-N ) :   1.3011 
B( 11-N , 12-C ) :   0.9925 B( 11-N , 29-H ) :   0.9516 B( 12-C , 13-C ) :   0.9452 
B( 12-C , 30-H ) :   0.9987 B( 13-C , 14-C ) :   1.3763 B( 13-C , 19-C ) :   1.3696 
B( 14-C , 15-C ) :   1.3945 B( 14-C , 31-H ) :   0.9644 B( 15-C , 16-C ) :   1.3630 
B( 15-C , 32-H ) :   0.9711 B( 16-C , 17-C ) :   1.3308 B( 16-C , 33-H ) :   0.9855 
B( 17-C , 18-O ) :   1.1089 B( 17-C , 19-C ) :   1.3775 B( 18-O , 34-H ) :   0.9803 
B( 19-C , 35-H ) :   0.9581 

-------
TIMINGS
-------

Total SCF time: 0 days 1 hours 53 min 3 sec 

Total time                  ....    6783.043 sec
Sum of individual times     ....    6775.838 sec  ( 99.9%)

Fock matrix formation       ....    6754.402 sec  ( 99.6%)
Diagonalization             ....       1.471 sec  (  0.0%)
Density matrix formation    ....       0.176 sec  (  0.0%)
Population analysis         ....       0.226 sec  (  0.0%)
Initial guess               ....       9.927 sec  (  0.1%)
Orbital Transformation      ....       0.000 sec  (  0.0%)
Orbital Orthonormalization  ....       0.000 sec  (  0.0%)
DIIS solution               ....       5.499 sec  (  0.1%)
SOSCF solution              ....       2.296 sec  (  0.0%)

Maximum memory used throughout the entire SCF-calculation: 729.4 MB

------------------------------------------------------------------------------
                                ORCA  MP2 
------------------------------------------------------------------------------

Freezing NCore=48 chemical core electrons

-------------
RI-MP2 ENERGY
-------------
Dimension of the basis                    ...  828
Memory devoted to MP2                     ...  256 MB   
Data format for buffers                   ... DOUBLE
Compression type for matrix containers    ... UNCOMPRESSED
Overall scaling of the MP2 energy         ...   1.000e+00
Calculating two index integrals           ... done (    0.046 sec)
Cholesky decomposition of V**-1           ... done (    0.511 sec)

-----------------
RI-TRANSFORMATION (AUX index driven)
-----------------

Dimension of the orbital-basis         ... 828
Dimension of the aux-basis             ... 2141
Transformation of internal/external MOs...   24-  76 to   77- 827
Number Format for Storage              ... Double (8 Byte)
Integral mode                          ... Direct

First Phase: integral generation and transformation of MO indices
  Aux angular momentum 0               ... done (    4.855 sec)
  Aux angular momentum 1               ... done (    6.924 sec)
  Aux angular momentum 2               ... done (    8.120 sec)
  Aux angular momentum 3               ... done (    6.427 sec)
  Aux angular momentum 4               ... done (    2.262 sec)
Closing buffer VIA ( 0.63 GB; CompressionRatio= 1.00)
  Phase 1 completed in    28.889 sec
Second Phase: sorting and transformation of aux index

IA-Transformation
Memory available                       ... 157 MB 
Max. # MO pairs treated in a batch     ... 11    
# of internal orbitals                 ... 53
# batches for internal orbitals        ... 5
Closing buffer IAV ( 0.63 GB; CompressionRatio= 1.00)
(ia|v) transformation done in    24.072 sec

  Phase 2 completed in    24.097 sec
RI-Integral transformation completed in    53.014 sec
Opening buffers                              ... done

Starting loop over batches of integrals:

Operator 0  - window                       ... ( 24- 76)x( 77-827)
Operator 0  - Memory available             ...   256 MB
Operator 0  - Memory needed per MO         ...  12.3 MB
Operator 0  - Number of orbitals per batch ... 13
Operator 0  - Number of batches            ... 5

OPERATOR  0   PASS   0:  MOs    24 ...   36
  Reading integrals       ... ok
  Internal MO  26
  Internal MO  29
  Internal MO  32
  Internal MO  35
OPERATOR  0   PASS   1:  MOs    37 ...   49
  Reading integrals       ... ok
  Internal MO  38
  Internal MO  41
  Internal MO  44
  Internal MO  47
OPERATOR  0   PASS   2:  MOs    50 ...   62
  Reading integrals       ... ok
  Internal MO  50
  Internal MO  53
  Internal MO  56
  Internal MO  59
  Internal MO  62
OPERATOR  0   PASS   3:  MOs    63 ...   75
  Reading integrals       ... ok
  Internal MO  65
  Internal MO  68
  Internal MO  71
  Internal MO  74
OPERATOR  0   PASS   4:  MOs    76 ...   76
  Reading integrals       ... ok
Time spent in pair loops =   115.576 sec
Deleting buffer (Ka|jb)[aa] ...done

-----------------------------------------------
 RI-MP2 CORRELATION ENERGY:     -3.531833793 Eh
-----------------------------------------------


-------
TIMINGS
-------

Total time                :  169.347 sec
Integral trafo            :   53.025 sec ( 31.3%)
I/O of integrals          :    1.783 sec (  1.1%)
K(i,j) Operators          :   80.877 sec ( 47.8%)
T(i,j) pair energies      :    3.192 sec (  1.9%)
V-calculation             :    0.046 sec (  0.0%)
V**(-1/2)                 :    0.511 sec (  0.3%)
Gamma(ia|P)               :    0.000 sec (  0.0%)
Gamma-Trafo               :    0.000 sec (  0.0%)
D(virtual)                :    0.000 sec (  0.0%)
D(internal)               :    0.000 sec (  0.0%)
W(virtual)                :    0.000 sec (  0.0%)
W(internal)               :    0.000 sec (  0.0%)
L(virtual)                :    0.000 sec (  0.0%)
L(internal)               :    0.000 sec (  0.0%)
G(D)                      :    0.000 sec (  0.0%)
G(Z)                      :    0.000 sec (  0.0%)
Z-Vector Solution         :    0.000 sec (  0.0%)
3-Index Derivative        :    0.000 sec (  0.0%)
2-Index Derivative        :    0.000 sec (  0.0%)
Separable Gradient        :    0.000 sec (  0.0%)


---------------------------------------
MP2 TOTAL ENERGY:    -1274.333259145 Eh
---------------------------------------

Maximum memory used throughout the entire MP2-calculation: 303.8 MB

-------------------------   --------------------
FINAL SINGLE POINT ENERGY     -1274.333259145175
-------------------------   --------------------


                            ***************************************
                            *     ORCA property calculations      *
                            ***************************************


  WARNING: The energy has been calculated at the MP2 level but the densities
           used in the property calculations are still SCF densities
           MP2 response densities have not been calculated 
           use %mp2 Density relaxed end
           or  %mp2 Density unrelaxed end

                                    ---------------------
                                    Active property flags
                                    ---------------------
   (+) Dipole Moment


------------------------------------------------------------------------------
                       ORCA ELECTRIC PROPERTIES CALCULATION
------------------------------------------------------------------------------

Dipole Moment Calculation                       ... on
Quadrupole Moment Calculation                   ... off
Polarizability Calculation                      ... off
GBWName                                         ... CONFS/Conf223.orca.gbw
Electron density file                           ... CONFS/Conf223.orca.scfp
The origin for moment calculation is the CENTER OF MASS  = (32.902502, 31.539474 35.403487)

-------------
DIPOLE MOMENT
-------------
                                X             Y             Z
Electronic contribution:     10.62466      10.53416       9.69302
Nuclear contribution   :    -12.17823     -11.73061     -10.35678
                        -----------------------------------------
Total Dipole Moment    :     -1.55357      -1.19645      -0.66376
                        -----------------------------------------
Magnitude (a.u.)       :      2.07018
Magnitude (Debye)      :      5.26198



--------------------
Rotational spectrum 
--------------------
 
Rotational constants in cm-1:     0.011064     0.009002     0.006061 
Rotational constants in MHz :   331.684803   269.870306   181.700565 

 Dipole components along the rotational axes: 
x,y,z [a.u.] :    -1.918740    -0.089430     0.772066 
x,y,z [Debye]:    -4.877050    -0.227314     1.962437 

 

Timings for individual modules:

Sum of individual times         ...     6957.230 sec (= 115.954 min)
GTO integral calculation        ...        3.867 sec (=   0.064 min)   0.1 %
SCF iterations                  ...     6783.199 sec (= 113.053 min)  97.5 %
MP2 module                      ...      170.163 sec (=   2.836 min)   2.4 %
                             ****ORCA TERMINATED NORMALLY****
TOTAL RUN TIME: 0 days 1 hours 55 minutes 58 seconds 557 msec
