
                                        *****************
                                        * O   R   C   A *
                                        *****************

                                            #,                                       
                                            ###                                      
                                            ####                                     
                                            #####                                    
                                            ######                                   
                                           ########,                                 
                                     ,,################,,,,,                         
                               ,,#################################,,                 
                          ,,##########################################,,             
                       ,#########################################, ''#####,          
                    ,#############################################,,   '####,        
                  ,##################################################,,,,####,       
                ,###########''''           ''''###############################       
              ,#####''   ,,,,##########,,,,          '''####'''          '####       
            ,##' ,,,,###########################,,,                        '##       
           ' ,,###''''                  '''############,,,                           
         ,,##''                                '''############,,,,        ,,,,,,###''
      ,#''                                            '''#######################'''  
     '                                                          ''''####''''         
             ,#######,   #######,   ,#######,      ##                                
            ,#'     '#,  ##    ##  ,#'     '#,    #''#        ######   ,####,        
            ##       ##  ##   ,#'  ##            #'  '#       #        #'  '#        
            ##       ##  #######   ##           ,######,      #####,   #    #        
            '#,     ,#'  ##    ##  '#,     ,#' ,#      #,         ##   #,  ,#        
             '#######'   ##     ##  '#######'  #'      '#     #####' # '####'        



                  #######################################################
                  #                        -***-                        #
                  #          Department of theory and spectroscopy      #
                  #    Directorship and core code : Frank Neese         #
                  #        Max Planck Institute fuer Kohlenforschung    #
                  #                Kaiser Wilhelm Platz 1               #
                  #                 D-45470 Muelheim/Ruhr               #
                  #                      Germany                        #
                  #                                                     #
                  #                  All rights reserved                #
                  #                        -***-                        #
                  #######################################################


                         Program Version 5.0.0 -  RELEASE  -
                                (SVN: $Rev: 19529$)
                ($Date: 2021-06-28 11:36:33 +0200 (Mo, 28 Jun 2021) $)


 With contributions from (in alphabetic order):
   Daniel Aravena         : Magnetic Suceptibility
   Michael Atanasov       : Ab Initio Ligand Field Theory (pilot matlab implementation)
   Alexander A. Auer      : GIAO ZORA, VPT2 properties, NMR spectrum
   Ute Becker             : Parallelization
   Giovanni Bistoni       : ED, misc. LED, open-shell LED, HFLD
   Martin Brehm           : Molecular dynamics
   Dmytro Bykov           : SCF Hessian
   Vijay G. Chilkuri      : MRCI spin determinant printing, contributions to CSF-ICE
   Dipayan Datta          : RHF DLPNO-CCSD density
   Achintya Kumar Dutta   : EOM-CC, STEOM-CC
   Dmitry Ganyushin       : Spin-Orbit,Spin-Spin,Magnetic field MRCI
   Miquel Garcia          : C-PCM Hessian, Gaussian charge scheme
   Yang Guo               : DLPNO-NEVPT2, F12-NEVPT2, CIM, IAO-localization
   Andreas Hansen         : Spin unrestricted coupled pair/coupled cluster methods
   Benjamin Helmich-Paris : MC-RPA, TRAH-SCF, COSX integrals
   Lee Huntington         : MR-EOM, pCC
   Robert Izsak           : Overlap fitted RIJCOSX, COSX-SCS-MP3, EOM
   Marcus Kettner         : VPT2
   Christian Kollmar      : KDIIS, OOCD, Brueckner-CCSD(T), CCSD density, CASPT2, CASPT2-K
   Simone Kossmann        : Meta GGA functionals, TD-DFT gradient, OOMP2, MP2 Hessian
   Martin Krupicka        : Initial AUTO-CI
   Lucas Lang             : DCDCAS
   Marvin Lechner         : AUTO-CI (C++ implementation), FIC-MRCC
   Dagmar Lenk            : GEPOL surface, SMD
   Dimitrios Liakos       : Extrapolation schemes; Compound Job, initial MDCI parallelization
   Dimitrios Manganas     : Further ROCIS development; embedding schemes
   Dimitrios Pantazis     : SARC Basis sets
   Anastasios Papadopoulos: AUTO-CI, single reference methods and gradients
   Taras Petrenko         : DFT Hessian,TD-DFT gradient, ASA, ECA, R-Raman, ABS, FL, XAS/XES, NRVS
   Peter Pinski           : DLPNO-MP2, DLPNO-MP2 Gradient
   Christoph Reimann      : Effective Core Potentials
   Marius Retegan         : Local ZFS, SOC
   Christoph Riplinger    : Optimizer, TS searches, QM/MM, DLPNO-CCSD(T), (RO)-DLPNO pert. Triples
   Tobias Risthaus        : Range-separated hybrids, TD-DFT gradient, RPA, STAB
   Michael Roemelt        : Original ROCIS implementation
   Masaaki Saitow         : Open-shell DLPNO-CCSD energy and density
   Barbara Sandhoefer     : DKH picture change effects
   Avijit Sen             : IP-ROCIS
   Kantharuban Sivalingam : CASSCF convergence, NEVPT2, FIC-MRCI
   Bernardo de Souza      : ESD, SOC TD-DFT
   Georgi Stoychev        : AutoAux, RI-MP2 NMR
   Willem Van den Heuvel  : Paramagnetic NMR
   Boris Wezisla          : Elementary symmetry handling
   Frank Wennmohs         : Technical directorship


 We gratefully acknowledge several colleagues who have allowed us to
 interface, adapt or use parts of their codes:
   Stefan Grimme, W. Hujo, H. Kruse, P. Pracht,  : VdW corrections, initial TS optimization,
                  C. Bannwarth, S. Ehlert          DFT functionals, gCP, sTDA/sTD-DF
   Ed Valeev, F. Pavosevic, A. Kumar             : LibInt (2-el integral package), F12 methods
   Garnet Chan, S. Sharma, J. Yang, R. Olivares  : DMRG
   Ulf Ekstrom                                   : XCFun DFT Library
   Mihaly Kallay                                 : mrcc  (arbitrary order and MRCC methods)
   Jiri Pittner, Ondrej Demel                    : Mk-CCSD
   Frank Weinhold                                : gennbo (NPA and NBO analysis)
   Christopher J. Cramer and Donald G. Truhlar   : smd solvation model
   Lars Goerigk                                  : TD-DFT with DH, B97 family of functionals
   V. Asgeirsson, H. Jonsson                     : NEB implementation
   FAccTs GmbH                                   : IRC, NEB, NEB-TS, DLPNO-Multilevel, CI-OPT
                                                   MM, QMMM, 2- and 3-layer-ONIOM, Crystal-QMMM,
                                                   LR-CPCM, SF, NACMEs, symmetry and pop. for TD-DFT,
                                                   nearIR, NL-DFT gradient (VV10), updates on ESD,
                                                   ML-optimized integration grids
   S Lehtola, MJT Oliveira, MAL Marques          : LibXC Library
   Liviu Ungur et al                             : ANISO software


 Your calculation uses the libint2 library for the computation of 2-el integrals
 For citations please refer to: http://libint.valeyev.net

 Your ORCA version has been built with support for libXC version: 5.1.0
 For citations please refer to: https://tddft.org/programs/libxc/

 This ORCA versions uses:
   CBLAS   interface :  Fast vector & matrix operations
   LAPACKE interface :  Fast linear algebra routines
   SCALAPACK package :  Parallel linear algebra routines
   Shared memory     :  Shared parallel matrices
   BLAS/LAPACK       :  OpenBLAS 0.3.15  USE64BITINT DYNAMIC_ARCH NO_AFFINITY Zen SINGLE_THREADED
        Core in use  :  Zen
   Copyright (c) 2011-2014, The OpenBLAS Project


================================================================================

----- Orbital basis set information -----
Your calculation utilizes the basis: cc-pVTZ 
       H, B-Ne : Obtained from the ccRepo (grant-hill.group.shef.ac.uk/ccrepo) Feb. 2017
                 T. H. Dunning, Jr., J. Chem. Phys. 90, 1007 (1989)
            He : Obtained from the ccRepo (grant-hill.group.shef.ac.uk/ccrepo) Feb. 2017
                 D. E. Woon, T. H. Dunning, Jr., J. Chem. Phys. 100, 2975 (1994)
  Li-Be, Na-Mg : Obtained from the ccRepo (grant-hill.group.shef.ac.uk/ccrepo) Feb. 2017
                 B. P. Prascher, D. E. Woon, K. A. Peterson, T. H. Dunning, Jr., A. K. Wilson, Theor. Chem. Acc. 128, 69 (2011)
         Al-Ar : Obtained from the ccRepo (grant-hill.group.shef.ac.uk/ccrepo) Feb. 2017
                 D. E. Woon, T. H. Dunning, Jr., J. Chem. Phys. 98, 1358 (1993)
            Ca : Obtained from the Peterson Research Group Website (tyr0.chem.wsu.edu/~kipeters) Feb. 2017
                 J. Koput, K. A. Peterson, J. Phys. Chem. 106, 9595 (2002)
         Sc-Zn : Obtained from the ccRepo (grant-hill.group.shef.ac.uk/ccrepo) Feb. 2017
                 N. B. Balabanov, K. A. Peterson, J. Chem. Phys. 123, 064107 (2005)
                 N. B. Balabanov, K. A. Peterson, J. Chem. Phys. 125, 074110 (2006)
         Ga-Kr : Obtained from the ccRepo (grant-hill.group.shef.ac.uk/ccrepo) Feb. 2017
                 A. K. Wilson, D. E. Woon, K. A. Peterson, T. H. Dunning, Jr., J. Chem. Phys. 110, 7667 (1999)
             Y : Obtained from the ccRepo (grant-hill.group.shef.ac.uk/ccrepo) Feb. 2017
                 K. A. Peterson, D. Figgen, M. Dolg, H. Stoll, J. Chem. Phys. 126, 124101 (2007)
        Ag, Au : Obtained from the Peterson Research Group Website (tyr0.chem.wsu.edu/~kipeters) Feb. 2017
                 K. A. Peterson, C. Puzzarini, Theor. Chem. Acc. 114, 283 (2005)

----- AuxC basis set information -----
Your calculation utilizes the auxiliary basis: cc-pVTZ/C 
  Obtained from the EMSL Basis Set Exchange (bse.pnl.gov) Feb. 2017
  H-He, B-F, Al-Ar, Ga-Kr : F. Weigend, A. Kohn, C. Hattig, J. Chem. Phys. 116, 3175 (2002)
             Li-Be, Na-Mg : C. Haettig, Phys. Chem. Chem. Phys. 7, 59 (2005)
                       Ne : C. Haettig, Phys. Chem. Chem. Phys. 7, 59 (2005)
                            F. Weigend, A. Kohn, C. Hattig, J. Chem. Phys. 116, 3175 (2002)
                    Sc-Zn : J. G. Hill, J. A. Platts, J. Chem. Phys. 128, 044104 (2008)

================================================================================
                                        WARNINGS
                       Please study these warnings very carefully!
================================================================================


WARNING: No MP2 level density has been requested!
         To caclulate MP2 level properties use
         %mp2 Density relaxed end
         or
         %mp2 Density unrelaxed end

WARNING: Post HF methods need fully converged wavefunctions
  ===> : Setting SCFConvForced true
         You can overwrite this default with %scf ConvForced false 


INFO   : the flag for use of the SHARK integral package has been found!

================================================================================
                                       INPUT FILE
================================================================================
NAME = CONFS/Conf795.orca
|  1> ! ri-mp2 cc-pvtz cc-pvtz/c TightSCF NoKeepInts
|  2> 
|  3> %scf
|  4>   MaxCore 4096
|  5> end
|  6> *xyz  0  1
|  7>     C       15.1039706   13.8803995   16.0855278
|  8>     C       16.2279161   14.5506176   16.8923670
|  9>     O       17.0408370   15.2757643   15.9562831
| 10>     C       17.1533938   16.6376922   16.0054884
| 11>     O       16.9060388   17.2862025   15.0062560
| 12>     C       17.5518690   17.2646715   17.3191984
| 13>     C       17.3040754   18.5761906   17.5728465
| 14>     C       16.4568693   19.5262530   16.7542668
| 15>     N       17.9193678   19.2051044   18.6604690
| 16>     C       19.0020113   18.6912588   19.3262493
| 17>     S       19.8661789   19.5804344   20.4207213
| 18>     N       19.3462446   17.3998009   19.0125132
| 19>     C       18.4649297   16.4743000   18.2781203
| 20>     C       17.7328354   15.6209914   19.3106731
| 21>     C       18.2017283   14.3271202   19.6085179
| 22>     C       17.5460844   13.5290971   20.5608646
| 23>     C       16.4187595   14.0321615   21.2317395
| 24>     C       15.9606543   15.3268900   20.9542461
| 25>     O       14.8759642   15.8189495   21.6032802
| 26>     C       16.6128168   16.1177789   20.0033248
| 27>     H       14.4968506   14.6341097   15.5681215
| 28>     H       14.4462290   13.3027587   16.7462431
| 29>     H       15.5213905   13.1991047   15.3334890
| 30>     H       15.7728177   15.2153480   17.6362635
| 31>     H       16.8208446   13.7795974   17.3989439
| 32>     H       15.5278984   19.0414958   16.4285678
| 33>     H       16.9959051   19.8375857   15.8498899
| 34>     H       16.1763825   20.4296342   17.3084468
| 35>     H       17.6949174   20.1641337   18.8736834
| 36>     H       20.1422496   17.0409032   19.5238212
| 37>     H       19.0984043   15.8145992   17.6677865
| 38>     H       19.0778858   13.9361289   19.0972924
| 39>     H       17.9151656   12.5285398   20.7814328
| 40>     H       15.9106908   13.4203996   21.9703681
| 41>     H       14.6109524   15.1651624   22.2682433
| 42>     H       16.2458705   17.1208206   19.8184536
| 43> *
| 44> 
| 45>                          ****END OF INPUT****
================================================================================

                       ****************************
                       * Single Point Calculation *
                       ****************************

---------------------------------
CARTESIAN COORDINATES (ANGSTROEM)
---------------------------------
  C     15.103971   13.880399   16.085528
  C     16.227916   14.550618   16.892367
  O     17.040837   15.275764   15.956283
  C     17.153394   16.637692   16.005488
  O     16.906039   17.286202   15.006256
  C     17.551869   17.264671   17.319198
  C     17.304075   18.576191   17.572847
  C     16.456869   19.526253   16.754267
  N     17.919368   19.205104   18.660469
  C     19.002011   18.691259   19.326249
  S     19.866179   19.580434   20.420721
  N     19.346245   17.399801   19.012513
  C     18.464930   16.474300   18.278120
  C     17.732835   15.620991   19.310673
  C     18.201728   14.327120   19.608518
  C     17.546084   13.529097   20.560865
  C     16.418760   14.032162   21.231739
  C     15.960654   15.326890   20.954246
  O     14.875964   15.818949   21.603280
  C     16.612817   16.117779   20.003325
  H     14.496851   14.634110   15.568122
  H     14.446229   13.302759   16.746243
  H     15.521391   13.199105   15.333489
  H     15.772818   15.215348   17.636263
  H     16.820845   13.779597   17.398944
  H     15.527898   19.041496   16.428568
  H     16.995905   19.837586   15.849890
  H     16.176382   20.429634   17.308447
  H     17.694917   20.164134   18.873683
  H     20.142250   17.040903   19.523821
  H     19.098404   15.814599   17.667786
  H     19.077886   13.936129   19.097292
  H     17.915166   12.528540   20.781433
  H     15.910691   13.420400   21.970368
  H     14.610952   15.165162   22.268243
  H     16.245870   17.120821   19.818454

----------------------------
CARTESIAN COORDINATES (A.U.)
----------------------------
  NO LB      ZA    FRAG     MASS         X           Y           Z
   0 C     6.0000    0    12.011   28.542368   26.230154   30.397242
   1 C     6.0000    0    12.011   30.666317   27.496682   31.921947
   2 O     8.0000    0    15.999   32.202515   28.867011   30.153005
   3 C     6.0000    0    12.011   32.415217   31.440682   30.245990
   4 O     8.0000    0    15.999   31.947783   32.666189   28.357714
   5 C     6.0000    0    12.011   33.168226   32.625501   32.728542
   6 C     6.0000    0    12.011   32.699964   35.103913   33.207867
   7 C     6.0000    0    12.011   31.098976   36.899271   31.660976
   8 N     7.0000    0    14.007   33.862698   36.292388   35.263176
   9 C     6.0000    0    12.011   35.908597   35.321360   36.521318
  10 S    16.0000    0    32.060   37.541637   37.001659   38.589571
  11 N     7.0000    0    14.007   36.559104   32.880858   35.928443
  12 C     6.0000    0    12.011   34.893660   31.131915   34.540642
  13 C     6.0000    0    12.011   33.510202   29.519396   36.491884
  14 C     6.0000    0    12.011   34.396282   27.074333   37.054729
  15 C     6.0000    0    12.011   33.157294   25.566288   38.854403
  16 C     6.0000    0    12.011   31.026959   26.516942   40.122173
  17 C     6.0000    0    12.011   30.161266   28.963625   39.597786
  18 O     8.0000    0    15.999   28.111498   29.893482   40.824283
  19 C     6.0000    0    12.011   31.393674   30.458188   37.800806
  20 H     1.0000    0     1.008   27.395077   27.654460   29.419486
  21 H     1.0000    0     1.008   27.299416   25.138571   31.645813
  22 H     1.0000    0     1.008   29.331177   24.942693   28.976095
  23 H     1.0000    0     1.008   29.806306   28.752841   33.327708
  24 H     1.0000    0     1.008   31.786790   26.039665   32.879239
  25 H     1.0000    0     1.008   29.343475   35.983212   31.045494
  26 H     1.0000    0     1.008   32.117606   37.487604   29.951951
  27 H     1.0000    0     1.008   30.568933   38.606414   32.708224
  28 H     1.0000    0     1.008   33.438548   38.104690   35.666093
  29 H     1.0000    0     1.008   38.063335   32.202640   36.894675
  30 H     1.0000    0     1.008   36.090754   29.885261   33.387278
  31 H     1.0000    0     1.008   36.051979   26.335467   36.088653
  32 H     1.0000    0     1.008   33.854757   23.675509   39.271217
  33 H     1.0000    0     1.008   30.066848   25.360880   41.517979
  34 H     1.0000    0     1.008   27.610699   28.658004   42.080881
  35 H     1.0000    0     1.008   30.700246   32.353662   37.451450

--------------------------------
INTERNAL COORDINATES (ANGSTROEM)
--------------------------------
 C      0   0   0     0.000000000000     0.00000000     0.00000000
 C      1   0   0     1.537346832434     0.00000000     0.00000000
 O      2   1   0     1.436290776276   106.96844017     0.00000000
 C      3   2   1     1.367456690200   121.73348087   116.24714816
 O      4   3   2     1.216641070506   118.98565107   234.27137737
 C      4   3   2     1.509211546386   117.82740577    52.90409511
 C      6   4   3     1.358610089945   121.02367776   199.91115058
 C      7   6   4     1.513423095180   127.38137892     9.93837220
 N      7   6   4     1.398942460516   119.92802799   193.38592215
 C      9   7   6     1.370918544845   123.80760462    15.83286466
 S     10   9   7     1.653870565464   122.17498829   168.72095033
 N     10   9   7     1.372876692476   116.07973498   349.96721842
 C     12  10   9     1.473974491107   123.68292019   345.20668334
 C     13  12  10     1.526519870724   107.50108287   263.90723739
 C     14  13  12     1.408074841316   119.80354199   261.45245195
 C     15  14  13     1.404875093644   120.66037903   179.65776562
 C     16  15  14     1.404994075488   119.65374251   359.39674490
 C     17  16  15     1.401136984746   119.90954534   359.59754314
 O     18  17  16     1.356436665510   120.12561246   180.26657830
 C     18  17  16     1.398239070168   120.32267487     0.57909534
 H      1   2   3     1.097443866111   110.63893214   299.72176291
 H      1   2   3     1.096739537834   110.60329314   179.71961888
 H      1   2   3     1.097253085723   110.62635242    59.72215240
 H      2   1   3     1.096523169422   108.47567980   120.72409323
 H      2   1   3     1.096656970312   109.34197604   240.33491392
 H      8   7   6     1.097294998895   110.92460402    42.83257168
 H      8   7   6     1.097900369353   110.40855733   284.08998830
 H      8   7   6     1.096305573227   112.77386642   163.22547656
 H      9   7   6     1.007757689470   119.62730663   183.23818252
 H     12  10   9     1.011863325728   114.54624873   180.58438340
 H     13  12  10     1.099546525522   107.98747194   147.08913407
 H     15  14  13     1.087141974782   119.95946512   359.49462443
 H     16  15  14     1.089029923201   120.06765019   179.80424839
 H     17  16  15     1.085338027966   119.91688504   180.17733848
 H     19  18  17     0.969455904426   107.58716358     5.05719383
 H     20  18  17     1.083937082866   118.78431943   180.86098369

---------------------------
INTERNAL COORDINATES (A.U.)
---------------------------
 C      0   0   0     0.000000000000     0.00000000     0.00000000
 C      1   0   0     2.905164486151     0.00000000     0.00000000
 O      2   1   0     2.714196215840   106.96844017     0.00000000
 C      3   2   1     2.584118644476   121.73348087   116.24714816
 O      4   3   2     2.299118426536   118.98565107   234.27137737
 C      4   3   2     2.851996500821   117.82740577    52.90409511
 C      6   4   3     2.567400992777   121.02367776   199.91115058
 C      7   6   4     2.859955174641   127.38137892     9.93837220
 N      7   6   4     2.643618127489   119.92802799   193.38592215
 C      9   7   6     2.590660601671   123.80760462    15.83286466
 S     10   9   7     3.125362429681   122.17498829   168.72095033
 N     10   9   7     2.594360964424   116.07973498   349.96721842
 C     12  10   9     2.785408116578   123.68292019   345.20668334
 C     13  12  10     2.884704493657   107.50108287   263.90723739
 C     14  13  12     2.660875826152   119.80354199   261.45245195
 C     15  14  13     2.654829179354   120.66037903   179.65776562
 C     16  15  14     2.655054022455   119.65374251   359.39674490
 C     17  16  15     2.647765177278   119.90954534   359.59754314
 O     18  17  16     2.563293815824   120.12561246   180.26657830
 C     18  17  16     2.642288912365   120.32267487     0.57909534
 H      1   2   3     2.073868354301   110.63893214   299.72176291
 H      1   2   3     2.072537366750   110.60329314   179.71961888
 H      1   2   3     2.073507831616   110.62635242    59.72215240
 H      2   1   3     2.072128489707   108.47567980   120.72409323
 H      2   1   3     2.072381336745   109.34197604   240.33491392
 H      8   7   6     2.073587036033   110.92460402    42.83257168
 H      8   7   6     2.074731020407   110.40855733   284.08998830
 H      8   7   6     2.071717292490   112.77386642   163.22547656
 H      9   7   6     1.904386042452   119.62730663   183.23818252
 H     12  10   9     1.912144570586   114.54624873   180.58438340
 H     13  12  10     2.077841804742   107.98747194   147.08913407
 H     15  14  13     2.054400601028   119.95946512   359.49462443
 H     16  15  14     2.057968306496   120.06765019   179.80424839
 H     17  16  15     2.050991635586   119.91688504   180.17733848
 H     19  18  17     1.832006158279   107.58716358     5.05719383
 H     20  18  17     2.048344233018   118.78431943   180.86098369

---------------------
BASIS SET INFORMATION
---------------------
There are 5 groups of distinct atoms

 Group   1 Type C   : 18s5p2d1f contracted to 4s3p2d1f pattern {8811/311/11/1}
 Group   2 Type O   : 18s5p2d1f contracted to 4s3p2d1f pattern {8811/311/11/1}
 Group   3 Type N   : 18s5p2d1f contracted to 4s3p2d1f pattern {8811/311/11/1}
 Group   4 Type S   : 41s16p2d1f contracted to 5s4p2d1f pattern {13131311/7711/11/1}
 Group   5 Type H   : 5s2p1d contracted to 3s2p1d pattern {311/11/1}

Atom   0C    basis set group =>   1
Atom   1C    basis set group =>   1
Atom   2O    basis set group =>   2
Atom   3C    basis set group =>   1
Atom   4O    basis set group =>   2
Atom   5C    basis set group =>   1
Atom   6C    basis set group =>   1
Atom   7C    basis set group =>   1
Atom   8N    basis set group =>   3
Atom   9C    basis set group =>   1
Atom  10S    basis set group =>   4
Atom  11N    basis set group =>   3
Atom  12C    basis set group =>   1
Atom  13C    basis set group =>   1
Atom  14C    basis set group =>   1
Atom  15C    basis set group =>   1
Atom  16C    basis set group =>   1
Atom  17C    basis set group =>   1
Atom  18O    basis set group =>   2
Atom  19C    basis set group =>   1
Atom  20H    basis set group =>   5
Atom  21H    basis set group =>   5
Atom  22H    basis set group =>   5
Atom  23H    basis set group =>   5
Atom  24H    basis set group =>   5
Atom  25H    basis set group =>   5
Atom  26H    basis set group =>   5
Atom  27H    basis set group =>   5
Atom  28H    basis set group =>   5
Atom  29H    basis set group =>   5
Atom  30H    basis set group =>   5
Atom  31H    basis set group =>   5
Atom  32H    basis set group =>   5
Atom  33H    basis set group =>   5
Atom  34H    basis set group =>   5
Atom  35H    basis set group =>   5
---------------------------------
AUXILIARY/C BASIS SET INFORMATION
---------------------------------
There are 5 groups of distinct atoms

 Group   1 Type C   : 8s6p5d3f1g contracted to 8s6p5d3f1g pattern {11111111/111111/11111/111/1}
 Group   2 Type O   : 8s6p5d3f1g contracted to 8s6p5d3f1g pattern {11111111/111111/11111/111/1}
 Group   3 Type N   : 8s6p5d3f1g contracted to 8s6p5d3f1g pattern {11111111/111111/11111/111/1}
 Group   4 Type S   : 10s8p7d5f2g contracted to 10s8p7d5f2g pattern {1111111111/11111111/1111111/11111/11}
 Group   5 Type H   : 4s3p2d1f contracted to 4s3p2d1f pattern {1111/111/11/1}

Atom   0C    basis set group =>   1
Atom   1C    basis set group =>   1
Atom   2O    basis set group =>   2
Atom   3C    basis set group =>   1
Atom   4O    basis set group =>   2
Atom   5C    basis set group =>   1
Atom   6C    basis set group =>   1
Atom   7C    basis set group =>   1
Atom   8N    basis set group =>   3
Atom   9C    basis set group =>   1
Atom  10S    basis set group =>   4
Atom  11N    basis set group =>   3
Atom  12C    basis set group =>   1
Atom  13C    basis set group =>   1
Atom  14C    basis set group =>   1
Atom  15C    basis set group =>   1
Atom  16C    basis set group =>   1
Atom  17C    basis set group =>   1
Atom  18O    basis set group =>   2
Atom  19C    basis set group =>   1
Atom  20H    basis set group =>   5
Atom  21H    basis set group =>   5
Atom  22H    basis set group =>   5
Atom  23H    basis set group =>   5
Atom  24H    basis set group =>   5
Atom  25H    basis set group =>   5
Atom  26H    basis set group =>   5
Atom  27H    basis set group =>   5
Atom  28H    basis set group =>   5
Atom  29H    basis set group =>   5
Atom  30H    basis set group =>   5
Atom  31H    basis set group =>   5
Atom  32H    basis set group =>   5
Atom  33H    basis set group =>   5
Atom  34H    basis set group =>   5
Atom  35H    basis set group =>   5
------------------------------------------------------------------------------
                           ORCA GTO INTEGRAL CALCULATION
------------------------------------------------------------------------------
------------------------------------------------------------------------------
                   ___                                                        
                  /   \      - P O W E R E D   B Y -                         
                 /     \                                                     
                 |  |  |   _    _      __       _____    __    __             
                 |  |  |  | |  | |    /  \     |  _  \  |  |  /  |          
                  \  \/   | |  | |   /    \    | | | |  |  | /  /          
                 / \  \   | |__| |  /  /\  \   | |_| |  |  |/  /          
                |  |  |   |  __  | /  /__\  \  |    /   |      \           
                |  |  |   | |  | | |   __   |  |    \   |  |\   \          
                \     /   | |  | | |  |  |  |  | |\  \  |  | \   \       
                 \___/    |_|  |_| |__|  |__|  |_| \__\ |__|  \__/        
                                                                              
                      - O R C A' S   B I G   F R I E N D -                    
                                      &                                       
                       - I N T E G R A L  F E E D E R -                       
                                                                              
 v1 FN, 2020, v2 2021                                                         
------------------------------------------------------------------------------


Reading SHARK input file CONFS/Conf795.orca.SHARKINP.tmp ... ok
----------------------
SHARK INTEGRAL PACKAGE
----------------------

Number of atoms                             ...     36
Number of basis functions                   ...    828
Number of shells                            ...    298
Maximum angular momentum                    ...      3
Integral batch strategy                     ... SHARK/LIBINT Hybrid
RI-J (if used) integral strategy            ... SPLIT-RIJ (Revised 2003 algorithm where possible)
Printlevel                                  ...      1
Contraction scheme used                     ... SEGMENTED contraction
Coulomb Range Separation                    ... NOT USED
Exchange Range Separation                   ... NOT USED
Finite Nucleus Model                        ... NOT USED
Auxiliary Coulomb fitting basis             ... NOT available
Auxiliary J/K fitting basis                 ... NOT available
Auxiliary Correlation fitting basis         ... AVAILABLE
   # of basis functions in Aux-C            ...   2141
   # of shells in Aux-C                     ...    629
   Maximum angular momentum in Aux-C        ...      4
Auxiliary 'external' fitting basis          ... NOT available
Integral threshold                          ...     2.500000e-11
Primitive cut-off                           ...     2.500000e-12
Primitive pair pre-selection threshold      ...     2.500000e-12

Calculating pre-screening integrals         ... done (  0.5 sec) Dimension = 298
Organizing shell pair data                  ... done (  1.1 sec)
Shell pair information
Total number of shell pairs                 ...     44551
Shell pairs after pre-screening             ...     33922
Total number of primitive shell pairs       ...    234348
Primitive shell pairs kept                  ...     96860
          la=0 lb=0:   6749 shell pairs
          la=1 lb=0:   9405 shell pairs
          la=1 lb=1:   3326 shell pairs
          la=2 lb=0:   5430 shell pairs
          la=2 lb=1:   3742 shell pairs
          la=2 lb=2:   1067 shell pairs
          la=3 lb=0:   1958 shell pairs
          la=3 lb=1:   1349 shell pairs
          la=3 lb=2:    749 shell pairs
          la=3 lb=3:    147 shell pairs

Calculating one electron integrals          ... done (  0.3 sec)
Calculating RI/C V-Matrix + Cholesky decomp.... done (  1.1 sec)
Calculating Nuclear repulsion               ... done (  0.0 sec) ENN=   1717.517690074464 Eh

SHARK setup successfully completed in   3.6 seconds

Maximum memory used throughout the entire GTOINT-calculation: 504.8 MB
-------------------------------------------------------------------------------
                                 ORCA SCF
-------------------------------------------------------------------------------

------------
SCF SETTINGS
------------
Hamiltonian:
 Ab initio Hamiltonian  Method          .... Hartree-Fock(GTOs)


General Settings:
 Integral files         IntName         .... CONFS/Conf795.orca
 Hartree-Fock type      HFTyp           .... RHF
 Total Charge           Charge          ....    0
 Multiplicity           Mult            ....    1
 Number of Electrons    NEL             ....  154
 Basis Dimension        Dim             ....  828
 Nuclear Repulsion      ENuc            ....   1717.5176900745 Eh

Convergence Acceleration:
 DIIS                   CNVDIIS         .... on
   Start iteration      DIISMaxIt       ....    12
   Startup error        DIISStart       ....  0.200000
   # of expansion vecs  DIISMaxEq       ....     5
   Bias factor          DIISBfac        ....   1.050
   Max. coefficient     DIISMaxC        ....  10.000
 Trust-Rad. Augm. Hess. CNVTRAH         .... auto
   Auto Start mean grad. ratio tolernc. ....  1.125000
   Auto Start start iteration           ....    20
   Auto Start num. interpolation iter.  ....    10
   Max. Number of Micro iterations      ....    16
   Max. Number of Macro iterations      .... Maxiter - #DIIS iter
   Number of Davidson start vectors     ....     2
   Converg. threshold I  (grad. norm)   ....   1.000e-05
   Converg. threshold II (energy diff.) ....   1.000e-08
   Grad. Scal. Fac. for Micro threshold ....   0.100
   Minimum threshold for Micro iter.    ....   0.010
   NR start threshold (gradient norm)   ....   0.001
   Initial trust radius                 ....   0.400
   Minimum AH scaling param. (alpha)    ....   1.000
   Maximum AH scaling param. (alpha)    .... 1000.000
   Orbital update algorithm             .... Taylor
   White noise on init. David. guess    .... on
   Maximum white noise                  ....   0.010
   Quad. conv. algorithm                .... NR
 SOSCF                  CNVSOSCF        .... on
   Start iteration      SOSCFMaxIt      ....   150
   Startup grad/error   SOSCFStart      ....  0.003300
 Level Shifting         CNVShift        .... on
   Level shift para.    LevelShift      ....    0.2500
   Turn off err/grad.   ShiftErr        ....    0.0010
 Zerner damping         CNVZerner       .... off
 Static damping         CNVDamp         .... on
   Fraction old density DampFac         ....    0.7000
   Max. Damping (<1)    DampMax         ....    0.9800
   Min. Damping (>=0)   DampMin         ....    0.0000
   Turn off err/grad.   DampErr         ....    0.1000
 Fernandez-Rico         CNVRico         .... off

SCF Procedure:
 Maximum # iterations   MaxIter         ....   125
 SCF integral mode      SCFMode         .... Direct
   Integral package                     .... SHARK and LIBINT hybrid scheme
 Reset frequency        DirectResetFreq ....    20
 Integral Threshold     Thresh          ....  2.500e-11 Eh
 Primitive CutOff       TCut            ....  2.500e-12 Eh

Convergence Tolerance:
 Convergence Check Mode ConvCheckMode   .... Total+1el-Energy
 Convergence forced     ConvForced      .... 1
 Energy Change          TolE            ....  1.000e-08 Eh
 1-El. energy change                    ....  1.000e-05 Eh
 Orbital Gradient       TolG            ....  1.000e-05
 Orbital Rotation angle TolX            ....  1.000e-05
 DIIS Error             TolErr          ....  5.000e-07


Diagonalization of the overlap matrix:
Smallest eigenvalue                        ... 3.054e-05
Time for diagonalization                   ...    0.107 sec
Threshold for overlap eigenvalues          ... 1.000e-08
Number of eigenvalues below threshold      ... 0
Time for construction of square roots      ...    0.091 sec
Total time needed                          ...    0.199 sec

Time for model grid setup =    1.657 sec

------------------------------
INITIAL GUESS: MODEL POTENTIAL
------------------------------
Loading Hartree-Fock densities                     ... done
Calculating cut-offs                               ... done
Initializing the effective Hamiltonian             ... done
Setting up the integral package (SHARK)            ... done
Starting the Coulomb interaction                   ... done (   3.8 sec)
Reading the grid                                   ... done
Mapping shells                                     ... done
Starting the XC term evaluation                    ... done (   1.2 sec)
Transforming the Hamiltonian                       ... done (   0.1 sec)
Diagonalizing the Hamiltonian                      ... done (   0.1 sec)
Back transforming the eigenvectors                 ... done (   0.0 sec)
Now organizing SCF variables                       ... done
                      ------------------
                      INITIAL GUESS DONE (   7.6 sec)
                      ------------------
--------------
SCF ITERATIONS
--------------
ITER       Energy         Delta-E        Max-DP      RMS-DP      [F,P]     Damp
               ***  Starting incremental Fock matrix formation  ***
  0  -1269.9975189260   0.000000000000 0.04932605  0.00043815  0.3281154 0.7000
  1  -1270.2653380446  -0.267819118581 0.03608340  0.00035323  0.1962707 0.7000
                               ***Turning on DIIS***
  2  -1270.4320819229  -0.166743878350 0.02583608  0.00023522  0.1097761 0.7000
  3  -1272.5293943352  -2.097312412216 0.06311706  0.00050096  0.0830008 0.0000
  4  -1270.7443416344   1.785052700776 0.00907878  0.00009924  0.0069745 0.0000
  5  -1270.8003616965  -0.056020062139 0.00362815  0.00005237  0.0049726 0.0000
  6  -1270.7790591389   0.021302557658 0.00185581  0.00002651  0.0037331 0.0000
                      *** Initiating the SOSCF procedure ***
                           *** Shutting down DIIS ***
                      *** Re-Reading the Fockian *** 
                      *** Removing any level shift *** 
ITER      Energy       Delta-E        Grad      Rot      Max-DP    RMS-DP
  7  -1270.79381422  -0.0147550791  0.001072  0.001072  0.001098  0.000015
               *** Restarting incremental Fock matrix formation ***
  8  -1270.79448475  -0.0006705354  0.000576  0.001477  0.000549  0.000008
  9  -1270.79449946  -0.0000147019  0.000266  0.001677  0.000726  0.000010
 10  -1270.79450549  -0.0000060325  0.000056  0.000134  0.000199  0.000002
 11  -1270.79450601  -0.0000005198  0.000034  0.000069  0.000058  0.000001
 12  -1270.79450613  -0.0000001211  0.000011  0.000047  0.000030  0.000000
 13  -1270.79450615  -0.0000000170  0.000007  0.000034  0.000015  0.000000
                  ***Gradient check signals convergence***
              ***Rediagonalizing the Fockian in SOSCF/NRSCF***

               *****************************************************
               *                     SUCCESS                       *
               *           SCF CONVERGED AFTER  14 CYCLES          *
               *****************************************************


----------------
TOTAL SCF ENERGY
----------------

Total Energy       :        -1270.79450616 Eh          -34580.07653 eV

Components:
Nuclear Repulsion  :         1717.51769007 Eh           46736.03236 eV
Electronic Energy  :        -2988.31219623 Eh          -81316.10889 eV
One Electron Energy:        -5155.69129361 Eh         -140293.49248 eV
Two Electron Energy:         2167.37909737 Eh           58977.38359 eV

Virial components:
Potential Energy   :        -2539.79656338 Eh          -69111.37804 eV
Kinetic Energy     :         1269.00205722 Eh           34531.30151 eV
Virial Ratio       :            2.00141249


---------------
SCF CONVERGENCE
---------------

  Last Energy change         ...   -1.3677e-08  Tolerance :   1.0000e-08
  Last MAX-Density change    ...    2.8670e-06  Tolerance :   1.0000e-07
  Last RMS-Density change    ...    4.4834e-08  Tolerance :   5.0000e-09
  Last Orbital Gradient      ...    1.8213e-06  Tolerance :   1.0000e-05
  Last Orbital Rotation      ...    5.2070e-06  Tolerance :   1.0000e-05

             **** THE GBW FILE WAS UPDATED (CONFS/Conf795.orca.gbw) ****
             **** DENSITY CONFS/Conf795.orca.scfp WAS UPDATED ****
             **** ENERGY FILE WAS UPDATED (CONFS/Conf795.orca.en.tmp) ****
             **** THE GBW FILE WAS UPDATED (CONFS/Conf795.orca.gbw) ****
             **** DENSITY CONFS/Conf795.orca.scfp WAS UPDATED ****
----------------
ORBITAL ENERGIES
----------------

  NO   OCC          E(Eh)            E(eV) 
   0   2.0000     -91.892438     -2500.5203 
   1   2.0000     -20.604844      -560.6863 
   2   2.0000     -20.589770      -560.2761 
   3   2.0000     -20.543646      -559.0210 
   4   2.0000     -15.632412      -425.3795 
   5   2.0000     -15.611696      -424.8158 
   6   2.0000     -11.392973      -310.0186 
   7   2.0000     -11.386787      -309.8502 
   8   2.0000     -11.337688      -308.5142 
   9   2.0000     -11.322908      -308.1120 
  10   2.0000     -11.317784      -307.9726 
  11   2.0000     -11.296037      -307.3808 
  12   2.0000     -11.268574      -306.6335 
  13   2.0000     -11.264593      -306.5252 
  14   2.0000     -11.261298      -306.4355 
  15   2.0000     -11.254459      -306.2494 
  16   2.0000     -11.251365      -306.1652 
  17   2.0000     -11.246717      -306.0387 
  18   2.0000     -11.245574      -306.0076 
  19   2.0000     -11.224307      -305.4289 
  20   2.0000      -8.897416      -242.1110 
  21   2.0000      -6.578971      -179.0229 
  22   2.0000      -6.576989      -178.9690 
  23   2.0000      -6.576384      -178.9525 
  24   2.0000      -1.445444       -39.3325 
  25   2.0000      -1.424458       -38.7615 
  26   2.0000      -1.354379       -36.8545 
  27   2.0000      -1.344222       -36.5781 
  28   2.0000      -1.242871       -33.8202 
  29   2.0000      -1.165392       -31.7119 
  30   2.0000      -1.122684       -30.5498 
  31   2.0000      -1.049244       -28.5514 
  32   2.0000      -1.033573       -28.1249 
  33   2.0000      -1.024271       -27.8718 
  34   2.0000      -1.001152       -27.2427 
  35   2.0000      -0.987708       -26.8769 
  36   2.0000      -0.928187       -25.2572 
  37   2.0000      -0.879935       -23.9443 
  38   2.0000      -0.852531       -23.1986 
  39   2.0000      -0.848857       -23.0986 
  40   2.0000      -0.842104       -22.9148 
  41   2.0000      -0.834074       -22.6963 
  42   2.0000      -0.760904       -20.7053 
  43   2.0000      -0.738424       -20.0935 
  44   2.0000      -0.718297       -19.5459 
  45   2.0000      -0.704645       -19.1744 
  46   2.0000      -0.695496       -18.9254 
  47   2.0000      -0.678007       -18.4495 
  48   2.0000      -0.672158       -18.2904 
  49   2.0000      -0.669039       -18.2055 
  50   2.0000      -0.653370       -17.7791 
  51   2.0000      -0.647884       -17.6298 
  52   2.0000      -0.641706       -17.4617 
  53   2.0000      -0.616165       -16.7667 
  54   2.0000      -0.608253       -16.5514 
  55   2.0000      -0.603280       -16.4161 
  56   2.0000      -0.587775       -15.9942 
  57   2.0000      -0.584175       -15.8962 
  58   2.0000      -0.576122       -15.6771 
  59   2.0000      -0.573991       -15.6191 
  60   2.0000      -0.563769       -15.3409 
  61   2.0000      -0.546699       -14.8764 
  62   2.0000      -0.541263       -14.7285 
  63   2.0000      -0.533651       -14.5214 
  64   2.0000      -0.521236       -14.1836 
  65   2.0000      -0.515342       -14.0232 
  66   2.0000      -0.509731       -13.8705 
  67   2.0000      -0.503217       -13.6932 
  68   2.0000      -0.483999       -13.1703 
  69   2.0000      -0.465935       -12.6787 
  70   2.0000      -0.449150       -12.2220 
  71   2.0000      -0.446610       -12.1529 
  72   2.0000      -0.361937        -9.8488 
  73   2.0000      -0.356390        -9.6979 
  74   2.0000      -0.333507        -9.0752 
  75   2.0000      -0.328662        -8.9433 
  76   2.0000      -0.319050        -8.6818 
  77   0.0000       0.071191         1.9372 
  78   0.0000       0.098131         2.6703 
  79   0.0000       0.118179         3.2158 
  80   0.0000       0.125352         3.4110 
  81   0.0000       0.128576         3.4987 
  82   0.0000       0.135420         3.6850 
  83   0.0000       0.145405         3.9567 
  84   0.0000       0.151370         4.1190 
  85   0.0000       0.158355         4.3091 
  86   0.0000       0.169608         4.6153 
  87   0.0000       0.183012         4.9800 
  88   0.0000       0.189934         5.1684 
  89   0.0000       0.194621         5.2959 
  90   0.0000       0.204092         5.5536 
  91   0.0000       0.208298         5.6681 
  92   0.0000       0.214501         5.8369 
  93   0.0000       0.218426         5.9437 
  94   0.0000       0.225915         6.1475 
  95   0.0000       0.229912         6.2562 
  96   0.0000       0.243125         6.6158 
  97   0.0000       0.247512         6.7352 
  98   0.0000       0.257753         7.0138 
  99   0.0000       0.270198         7.3525 
 100   0.0000       0.290416         7.9026 
 101   0.0000       0.299187         8.1413 
 102   0.0000       0.304393         8.2830 
 103   0.0000       0.314868         8.5680 
 104   0.0000       0.320401         8.7186 
 105   0.0000       0.328031         8.9262 
 106   0.0000       0.333028         9.0621 
 107   0.0000       0.341652         9.2968 
 108   0.0000       0.354172         9.6375 
 109   0.0000       0.361058         9.8249 
 110   0.0000       0.364256         9.9119 
 111   0.0000       0.377829        10.2812 
 112   0.0000       0.382320        10.4035 
 113   0.0000       0.392930        10.6922 
 114   0.0000       0.402082        10.9412 
 115   0.0000       0.409468        11.1422 
 116   0.0000       0.416769        11.3409 
 117   0.0000       0.427997        11.6464 
 118   0.0000       0.432580        11.7711 
 119   0.0000       0.437150        11.8955 
 120   0.0000       0.445565        12.1244 
 121   0.0000       0.448020        12.1913 
 122   0.0000       0.449337        12.2271 
 123   0.0000       0.456466        12.4211 
 124   0.0000       0.460420        12.5287 
 125   0.0000       0.466270        12.6879 
 126   0.0000       0.472801        12.8656 
 127   0.0000       0.479483        13.0474 
 128   0.0000       0.490741        13.3537 
 129   0.0000       0.491532        13.3753 
 130   0.0000       0.499616        13.5953 
 131   0.0000       0.506248        13.7757 
 132   0.0000       0.508631        13.8406 
 133   0.0000       0.519467        14.1354 
 134   0.0000       0.523465        14.2442 
 135   0.0000       0.529307        14.4032 
 136   0.0000       0.533202        14.5092 
 137   0.0000       0.540224        14.7003 
 138   0.0000       0.541994        14.7484 
 139   0.0000       0.549223        14.9451 
 140   0.0000       0.553339        15.0571 
 141   0.0000       0.558836        15.2067 
 142   0.0000       0.562275        15.3003 
 143   0.0000       0.569936        15.5087 
 144   0.0000       0.573347        15.6016 
 145   0.0000       0.581660        15.8278 
 146   0.0000       0.588587        16.0163 
 147   0.0000       0.592536        16.1237 
 148   0.0000       0.596430        16.2297 
 149   0.0000       0.599914        16.3245 
 150   0.0000       0.606720        16.5097 
 151   0.0000       0.608526        16.5588 
 152   0.0000       0.613293        16.6885 
 153   0.0000       0.618561        16.8319 
 154   0.0000       0.622969        16.9519 
 155   0.0000       0.623474        16.9656 
 156   0.0000       0.627895        17.0859 
 157   0.0000       0.630520        17.1573 
 158   0.0000       0.636140        17.3102 
 159   0.0000       0.639332        17.3971 
 160   0.0000       0.645539        17.5660 
 161   0.0000       0.655654        17.8413 
 162   0.0000       0.657288        17.8857 
 163   0.0000       0.660679        17.9780 
 164   0.0000       0.668165        18.1817 
 165   0.0000       0.671945        18.2845 
 166   0.0000       0.674669        18.3587 
 167   0.0000       0.681498        18.5445 
 168   0.0000       0.684422        18.6241 
 169   0.0000       0.694841        18.9076 
 170   0.0000       0.698941        19.0191 
 171   0.0000       0.707420        19.2499 
 172   0.0000       0.712633        19.3917 
 173   0.0000       0.720313        19.6007 
 174   0.0000       0.725737        19.7483 
 175   0.0000       0.727637        19.8000 
 176   0.0000       0.730434        19.8761 
 177   0.0000       0.736329        20.0365 
 178   0.0000       0.747799        20.3487 
 179   0.0000       0.761970        20.7343 
 180   0.0000       0.771080        20.9822 
 181   0.0000       0.789108        21.4727 
 182   0.0000       0.792731        21.5713 
 183   0.0000       0.796845        21.6833 
 184   0.0000       0.805249        21.9119 
 185   0.0000       0.816210        22.2102 
 186   0.0000       0.823877        22.4188 
 187   0.0000       0.828565        22.5464 
 188   0.0000       0.830884        22.6095 
 189   0.0000       0.833820        22.6894 
 190   0.0000       0.843985        22.9660 
 191   0.0000       0.850886        23.1538 
 192   0.0000       0.858266        23.3546 
 193   0.0000       0.868274        23.6270 
 194   0.0000       0.871628        23.7182 
 195   0.0000       0.873850        23.7787 
 196   0.0000       0.886349        24.1188 
 197   0.0000       0.894235        24.3334 
 198   0.0000       0.897872        24.4323 
 199   0.0000       0.904004        24.5992 
 200   0.0000       0.915011        24.8987 
 201   0.0000       0.920828        25.0570 
 202   0.0000       0.922178        25.0938 
 203   0.0000       0.927050        25.2263 
 204   0.0000       0.932811        25.3831 
 205   0.0000       0.945262        25.7219 
 206   0.0000       0.953447        25.9446 
 207   0.0000       0.961177        26.1550 
 208   0.0000       0.970522        26.4092 
 209   0.0000       0.975957        26.5571 
 210   0.0000       0.981945        26.7201 
 211   0.0000       0.987454        26.8700 
 212   0.0000       0.994590        27.0642 
 213   0.0000       0.998785        27.1783 
 214   0.0000       1.008377        27.4393 
 215   0.0000       1.013768        27.5860 
 216   0.0000       1.018875        27.7250 
 217   0.0000       1.027375        27.9563 
 218   0.0000       1.033581        28.1252 
 219   0.0000       1.041006        28.3272 
 220   0.0000       1.050865        28.5955 
 221   0.0000       1.054978        28.7074 
 222   0.0000       1.067532        29.0490 
 223   0.0000       1.073600        29.2141 
 224   0.0000       1.085416        29.5357 
 225   0.0000       1.091310        29.6961 
 226   0.0000       1.095998        29.8236 
 227   0.0000       1.108835        30.1729 
 228   0.0000       1.115651        30.3584 
 229   0.0000       1.125863        30.6363 
 230   0.0000       1.130222        30.7549 
 231   0.0000       1.136237        30.9186 
 232   0.0000       1.144435        31.1417 
 233   0.0000       1.146778        31.2054 
 234   0.0000       1.156619        31.4732 
 235   0.0000       1.164435        31.6859 
 236   0.0000       1.168217        31.7888 
 237   0.0000       1.177782        32.0491 
 238   0.0000       1.182213        32.1696 
 239   0.0000       1.188262        32.3343 
 240   0.0000       1.194648        32.5080 
 241   0.0000       1.203416        32.7466 
 242   0.0000       1.210521        32.9399 
 243   0.0000       1.218319        33.1521 
 244   0.0000       1.225745        33.3542 
 245   0.0000       1.227666        33.4065 
 246   0.0000       1.238319        33.6964 
 247   0.0000       1.245126        33.8816 
 248   0.0000       1.245696        33.8971 
 249   0.0000       1.254456        34.1355 
 250   0.0000       1.263034        34.3689 
 251   0.0000       1.271905        34.6103 
 252   0.0000       1.286389        35.0044 
 253   0.0000       1.291075        35.1319 
 254   0.0000       1.304568        35.4991 
 255   0.0000       1.307355        35.5749 
 256   0.0000       1.320343        35.9284 
 257   0.0000       1.328975        36.1633 
 258   0.0000       1.332681        36.2641 
 259   0.0000       1.339011        36.4363 
 260   0.0000       1.345908        36.6240 
 261   0.0000       1.353434        36.8288 
 262   0.0000       1.363179        37.0940 
 263   0.0000       1.371208        37.3125 
 264   0.0000       1.379155        37.5287 
 265   0.0000       1.388121        37.7727 
 266   0.0000       1.396127        37.9906 
 267   0.0000       1.406287        38.2670 
 268   0.0000       1.411137        38.3990 
 269   0.0000       1.421789        38.6889 
 270   0.0000       1.426303        38.8117 
 271   0.0000       1.427911        38.8554 
 272   0.0000       1.446756        39.3682 
 273   0.0000       1.449686        39.4480 
 274   0.0000       1.450825        39.4789 
 275   0.0000       1.457041        39.6481 
 276   0.0000       1.470918        40.0257 
 277   0.0000       1.481604        40.3165 
 278   0.0000       1.487126        40.4668 
 279   0.0000       1.491286        40.5799 
 280   0.0000       1.496727        40.7280 
 281   0.0000       1.508783        41.0561 
 282   0.0000       1.511982        41.1431 
 283   0.0000       1.522496        41.4292 
 284   0.0000       1.523514        41.4569 
 285   0.0000       1.527840        41.5746 
 286   0.0000       1.532218        41.6938 
 287   0.0000       1.539145        41.8823 
 288   0.0000       1.544699        42.0334 
 289   0.0000       1.550236        42.1841 
 290   0.0000       1.553334        42.2684 
 291   0.0000       1.561105        42.4798 
 292   0.0000       1.571088        42.7515 
 293   0.0000       1.576131        42.8887 
 294   0.0000       1.586327        43.1661 
 295   0.0000       1.601102        43.5682 
 296   0.0000       1.607409        43.7398 
 297   0.0000       1.616479        43.9866 
 298   0.0000       1.619689        44.0740 
 299   0.0000       1.626479        44.2587 
 300   0.0000       1.629190        44.3325 
 301   0.0000       1.645388        44.7733 
 302   0.0000       1.649601        44.8879 
 303   0.0000       1.662508        45.2391 
 304   0.0000       1.668504        45.4023 
 305   0.0000       1.686102        45.8812 
 306   0.0000       1.692608        46.0582 
 307   0.0000       1.701636        46.3039 
 308   0.0000       1.714523        46.6545 
 309   0.0000       1.731913        47.1278 
 310   0.0000       1.733730        47.1772 
 311   0.0000       1.739879        47.3445 
 312   0.0000       1.747931        47.5636 
 313   0.0000       1.754401        47.7397 
 314   0.0000       1.761814        47.9414 
 315   0.0000       1.762410        47.9576 
 316   0.0000       1.779936        48.4345 
 317   0.0000       1.797187        48.9039 
 318   0.0000       1.805388        49.1271 
 319   0.0000       1.814825        49.3839 
 320   0.0000       1.818801        49.4921 
 321   0.0000       1.828325        49.7513 
 322   0.0000       1.831804        49.8459 
 323   0.0000       1.849012        50.3142 
 324   0.0000       1.856026        50.5050 
 325   0.0000       1.870380        50.8956 
 326   0.0000       1.882974        51.2383 
 327   0.0000       1.898422        51.6587 
 328   0.0000       1.908503        51.9330 
 329   0.0000       1.918162        52.1958 
 330   0.0000       1.921821        52.2954 
 331   0.0000       1.940198        52.7955 
 332   0.0000       1.949395        53.0457 
 333   0.0000       1.956725        53.2452 
 334   0.0000       1.971181        53.6386 
 335   0.0000       1.987105        54.0719 
 336   0.0000       1.989680        54.1420 
 337   0.0000       1.998015        54.3687 
 338   0.0000       2.005764        54.5796 
 339   0.0000       2.015339        54.8402 
 340   0.0000       2.017755        54.9059 
 341   0.0000       2.044204        55.6256 
 342   0.0000       2.055176        55.9242 
 343   0.0000       2.073237        56.4156 
 344   0.0000       2.096001        57.0351 
 345   0.0000       2.100764        57.1647 
 346   0.0000       2.126554        57.8665 
 347   0.0000       2.136196        58.1288 
 348   0.0000       2.140423        58.2439 
 349   0.0000       2.153096        58.5887 
 350   0.0000       2.177811        59.2613 
 351   0.0000       2.198549        59.8256 
 352   0.0000       2.212935        60.2170 
 353   0.0000       2.215598        60.2895 
 354   0.0000       2.233578        60.7787 
 355   0.0000       2.248927        61.1964 
 356   0.0000       2.272080        61.8264 
 357   0.0000       2.283941        62.1492 
 358   0.0000       2.294070        62.4248 
 359   0.0000       2.295507        62.4639 
 360   0.0000       2.305156        62.7265 
 361   0.0000       2.326648        63.3113 
 362   0.0000       2.337821        63.6154 
 363   0.0000       2.351109        63.9769 
 364   0.0000       2.365731        64.3748 
 365   0.0000       2.379539        64.7505 
 366   0.0000       2.385917        64.9241 
 367   0.0000       2.398451        65.2652 
 368   0.0000       2.411840        65.6295 
 369   0.0000       2.422743        65.9262 
 370   0.0000       2.453311        66.7580 
 371   0.0000       2.459017        66.9133 
 372   0.0000       2.473921        67.3188 
 373   0.0000       2.479473        67.4699 
 374   0.0000       2.493659        67.8559 
 375   0.0000       2.501654        68.0735 
 376   0.0000       2.515453        68.4490 
 377   0.0000       2.523951        68.6802 
 378   0.0000       2.529771        68.8386 
 379   0.0000       2.542625        69.1883 
 380   0.0000       2.568675        69.8972 
 381   0.0000       2.576809        70.1185 
 382   0.0000       2.580945        70.2311 
 383   0.0000       2.584817        70.3365 
 384   0.0000       2.614255        71.1375 
 385   0.0000       2.621080        71.3232 
 386   0.0000       2.628231        71.5178 
 387   0.0000       2.647600        72.0449 
 388   0.0000       2.654831        72.2416 
 389   0.0000       2.664295        72.4991 
 390   0.0000       2.680311        72.9350 
 391   0.0000       2.685325        73.0714 
 392   0.0000       2.700960        73.4969 
 393   0.0000       2.718385        73.9710 
 394   0.0000       2.723263        74.1037 
 395   0.0000       2.734396        74.4067 
 396   0.0000       2.739182        74.5369 
 397   0.0000       2.749426        74.8157 
 398   0.0000       2.762065        75.1596 
 399   0.0000       2.762613        75.1745 
 400   0.0000       2.774787        75.5058 
 401   0.0000       2.787675        75.8565 
 402   0.0000       2.800371        76.2020 
 403   0.0000       2.811020        76.4918 
 404   0.0000       2.814945        76.5985 
 405   0.0000       2.823742        76.8379 
 406   0.0000       2.825499        76.8857 
 407   0.0000       2.840210        77.2860 
 408   0.0000       2.852552        77.6219 
 409   0.0000       2.859446        77.8095 
 410   0.0000       2.868453        78.0546 
 411   0.0000       2.873048        78.1796 
 412   0.0000       2.893389        78.7331 
 413   0.0000       2.899875        78.9096 
 414   0.0000       2.923562        79.5542 
 415   0.0000       2.929556        79.7173 
 416   0.0000       2.939658        79.9922 
 417   0.0000       2.942005        80.0560 
 418   0.0000       2.944523        80.1245 
 419   0.0000       2.957452        80.4764 
 420   0.0000       2.966379        80.7193 
 421   0.0000       2.974657        80.9445 
 422   0.0000       2.989074        81.3368 
 423   0.0000       2.994827        81.4934 
 424   0.0000       3.008070        81.8538 
 425   0.0000       3.012054        81.9621 
 426   0.0000       3.019419        82.1626 
 427   0.0000       3.024873        82.3110 
 428   0.0000       3.033394        82.5428 
 429   0.0000       3.043828        82.8268 
 430   0.0000       3.045557        82.8738 
 431   0.0000       3.055719        83.1503 
 432   0.0000       3.066204        83.4357 
 433   0.0000       3.071734        83.5861 
 434   0.0000       3.078915        83.7815 
 435   0.0000       3.085698        83.9661 
 436   0.0000       3.093586        84.1807 
 437   0.0000       3.102458        84.4222 
 438   0.0000       3.104732        84.4841 
 439   0.0000       3.109071        84.6021 
 440   0.0000       3.112824        84.7042 
 441   0.0000       3.116297        84.7987 
 442   0.0000       3.118486        84.8583 
 443   0.0000       3.136015        85.3353 
 444   0.0000       3.145342        85.5891 
 445   0.0000       3.147750        85.6546 
 446   0.0000       3.162102        86.0452 
 447   0.0000       3.172631        86.3317 
 448   0.0000       3.184397        86.6518 
 449   0.0000       3.194601        86.9295 
 450   0.0000       3.198386        87.0325 
 451   0.0000       3.204277        87.1928 
 452   0.0000       3.208748        87.3145 
 453   0.0000       3.213728        87.4500 
 454   0.0000       3.223478        87.7153 
 455   0.0000       3.233873        87.9982 
 456   0.0000       3.239629        88.1548 
 457   0.0000       3.242867        88.2429 
 458   0.0000       3.252981        88.5181 
 459   0.0000       3.261709        88.7556 
 460   0.0000       3.273990        89.0898 
 461   0.0000       3.277374        89.1819 
 462   0.0000       3.289262        89.5054 
 463   0.0000       3.290149        89.5295 
 464   0.0000       3.293968        89.6334 
 465   0.0000       3.305538        89.9483 
 466   0.0000       3.312004        90.1242 
 467   0.0000       3.317360        90.2700 
 468   0.0000       3.319996        90.3417 
 469   0.0000       3.330507        90.6277 
 470   0.0000       3.338451        90.8439 
 471   0.0000       3.343341        90.9769 
 472   0.0000       3.351941        91.2110 
 473   0.0000       3.355203        91.2997 
 474   0.0000       3.360905        91.4549 
 475   0.0000       3.371602        91.7460 
 476   0.0000       3.376583        91.8815 
 477   0.0000       3.380273        91.9819 
 478   0.0000       3.387984        92.1917 
 479   0.0000       3.388157        92.1964 
 480   0.0000       3.400083        92.5210 
 481   0.0000       3.405598        92.6710 
 482   0.0000       3.409229        92.7698 
 483   0.0000       3.413283        92.8801 
 484   0.0000       3.418874        93.0323 
 485   0.0000       3.422193        93.1226 
 486   0.0000       3.424133        93.1754 
 487   0.0000       3.428521        93.2948 
 488   0.0000       3.431126        93.3657 
 489   0.0000       3.441212        93.6401 
 490   0.0000       3.446881        93.7944 
 491   0.0000       3.460250        94.1582 
 492   0.0000       3.462637        94.2231 
 493   0.0000       3.472915        94.5028 
 494   0.0000       3.478501        94.6548 
 495   0.0000       3.486634        94.8761 
 496   0.0000       3.495896        95.1282 
 497   0.0000       3.501749        95.2874 
 498   0.0000       3.505134        95.3795 
 499   0.0000       3.515797        95.6697 
 500   0.0000       3.516884        95.6993 
 501   0.0000       3.528594        96.0179 
 502   0.0000       3.537195        96.2520 
 503   0.0000       3.550261        96.6075 
 504   0.0000       3.553111        96.6851 
 505   0.0000       3.561726        96.9195 
 506   0.0000       3.571085        97.1742 
 507   0.0000       3.574265        97.2607 
 508   0.0000       3.583083        97.5007 
 509   0.0000       3.589804        97.6835 
 510   0.0000       3.590787        97.7103 
 511   0.0000       3.599655        97.9516 
 512   0.0000       3.602647        98.0330 
 513   0.0000       3.604749        98.0902 
 514   0.0000       3.615753        98.3897 
 515   0.0000       3.622306        98.5679 
 516   0.0000       3.629147        98.7541 
 517   0.0000       3.631902        98.8291 
 518   0.0000       3.639101        99.0250 
 519   0.0000       3.648199        99.2725 
 520   0.0000       3.652437        99.3879 
 521   0.0000       3.661567        99.6363 
 522   0.0000       3.667847        99.8072 
 523   0.0000       3.675683       100.0204 
 524   0.0000       3.678757       100.1041 
 525   0.0000       3.681060       100.1667 
 526   0.0000       3.683283       100.2272 
 527   0.0000       3.693654       100.5094 
 528   0.0000       3.698380       100.6380 
 529   0.0000       3.706785       100.8667 
 530   0.0000       3.718497       101.1855 
 531   0.0000       3.725900       101.3869 
 532   0.0000       3.731777       101.5468 
 533   0.0000       3.734528       101.6217 
 534   0.0000       3.743064       101.8539 
 535   0.0000       3.745523       101.9209 
 536   0.0000       3.752421       102.1086 
 537   0.0000       3.758339       102.2696 
 538   0.0000       3.761874       102.3658 
 539   0.0000       3.770697       102.6059 
 540   0.0000       3.783124       102.9440 
 541   0.0000       3.787029       103.0503 
 542   0.0000       3.799613       103.3927 
 543   0.0000       3.805669       103.5575 
 544   0.0000       3.807290       103.6016 
 545   0.0000       3.820879       103.9714 
 546   0.0000       3.827633       104.1552 
 547   0.0000       3.838201       104.4428 
 548   0.0000       3.843421       104.5848 
 549   0.0000       3.847124       104.6856 
 550   0.0000       3.853359       104.8552 
 551   0.0000       3.857942       104.9799 
 552   0.0000       3.869460       105.2934 
 553   0.0000       3.879209       105.5586 
 554   0.0000       3.886203       105.7490 
 555   0.0000       3.907689       106.3336 
 556   0.0000       3.915015       106.5330 
 557   0.0000       3.923771       106.7712 
 558   0.0000       3.928122       106.8896 
 559   0.0000       3.934248       107.0563 
 560   0.0000       3.939566       107.2010 
 561   0.0000       3.950324       107.4938 
 562   0.0000       3.965845       107.9161 
 563   0.0000       3.974089       108.1405 
 564   0.0000       3.982484       108.3689 
 565   0.0000       3.994745       108.7025 
 566   0.0000       4.002871       108.9237 
 567   0.0000       4.007761       109.0567 
 568   0.0000       4.015084       109.2560 
 569   0.0000       4.019764       109.3834 
 570   0.0000       4.031753       109.7096 
 571   0.0000       4.036180       109.8300 
 572   0.0000       4.045720       110.0896 
 573   0.0000       4.064429       110.5987 
 574   0.0000       4.071355       110.7872 
 575   0.0000       4.073604       110.8484 
 576   0.0000       4.084515       111.1453 
 577   0.0000       4.093628       111.3933 
 578   0.0000       4.097626       111.5021 
 579   0.0000       4.104938       111.7011 
 580   0.0000       4.111131       111.8696 
 581   0.0000       4.123131       112.1961 
 582   0.0000       4.132156       112.4417 
 583   0.0000       4.135451       112.5313 
 584   0.0000       4.143689       112.7555 
 585   0.0000       4.149550       112.9150 
 586   0.0000       4.158805       113.1668 
 587   0.0000       4.164192       113.3134 
 588   0.0000       4.169943       113.4699 
 589   0.0000       4.173395       113.5639 
 590   0.0000       4.186653       113.9246 
 591   0.0000       4.190102       114.0185 
 592   0.0000       4.201563       114.3303 
 593   0.0000       4.206715       114.4705 
 594   0.0000       4.208410       114.5167 
 595   0.0000       4.213719       114.6611 
 596   0.0000       4.219472       114.8177 
 597   0.0000       4.225417       114.9795 
 598   0.0000       4.236311       115.2759 
 599   0.0000       4.238711       115.3412 
 600   0.0000       4.248384       115.6044 
 601   0.0000       4.270129       116.1961 
 602   0.0000       4.271645       116.2374 
 603   0.0000       4.287126       116.6586 
 604   0.0000       4.293372       116.8286 
 605   0.0000       4.295304       116.8812 
 606   0.0000       4.304927       117.1430 
 607   0.0000       4.315332       117.4261 
 608   0.0000       4.321927       117.6056 
 609   0.0000       4.323670       117.6531 
 610   0.0000       4.330209       117.8310 
 611   0.0000       4.337683       118.0344 
 612   0.0000       4.347416       118.2992 
 613   0.0000       4.361012       118.6692 
 614   0.0000       4.365345       118.7871 
 615   0.0000       4.382887       119.2644 
 616   0.0000       4.384402       119.3056 
 617   0.0000       4.387632       119.3935 
 618   0.0000       4.398313       119.6842 
 619   0.0000       4.401316       119.7659 
 620   0.0000       4.407122       119.9239 
 621   0.0000       4.415664       120.1563 
 622   0.0000       4.431330       120.5826 
 623   0.0000       4.436695       120.7286 
 624   0.0000       4.447074       121.0110 
 625   0.0000       4.457715       121.3006 
 626   0.0000       4.466543       121.5408 
 627   0.0000       4.472684       121.7079 
 628   0.0000       4.490271       122.1865 
 629   0.0000       4.496933       122.3678 
 630   0.0000       4.501581       122.4942 
 631   0.0000       4.506979       122.6411 
 632   0.0000       4.510592       122.7394 
 633   0.0000       4.522647       123.0675 
 634   0.0000       4.536756       123.4514 
 635   0.0000       4.540436       123.5515 
 636   0.0000       4.548417       123.7687 
 637   0.0000       4.568995       124.3287 
 638   0.0000       4.574658       124.4828 
 639   0.0000       4.578355       124.5834 
 640   0.0000       4.580287       124.6359 
 641   0.0000       4.594003       125.0092 
 642   0.0000       4.610593       125.4606 
 643   0.0000       4.615288       125.5884 
 644   0.0000       4.619001       125.6894 
 645   0.0000       4.623488       125.8115 
 646   0.0000       4.626567       125.8953 
 647   0.0000       4.637092       126.1817 
 648   0.0000       4.645219       126.4028 
 649   0.0000       4.647826       126.4738 
 650   0.0000       4.658323       126.7594 
 651   0.0000       4.671251       127.1112 
 652   0.0000       4.681480       127.3896 
 653   0.0000       4.690031       127.6222 
 654   0.0000       4.691285       127.6564 
 655   0.0000       4.702370       127.9580 
 656   0.0000       4.719211       128.4163 
 657   0.0000       4.730764       128.7306 
 658   0.0000       4.745792       129.1396 
 659   0.0000       4.759307       129.5073 
 660   0.0000       4.768776       129.7650 
 661   0.0000       4.775245       129.9410 
 662   0.0000       4.788437       130.3000 
 663   0.0000       4.805431       130.7624 
 664   0.0000       4.812697       130.9601 
 665   0.0000       4.824583       131.2836 
 666   0.0000       4.848483       131.9339 
 667   0.0000       4.861934       132.2999 
 668   0.0000       4.882517       132.8600 
 669   0.0000       4.901060       133.3646 
 670   0.0000       4.914440       133.7287 
 671   0.0000       4.926008       134.0435 
 672   0.0000       4.950609       134.7129 
 673   0.0000       4.957449       134.8990 
 674   0.0000       4.986060       135.6776 
 675   0.0000       5.008709       136.2939 
 676   0.0000       5.021819       136.6506 
 677   0.0000       5.031872       136.9242 
 678   0.0000       5.033968       136.9812 
 679   0.0000       5.046316       137.3172 
 680   0.0000       5.048083       137.3653 
 681   0.0000       5.070150       137.9658 
 682   0.0000       5.087445       138.4364 
 683   0.0000       5.099364       138.7608 
 684   0.0000       5.108408       139.0068 
 685   0.0000       5.119902       139.3196 
 686   0.0000       5.128172       139.5447 
 687   0.0000       5.138303       139.8203 
 688   0.0000       5.147405       140.0680 
 689   0.0000       5.157064       140.3309 
 690   0.0000       5.163677       140.5108 
 691   0.0000       5.169222       140.6617 
 692   0.0000       5.179081       140.9299 
 693   0.0000       5.187171       141.1501 
 694   0.0000       5.202514       141.5676 
 695   0.0000       5.207884       141.7137 
 696   0.0000       5.215218       141.9133 
 697   0.0000       5.220647       142.0610 
 698   0.0000       5.234317       142.4330 
 699   0.0000       5.252753       142.9347 
 700   0.0000       5.269798       143.3985 
 701   0.0000       5.289458       143.9335 
 702   0.0000       5.302845       144.2977 
 703   0.0000       5.314471       144.6141 
 704   0.0000       5.317697       144.7019 
 705   0.0000       5.327124       144.9584 
 706   0.0000       5.351142       145.6120 
 707   0.0000       5.359335       145.8349 
 708   0.0000       5.367752       146.0640 
 709   0.0000       5.376681       146.3069 
 710   0.0000       5.393113       146.7541 
 711   0.0000       5.406600       147.1211 
 712   0.0000       5.424199       147.5999 
 713   0.0000       5.440389       148.0405 
 714   0.0000       5.459461       148.5595 
 715   0.0000       5.472627       148.9177 
 716   0.0000       5.491001       149.4177 
 717   0.0000       5.507263       149.8602 
 718   0.0000       5.517318       150.1339 
 719   0.0000       5.522842       150.2842 
 720   0.0000       5.540732       150.7710 
 721   0.0000       5.546202       150.9198 
 722   0.0000       5.550916       151.0481 
 723   0.0000       5.570696       151.5863 
 724   0.0000       5.575645       151.7210 
 725   0.0000       5.598153       152.3335 
 726   0.0000       5.608152       152.6056 
 727   0.0000       5.617430       152.8580 
 728   0.0000       5.629042       153.1740 
 729   0.0000       5.649079       153.7193 
 730   0.0000       5.660223       154.0225 
 731   0.0000       5.664819       154.1476 
 732   0.0000       5.669203       154.2668 
 733   0.0000       5.672478       154.3560 
 734   0.0000       5.693692       154.9332 
 735   0.0000       5.709039       155.3509 
 736   0.0000       5.715473       155.5259 
 737   0.0000       5.737569       156.1272 
 738   0.0000       5.742555       156.2629 
 739   0.0000       5.751322       156.5014 
 740   0.0000       5.753205       156.5527 
 741   0.0000       5.779488       157.2679 
 742   0.0000       5.790710       157.5732 
 743   0.0000       5.807923       158.0416 
 744   0.0000       5.812511       158.1665 
 745   0.0000       5.863323       159.5491 
 746   0.0000       5.873042       159.8136 
 747   0.0000       5.886722       160.1858 
 748   0.0000       5.891235       160.3087 
 749   0.0000       5.917067       161.0116 
 750   0.0000       5.934127       161.4758 
 751   0.0000       5.966100       162.3458 
 752   0.0000       5.978804       162.6915 
 753   0.0000       5.988228       162.9480 
 754   0.0000       6.020581       163.8283 
 755   0.0000       6.032172       164.1437 
 756   0.0000       6.058120       164.8498 
 757   0.0000       6.063888       165.0068 
 758   0.0000       6.086567       165.6239 
 759   0.0000       6.106939       166.1783 
 760   0.0000       6.120931       166.5590 
 761   0.0000       6.160109       167.6251 
 762   0.0000       6.217125       169.1766 
 763   0.0000       6.237337       169.7266 
 764   0.0000       6.241277       169.8338 
 765   0.0000       6.279633       170.8775 
 766   0.0000       6.288371       171.1153 
 767   0.0000       6.323146       172.0616 
 768   0.0000       6.333386       172.3402 
 769   0.0000       6.341566       172.5628 
 770   0.0000       6.358604       173.0264 
 771   0.0000       6.374289       173.4532 
 772   0.0000       6.393263       173.9695 
 773   0.0000       6.443113       175.3260 
 774   0.0000       6.454378       175.6326 
 775   0.0000       6.483689       176.4302 
 776   0.0000       6.502184       176.9334 
 777   0.0000       6.545582       178.1143 
 778   0.0000       6.577441       178.9813 
 779   0.0000       6.613473       179.9617 
 780   0.0000       6.625890       180.2996 
 781   0.0000       6.673756       181.6021 
 782   0.0000       6.725669       183.0147 
 783   0.0000       6.764264       184.0650 
 784   0.0000       6.791747       184.8128 
 785   0.0000       6.898151       187.7082 
 786   0.0000       6.900650       187.7762 
 787   0.0000       6.917812       188.2432 
 788   0.0000       6.944066       188.9576 
 789   0.0000       7.040366       191.5781 
 790   0.0000       7.048968       191.8122 
 791   0.0000       7.061297       192.1477 
 792   0.0000       7.075389       192.5311 
 793   0.0000       7.112395       193.5381 
 794   0.0000       7.226618       196.6463 
 795   0.0000       7.252943       197.3626 
 796   0.0000       7.270898       197.8512 
 797   0.0000       7.279177       198.0765 
 798   0.0000       7.339062       199.7060 
 799   0.0000       7.377889       200.7626 
 800   0.0000       7.417901       201.8513 
 801   0.0000       7.557121       205.6397 
 802   0.0000       7.580012       206.2626 
 803   0.0000       7.593406       206.6271 
 804   0.0000       7.659353       208.4216 
 805   0.0000       7.793862       212.0818 
 806   0.0000       7.810836       212.5436 
 807   0.0000       7.927772       215.7257 
 808   0.0000       7.949791       216.3248 
 809   0.0000       9.440879       256.8994 
 810   0.0000       9.555974       260.0313 
 811   0.0000      10.697077       291.0823 
 812   0.0000      11.189316       304.4768 
 813   0.0000      12.035170       327.4936 
 814   0.0000      12.736165       346.5687 
 815   0.0000      12.939347       352.0975 
 816   0.0000      13.047711       355.0463 
 817   0.0000      13.188379       358.8740 
 818   0.0000      13.381682       364.1341 
 819   0.0000      13.529625       368.1598 
 820   0.0000      13.641468       371.2032 
 821   0.0000      13.797750       375.4559 
 822   0.0000      13.949617       379.5884 
 823   0.0000      14.022795       381.5797 
 824   0.0000      14.155063       385.1789 
 825   0.0000      14.408015       392.0620 
 826   0.0000      14.627166       398.0254 
 827   0.0000      16.012761       435.7294 

                    ********************************
                    * MULLIKEN POPULATION ANALYSIS *
                    ********************************

-----------------------
MULLIKEN ATOMIC CHARGES
-----------------------
   0 C :   -0.255836
   1 C :    0.020426
   2 O :   -0.337727
   3 C :    0.451734
   4 O :   -0.384522
   5 C :   -0.264611
   6 C :    0.133119
   7 C :   -0.271262
   8 N :   -0.125415
   9 C :    0.214562
  10 S :   -0.433344
  11 N :   -0.199756
  12 C :    0.053433
  13 C :    0.056215
  14 C :   -0.227602
  15 C :   -0.121830
  16 C :   -0.274520
  17 C :    0.312518
  18 O :   -0.355416
  19 C :   -0.254419
  20 H :    0.098560
  21 H :    0.086851
  22 H :    0.100290
  23 H :    0.099975
  24 H :    0.104172
  25 H :    0.123077
  26 H :    0.142286
  27 H :    0.093810
  28 H :    0.199591
  29 H :    0.190397
  30 H :    0.153317
  31 H :    0.157273
  32 H :    0.164896
  33 H :    0.133829
  34 H :    0.242779
  35 H :    0.173150
Sum of atomic charges:   -0.0000000

--------------------------------
MULLIKEN REDUCED ORBITAL CHARGES
--------------------------------
  0 C s       :     3.260665  s :     3.260665
      pz      :     0.978009  p :     2.918568
      px      :     0.947931
      py      :     0.992628
      dz2     :     0.003122  d :     0.072127
      dxz     :     0.020737
      dyz     :     0.024715
      dx2y2   :     0.007244
      dxy     :     0.016311
      f0      :     0.000297  f :     0.004475
      f+1     :     0.000206
      f-1     :     0.000312
      f+2     :     0.000575
      f-2     :     0.002263
      f+3     :     0.000374
      f-3     :     0.000448
  1 C s       :     3.169481  s :     3.169481
      pz      :     0.865371  p :     2.636699
      px      :     0.851206
      py      :     0.920122
      dz2     :     0.025368  d :     0.161463
      dxz     :     0.032871
      dyz     :     0.040341
      dx2y2   :     0.024174
      dxy     :     0.038709
      f0      :     0.001443  f :     0.011932
      f+1     :     0.001745
      f-1     :     0.001470
      f+2     :     0.001977
      f-2     :     0.003089
      f+3     :     0.001008
      f-3     :     0.001199
  2 O s       :     3.717843  s :     3.717843
      pz      :     1.641463  p :     4.583961
      px      :     1.670876
      py      :     1.271622
      dz2     :     0.006633  d :     0.033631
      dxz     :     0.005551
      dyz     :     0.006632
      dx2y2   :     0.009210
      dxy     :     0.005605
      f0      :     0.000207  f :     0.002291
      f+1     :     0.000198
      f-1     :     0.000391
      f+2     :     0.000273
      f-2     :     0.000329
[...]
 15 C s       :     2.705957  s :     2.705957
      pz      :     0.903872  p :     2.791481
      px      :     0.934151
      py      :     0.953458
      dz2     :     0.093684  d :     0.418245
      dxz     :     0.075917
      dyz     :     0.061879
      dx2y2   :     0.099588
      dxy     :     0.087177
      f0      :     0.004002  f :     0.041182
      f+1     :     0.005774
      f-1     :     0.005539
      f+2     :     0.007697
      f-2     :     0.005677
      f+3     :     0.007063
      f-3     :     0.005430
 16 C s       :     2.701598  s :     2.701598
      pz      :     0.936830  p :     2.868239
      px      :     0.962700
      py      :     0.968709
      dz2     :     0.045902  d :     0.389633
      dxz     :     0.063577
      dyz     :     0.083068
      dx2y2   :     0.094235
      dxy     :     0.102851
      f0      :     0.003559  f :     0.040279
      f+1     :     0.005161
      f-1     :     0.004616
      f+2     :     0.006052
      f-2     :     0.004950
      f+3     :     0.008513
      f-3     :     0.007428
 17 C s       :     2.701645  s :     2.701645
      pz      :     0.865645  p :     2.677932
      px      :     0.818948
      py      :     0.993339
      dz2     :     0.129899  d :     0.710730
      dxz     :     0.113642
      dyz     :     0.135109
      dx2y2   :     0.166360
      dxy     :     0.165720
      f0      :     0.009167  f :     0.099405
      f+1     :     0.016345
      f-1     :     0.009633
      f+2     :     0.016489
      f-2     :     0.013537
      f+3     :     0.017489
      f-3     :     0.016744
 18 O s       :     3.177163  s :     3.177163
      pz      :     1.405340  p :     4.345567
      px      :     1.417346
      py      :     1.522881
      dz2     :     0.008934  d :     0.075387
      dxz     :     0.017031
      dyz     :     0.018688
      dx2y2   :     0.015147
      dxy     :     0.015588
      f0      :     0.000571  f :     0.005051
      f+1     :     0.000698
      f-1     :     0.000539
      f+2     :     0.000643
      f-2     :     0.000998
      f+3     :     0.000708
      f-3     :     0.000894
 19 C s       :     2.694886  s :     2.694886
      pz      :     0.936713  p :     2.846562
      px      :     0.952191
      py      :     0.957659
      dz2     :     0.077216  d :     0.387625
      dxz     :     0.073754
      dyz     :     0.063245
      dx2y2   :     0.086755
      dxy     :     0.086654
      f0      :     0.003770  f :     0.040681
      f+1     :     0.006067
      f-1     :     0.005322
      f+2     :     0.007588
      f-2     :     0.006207
      f+3     :     0.006642
      f-3     :     0.005086
 20 H s       :     0.847484  s :     0.847484
      pz      :     0.047450  p :     0.150081
      px      :     0.048769
      py      :     0.053862
      dz2     :     0.004418  d :     0.027504
      dxz     :     0.004806
      dyz     :     0.005819
      dx2y2   :     0.006337
      dxy     :     0.006123
 21 H s       :     0.849630  s :     0.849630
      pz      :     0.050197  p :     0.151175
      px      :     0.051665
      py      :     0.049313
      dz2     :     0.005704  d :     0.027426
      dxz     :     0.005709
      dyz     :     0.005287
      dx2y2   :     0.005434
      dxy     :     0.005291
 22 H s       :     0.847880  s :     0.847880
      pz      :     0.056019  p :     0.150313
      px      :     0.042507
      py      :     0.051788
      dz2     :     0.006809  d :     0.027486
      dxz     :     0.005279
      dyz     :     0.006649
      dx2y2   :     0.004232
      dxy     :     0.004516
 23 H s       :     0.851252  s :     0.851252
      pz      :     0.060953  p :     0.154442
      px      :     0.043855
      py      :     0.049635
      dz2     :     0.006669  d :     0.027759
      dxz     :     0.005716
      dyz     :     0.006761
      dx2y2   :     0.003289
      dxy     :     0.005323
 24 H s       :     0.853644  s :     0.853644
      pz      :     0.046900  p :     0.149385
      px      :     0.045564
      py      :     0.056920
      dz2     :     0.004163  d :     0.027243
      dxz     :     0.005080
      dyz     :     0.005878
      dx2y2   :     0.005907
      dxy     :     0.006215
 25 H s       :     0.829554  s :     0.829554
      pz      :     0.043070  p :     0.149455
      px      :     0.062675
      py      :     0.043710
      dz2     :     0.003113  d :     0.027704
      dxz     :     0.007218
      dyz     :     0.003006
      dx2y2   :     0.007573
      dxy     :     0.006794
 26 H s       :     0.822380  s :     0.822380
      pz      :     0.065132  p :     0.151724
      px      :     0.046483
      py      :     0.040109
      dz2     :     0.008495  d :     0.027701
      dxz     :     0.006688
      dyz     :     0.007017
      dx2y2   :     0.002412
      dxy     :     0.003090
 27 H s       :     0.844533  s :     0.844533
      pz      :     0.046377  p :     0.150518
      px      :     0.042055
      py      :     0.062086
      dz2     :     0.005013  d :     0.027680
      dxz     :     0.003277
      dyz     :     0.006687
      dx2y2   :     0.005808
      dxy     :     0.006895
 28 H s       :     0.742299  s :     0.742299
      pz      :     0.066597  p :     0.252957
      px      :     0.065848
      py      :     0.120512
      dz2     :     0.006674  d :     0.061688
      dxz     :     0.002628
      dyz     :     0.017753
      dx2y2   :     0.016914
      dxy     :     0.017719
 29 H s       :     0.750292  s :     0.750292
      pz      :     0.096807  p :     0.254903
      px      :     0.105228
      py      :     0.052868
      dz2     :     0.013073  d :     0.061382
      dxz     :     0.014409
      dyz     :     0.007727
      dx2y2   :     0.014611
      dxy     :     0.011561
 30 H s       :     0.829677  s :     0.829677
      pz      :     0.048779  p :     0.146557
      px      :     0.047825
      py      :     0.049952
      dz2     :     0.005269  d :     0.028263
      dxz     :     0.005820
      dyz     :     0.005872
      dx2y2   :     0.004976
      dxy     :     0.006327
 31 H s       :     0.844777  s :     0.844777
      pz      :     0.050825  p :     0.158603
      px      :     0.067733
      py      :     0.040044
      dz2     :     0.004748  d :     0.027597
      dxz     :     0.006795
      dyz     :     0.003049
      dx2y2   :     0.006546
      dxy     :     0.006459
 32 H s       :     0.841653  s :     0.841653
      pz      :     0.038075  p :     0.150907
      px      :     0.040229
      py      :     0.072603
      dz2     :     0.002945  d :     0.026394
      dxz     :     0.001241
      dyz     :     0.007036
      dx2y2   :     0.007465
      dxy     :     0.007706
 33 H s       :     0.847259  s :     0.847259
      pz      :     0.061477  p :     0.158740
      px      :     0.047618
      py      :     0.049645
      dz2     :     0.006878  d :     0.027719
      dxz     :     0.005400
      dyz     :     0.006177
      dx2y2   :     0.004802
      dxy     :     0.004461
 34 H s       :     0.705265  s :     0.705265
      pz      :     0.124922  p :     0.347013
      px      :     0.083966
      py      :     0.138125
      dz2     :     0.027471  d :     0.099358
      dxz     :     0.015115
      dyz     :     0.024222
      dx2y2   :     0.016396
      dxy     :     0.016154
 35 H s       :     0.838254  s :     0.838254
      pz      :     0.041345  p :     0.160433
      px      :     0.043268
      py      :     0.075820
      dz2     :     0.003063  d :     0.028299
      dxz     :     0.001294
      dyz     :     0.007761
      dx2y2   :     0.008074
      dxy     :     0.008108


                      *****************************
                      * MAYER POPULATION ANALYSIS *
                      *****************************

  NA   - Mulliken gross atomic population
  ZA   - Total nuclear charge
  QA   - Mulliken gross atomic charge
  VA   - Mayer's total valence
  BVA  - Mayer's bonded valence
  FA   - Mayer's free valence

  ATOM       NA         ZA         QA         VA         BVA        FA
  0 C      6.2558     6.0000    -0.2558     3.9033     3.9033    -0.0000
  1 C      5.9796     6.0000     0.0204     3.8415     3.8415    -0.0000
  2 O      8.3377     8.0000    -0.3377     2.0276     2.0276    -0.0000
  3 C      5.5483     6.0000     0.4517     4.2695     4.2695     0.0000
  4 O      8.3845     8.0000    -0.3845     2.1172     2.1172     0.0000
  5 C      6.2646     6.0000    -0.2646     3.5895     3.5895    -0.0000
  6 C      5.8669     6.0000     0.1331     3.8847     3.8847     0.0000
  7 C      6.2713     6.0000    -0.2713     3.9109     3.9109     0.0000
  8 N      7.1254     7.0000    -0.1254     3.2900     3.2900     0.0000
  9 C      5.7854     6.0000     0.2146     4.1426     4.1426    -0.0000
 10 S     16.4333    16.0000    -0.4333     1.7669     1.7669    -0.0000
 11 N      7.1998     7.0000    -0.1998     3.2240     3.2240    -0.0000
 12 C      5.9466     6.0000     0.0534     3.9428     3.9428    -0.0000
 13 C      5.9438     6.0000     0.0562     3.7199     3.7199    -0.0000
 14 C      6.2276     6.0000    -0.2276     3.8381     3.8381    -0.0000
 15 C      6.1218     6.0000    -0.1218     3.8052     3.8052    -0.0000
 16 C      6.2745     6.0000    -0.2745     3.7937     3.7937    -0.0000
 17 C      5.6875     6.0000     0.3125     3.8905     3.8905    -0.0000
 18 O      8.3554     8.0000    -0.3554     2.1221     2.1221    -0.0000
 19 C      6.2544     6.0000    -0.2544     3.8078     3.8078    -0.0000
 20 H      0.9014     1.0000     0.0986     0.9869     0.9869    -0.0000
 21 H      0.9131     1.0000     0.0869     0.9817     0.9817    -0.0000
 22 H      0.8997     1.0000     0.1003     0.9857     0.9857    -0.0000
 23 H      0.9000     1.0000     0.1000     0.9753     0.9753    -0.0000
 24 H      0.8958     1.0000     0.1042     0.9822     0.9822     0.0000
 25 H      0.8769     1.0000     0.1231     0.9821     0.9821    -0.0000
 26 H      0.8577     1.0000     0.1423     0.9777     0.9777     0.0000
 27 H      0.9062     1.0000     0.0938     0.9848     0.9848     0.0000
 28 H      0.8004     1.0000     0.1996     1.0203     1.0203     0.0000
 29 H      0.8096     1.0000     0.1904     1.0214     1.0214     0.0000
 30 H      0.8467     1.0000     0.1533     0.9936     0.9936     0.0000
 31 H      0.8427     1.0000     0.1573     0.9824     0.9824    -0.0000
 32 H      0.8351     1.0000     0.1649     0.9761     0.9761    -0.0000
 33 H      0.8662     1.0000     0.1338     0.9908     0.9908    -0.0000
 34 H      0.7572     1.0000     0.2428     1.0094     1.0094    -0.0000
 35 H      0.8269     1.0000     0.1731     0.9868     0.9868    -0.0000

  Mayer bond orders larger than 0.100000
B(  0-C ,  1-C ) :   0.9796 B(  0-C , 20-H ) :   0.9772 B(  0-C , 21-H ) :   0.9777 
B(  0-C , 22-H ) :   0.9809 B(  1-C ,  2-O ) :   0.8829 B(  1-C , 23-H ) :   0.9631 
B(  1-C , 24-H ) :   0.9758 B(  2-O ,  3-C ) :   1.1598 B(  3-C ,  4-O ) :   2.0702 
B(  3-C ,  5-C ) :   0.9937 B(  5-C ,  6-C ) :   1.6625 B(  5-C , 12-C ) :   0.9656 
B(  6-C ,  7-C ) :   0.9749 B(  6-C ,  8-N ) :   1.1474 B(  7-C , 25-H ) :   0.9687 
B(  7-C , 26-H ) :   0.9532 B(  7-C , 27-H ) :   0.9851 B(  8-N ,  9-C ) :   1.1802 
B(  8-N , 28-H ) :   0.9492 B(  9-C , 10-S ) :   1.6181 B(  9-C , 11-N ) :   1.2957 
B( 11-N , 12-C ) :   0.9602 B( 11-N , 29-H ) :   0.9543 B( 12-C , 13-C ) :   0.9575 
B( 12-C , 30-H ) :   0.9994 B( 13-C , 14-C ) :   1.3494 B( 13-C , 19-C ) :   1.3577 
B( 14-C , 15-C ) :   1.3847 B( 14-C , 31-H ) :   0.9738 B( 15-C , 16-C ) :   1.3710 
B( 15-C , 32-H ) :   0.9690 B( 16-C , 17-C ) :   1.3265 B( 16-C , 33-H ) :   0.9834 
B( 17-C , 18-O ) :   1.1171 B( 17-C , 19-C ) :   1.3757 B( 18-O , 34-H ) :   0.9784 
B( 19-C , 35-H ) :   0.9542 

-------
TIMINGS
-------

Total SCF time: 0 days 2 hours 2 min 37 sec 

Total time                  ....    7357.693 sec
Sum of individual times     ....    7349.364 sec  ( 99.9%)

Fock matrix formation       ....    7328.777 sec  ( 99.6%)
Diagonalization             ....       1.926 sec  (  0.0%)
Density matrix formation    ....       0.207 sec  (  0.0%)
Population analysis         ....       0.306 sec  (  0.0%)
Initial guess               ....       5.972 sec  (  0.1%)
Orbital Transformation      ....       0.000 sec  (  0.0%)
Orbital Orthonormalization  ....       0.000 sec  (  0.0%)
DIIS solution               ....       8.348 sec  (  0.1%)
SOSCF solution              ....       2.170 sec  (  0.0%)

Maximum memory used throughout the entire SCF-calculation: 747.2 MB

------------------------------------------------------------------------------
                                ORCA  MP2 
------------------------------------------------------------------------------

Freezing NCore=48 chemical core electrons

-------------
RI-MP2 ENERGY
-------------
Dimension of the basis                    ...  828
Memory devoted to MP2                     ...  256 MB   
Data format for buffers                   ... DOUBLE
Compression type for matrix containers    ... UNCOMPRESSED
Overall scaling of the MP2 energy         ...   1.000e+00
Calculating two index integrals           ... done (    0.035 sec)
Cholesky decomposition of V**-1           ... done (    0.523 sec)

-----------------
RI-TRANSFORMATION (AUX index driven)
-----------------

Dimension of the orbital-basis         ... 828
Dimension of the aux-basis             ... 2141
Transformation of internal/external MOs...   24-  76 to   77- 827
Number Format for Storage              ... Double (8 Byte)
Integral mode                          ... Direct

First Phase: integral generation and transformation of MO indices
  Aux angular momentum 0               ... done (    4.350 sec)
  Aux angular momentum 1               ... done (    6.658 sec)
  Aux angular momentum 2               ... done (    7.914 sec)
  Aux angular momentum 3               ... done (    6.205 sec)
  Aux angular momentum 4               ... done (    2.276 sec)
Closing buffer VIA ( 0.63 GB; CompressionRatio= 1.00)
  Phase 1 completed in    27.787 sec
Second Phase: sorting and transformation of aux index

IA-Transformation
Memory available                       ... 157 MB 
Max. # MO pairs treated in a batch     ... 11    
# of internal orbitals                 ... 53
# batches for internal orbitals        ... 5
Closing buffer IAV ( 0.63 GB; CompressionRatio= 1.00)
(ia|v) transformation done in    28.327 sec

  Phase 2 completed in    28.344 sec
RI-Integral transformation completed in    56.152 sec
Opening buffers                              ... done

Starting loop over batches of integrals:

Operator 0  - window                       ... ( 24- 76)x( 77-827)
Operator 0  - Memory available             ...   256 MB
Operator 0  - Memory needed per MO         ...  12.3 MB
Operator 0  - Number of orbitals per batch ... 13
Operator 0  - Number of batches            ... 5

OPERATOR  0   PASS   0:  MOs    24 ...   36
  Reading integrals       ... ok
  Internal MO  26
  Internal MO  29
  Internal MO  32
  Internal MO  35
OPERATOR  0   PASS   1:  MOs    37 ...   49
  Reading integrals       ... ok
  Internal MO  38
  Internal MO  41
  Internal MO  44
  Internal MO  47
OPERATOR  0   PASS   2:  MOs    50 ...   62
  Reading integrals       ... ok
  Internal MO  50
  Internal MO  53
  Internal MO  56
  Internal MO  59
  Internal MO  62
OPERATOR  0   PASS   3:  MOs    63 ...   75
  Reading integrals       ... ok
  Internal MO  65
  Internal MO  68
  Internal MO  71
  Internal MO  74
OPERATOR  0   PASS   4:  MOs    76 ...   76
  Reading integrals       ... ok
Time spent in pair loops =   115.624 sec
Deleting buffer (Ka|jb)[aa] ...done

-----------------------------------------------
 RI-MP2 CORRELATION ENERGY:     -3.537428393 Eh
-----------------------------------------------


-------
TIMINGS
-------

Total time                :  172.478 sec
Integral trafo            :   56.169 sec ( 32.6%)
I/O of integrals          :    2.616 sec (  1.5%)
K(i,j) Operators          :   81.700 sec ( 47.4%)
T(i,j) pair energies      :    3.271 sec (  1.9%)
V-calculation             :    0.035 sec (  0.0%)
V**(-1/2)                 :    0.523 sec (  0.3%)
Gamma(ia|P)               :    0.000 sec (  0.0%)
Gamma-Trafo               :    0.000 sec (  0.0%)
D(virtual)                :    0.000 sec (  0.0%)
D(internal)               :    0.000 sec (  0.0%)
W(virtual)                :    0.000 sec (  0.0%)
W(internal)               :    0.000 sec (  0.0%)
L(virtual)                :    0.000 sec (  0.0%)
L(internal)               :    0.000 sec (  0.0%)
G(D)                      :    0.000 sec (  0.0%)
G(Z)                      :    0.000 sec (  0.0%)
Z-Vector Solution         :    0.000 sec (  0.0%)
3-Index Derivative        :    0.000 sec (  0.0%)
2-Index Derivative        :    0.000 sec (  0.0%)
Separable Gradient        :    0.000 sec (  0.0%)


---------------------------------------
MP2 TOTAL ENERGY:    -1274.331934552 Eh
---------------------------------------

Maximum memory used throughout the entire MP2-calculation: 305.0 MB

-------------------------   --------------------
FINAL SINGLE POINT ENERGY     -1274.331934552022
-------------------------   --------------------


                            ***************************************
                            *     ORCA property calculations      *
                            ***************************************


  WARNING: The energy has been calculated at the MP2 level but the densities
           used in the property calculations are still SCF densities
           MP2 response densities have not been calculated 
           use %mp2 Density relaxed end
           or  %mp2 Density unrelaxed end

                                    ---------------------
                                    Active property flags
                                    ---------------------
   (+) Dipole Moment


------------------------------------------------------------------------------
                       ORCA ELECTRIC PROPERTIES CALCULATION
------------------------------------------------------------------------------

Dipole Moment Calculation                       ... on
Quadrupole Moment Calculation                   ... off
Polarizability Calculation                      ... off
GBWName                                         ... CONFS/Conf795.orca.gbw
Electron density file                           ... CONFS/Conf795.orca.scfp
The origin for moment calculation is the CENTER OF MASS  = (32.888615, 31.468109 35.161303)

-------------
DIPOLE MOMENT
-------------
                                X             Y             Z
Electronic contribution:     10.15578       9.56094       5.93568
Nuclear contribution   :    -11.37352     -11.16505      -5.19608
                        -----------------------------------------
Total Dipole Moment    :     -1.21774      -1.60411       0.73960
                        -----------------------------------------
Magnitude (a.u.)       :      2.14548
Magnitude (Debye)      :      5.45337



--------------------
Rotational spectrum 
--------------------
 
Rotational constants in cm-1:     0.011241     0.009556     0.006419 
Rotational constants in MHz :   337.003988   286.484931   192.423724 

 Dipole components along the rotational axes: 
x,y,z [a.u.] :    -1.886676    -0.923555     0.436554 
x,y,z [Debye]:    -4.795548    -2.347491     1.109632 

 

Timings for individual modules:

Sum of individual times         ...     7535.075 sec (= 125.585 min)
GTO integral calculation        ...        3.785 sec (=   0.063 min)   0.1 %
SCF iterations                  ...     7357.835 sec (= 122.631 min)  97.6 %
MP2 module                      ...      173.455 sec (=   2.891 min)   2.3 %
                             ****ORCA TERMINATED NORMALLY****
TOTAL RUN TIME: 0 days 2 hours 5 minutes 36 seconds 687 msec
