
                                        *****************
                                        * O   R   C   A *
                                        *****************

                                            #,                                       
                                            ###                                      
                                            ####                                     
                                            #####                                    
                                            ######                                   
                                           ########,                                 
                                     ,,################,,,,,                         
                               ,,#################################,,                 
                          ,,##########################################,,             
                       ,#########################################, ''#####,          
                    ,#############################################,,   '####,        
                  ,##################################################,,,,####,       
                ,###########''''           ''''###############################       
              ,#####''   ,,,,##########,,,,          '''####'''          '####       
            ,##' ,,,,###########################,,,                        '##       
           ' ,,###''''                  '''############,,,                           
         ,,##''                                '''############,,,,        ,,,,,,###''
      ,#''                                            '''#######################'''  
     '                                                          ''''####''''         
             ,#######,   #######,   ,#######,      ##                                
            ,#'     '#,  ##    ##  ,#'     '#,    #''#        ######   ,####,        
            ##       ##  ##   ,#'  ##            #'  '#       #        #'  '#        
            ##       ##  #######   ##           ,######,      #####,   #    #        
            '#,     ,#'  ##    ##  '#,     ,#' ,#      #,         ##   #,  ,#        
             '#######'   ##     ##  '#######'  #'      '#     #####' # '####'        



                  #######################################################
                  #                        -***-                        #
                  #          Department of theory and spectroscopy      #
                  #    Directorship and core code : Frank Neese         #
                  #        Max Planck Institute fuer Kohlenforschung    #
                  #                Kaiser Wilhelm Platz 1               #
                  #                 D-45470 Muelheim/Ruhr               #
                  #                      Germany                        #
                  #                                                     #
                  #                  All rights reserved                #
                  #                        -***-                        #
                  #######################################################


                         Program Version 5.0.0 -  RELEASE  -
                                (SVN: $Rev: 19529$)
                ($Date: 2021-06-28 11:36:33 +0200 (Mo, 28 Jun 2021) $)


 With contributions from (in alphabetic order):
   Daniel Aravena         : Magnetic Suceptibility
   Michael Atanasov       : Ab Initio Ligand Field Theory (pilot matlab implementation)
   Alexander A. Auer      : GIAO ZORA, VPT2 properties, NMR spectrum
   Ute Becker             : Parallelization
   Giovanni Bistoni       : ED, misc. LED, open-shell LED, HFLD
   Martin Brehm           : Molecular dynamics
   Dmytro Bykov           : SCF Hessian
   Vijay G. Chilkuri      : MRCI spin determinant printing, contributions to CSF-ICE
   Dipayan Datta          : RHF DLPNO-CCSD density
   Achintya Kumar Dutta   : EOM-CC, STEOM-CC
   Dmitry Ganyushin       : Spin-Orbit,Spin-Spin,Magnetic field MRCI
   Miquel Garcia          : C-PCM Hessian, Gaussian charge scheme
   Yang Guo               : DLPNO-NEVPT2, F12-NEVPT2, CIM, IAO-localization
   Andreas Hansen         : Spin unrestricted coupled pair/coupled cluster methods
   Benjamin Helmich-Paris : MC-RPA, TRAH-SCF, COSX integrals
   Lee Huntington         : MR-EOM, pCC
   Robert Izsak           : Overlap fitted RIJCOSX, COSX-SCS-MP3, EOM
   Marcus Kettner         : VPT2
   Christian Kollmar      : KDIIS, OOCD, Brueckner-CCSD(T), CCSD density, CASPT2, CASPT2-K
   Simone Kossmann        : Meta GGA functionals, TD-DFT gradient, OOMP2, MP2 Hessian
   Martin Krupicka        : Initial AUTO-CI
   Lucas Lang             : DCDCAS
   Marvin Lechner         : AUTO-CI (C++ implementation), FIC-MRCC
   Dagmar Lenk            : GEPOL surface, SMD
   Dimitrios Liakos       : Extrapolation schemes; Compound Job, initial MDCI parallelization
   Dimitrios Manganas     : Further ROCIS development; embedding schemes
   Dimitrios Pantazis     : SARC Basis sets
   Anastasios Papadopoulos: AUTO-CI, single reference methods and gradients
   Taras Petrenko         : DFT Hessian,TD-DFT gradient, ASA, ECA, R-Raman, ABS, FL, XAS/XES, NRVS
   Peter Pinski           : DLPNO-MP2, DLPNO-MP2 Gradient
   Christoph Reimann      : Effective Core Potentials
   Marius Retegan         : Local ZFS, SOC
   Christoph Riplinger    : Optimizer, TS searches, QM/MM, DLPNO-CCSD(T), (RO)-DLPNO pert. Triples
   Tobias Risthaus        : Range-separated hybrids, TD-DFT gradient, RPA, STAB
   Michael Roemelt        : Original ROCIS implementation
   Masaaki Saitow         : Open-shell DLPNO-CCSD energy and density
   Barbara Sandhoefer     : DKH picture change effects
   Avijit Sen             : IP-ROCIS
   Kantharuban Sivalingam : CASSCF convergence, NEVPT2, FIC-MRCI
   Bernardo de Souza      : ESD, SOC TD-DFT
   Georgi Stoychev        : AutoAux, RI-MP2 NMR
   Willem Van den Heuvel  : Paramagnetic NMR
   Boris Wezisla          : Elementary symmetry handling
   Frank Wennmohs         : Technical directorship


 We gratefully acknowledge several colleagues who have allowed us to
 interface, adapt or use parts of their codes:
   Stefan Grimme, W. Hujo, H. Kruse, P. Pracht,  : VdW corrections, initial TS optimization,
                  C. Bannwarth, S. Ehlert          DFT functionals, gCP, sTDA/sTD-DF
   Ed Valeev, F. Pavosevic, A. Kumar             : LibInt (2-el integral package), F12 methods
   Garnet Chan, S. Sharma, J. Yang, R. Olivares  : DMRG
   Ulf Ekstrom                                   : XCFun DFT Library
   Mihaly Kallay                                 : mrcc  (arbitrary order and MRCC methods)
   Jiri Pittner, Ondrej Demel                    : Mk-CCSD
   Frank Weinhold                                : gennbo (NPA and NBO analysis)
   Christopher J. Cramer and Donald G. Truhlar   : smd solvation model
   Lars Goerigk                                  : TD-DFT with DH, B97 family of functionals
   V. Asgeirsson, H. Jonsson                     : NEB implementation
   FAccTs GmbH                                   : IRC, NEB, NEB-TS, DLPNO-Multilevel, CI-OPT
                                                   MM, QMMM, 2- and 3-layer-ONIOM, Crystal-QMMM,
                                                   LR-CPCM, SF, NACMEs, symmetry and pop. for TD-DFT,
                                                   nearIR, NL-DFT gradient (VV10), updates on ESD,
                                                   ML-optimized integration grids
   S Lehtola, MJT Oliveira, MAL Marques          : LibXC Library
   Liviu Ungur et al                             : ANISO software


 Your calculation uses the libint2 library for the computation of 2-el integrals
 For citations please refer to: http://libint.valeyev.net

 Your ORCA version has been built with support for libXC version: 5.1.0
 For citations please refer to: https://tddft.org/programs/libxc/

 This ORCA versions uses:
   CBLAS   interface :  Fast vector & matrix operations
   LAPACKE interface :  Fast linear algebra routines
   SCALAPACK package :  Parallel linear algebra routines
   Shared memory     :  Shared parallel matrices
   BLAS/LAPACK       :  OpenBLAS 0.3.15  USE64BITINT DYNAMIC_ARCH NO_AFFINITY SkylakeX SINGLE_THREADED
        Core in use  :  SkylakeX
   Copyright (c) 2011-2014, The OpenBLAS Project


================================================================================

----- Orbital basis set information -----
Your calculation utilizes the basis: cc-pVTZ 
       H, B-Ne : Obtained from the ccRepo (grant-hill.group.shef.ac.uk/ccrepo) Feb. 2017
                 T. H. Dunning, Jr., J. Chem. Phys. 90, 1007 (1989)
            He : Obtained from the ccRepo (grant-hill.group.shef.ac.uk/ccrepo) Feb. 2017
                 D. E. Woon, T. H. Dunning, Jr., J. Chem. Phys. 100, 2975 (1994)
  Li-Be, Na-Mg : Obtained from the ccRepo (grant-hill.group.shef.ac.uk/ccrepo) Feb. 2017
                 B. P. Prascher, D. E. Woon, K. A. Peterson, T. H. Dunning, Jr., A. K. Wilson, Theor. Chem. Acc. 128, 69 (2011)
         Al-Ar : Obtained from the ccRepo (grant-hill.group.shef.ac.uk/ccrepo) Feb. 2017
                 D. E. Woon, T. H. Dunning, Jr., J. Chem. Phys. 98, 1358 (1993)
            Ca : Obtained from the Peterson Research Group Website (tyr0.chem.wsu.edu/~kipeters) Feb. 2017
                 J. Koput, K. A. Peterson, J. Phys. Chem. 106, 9595 (2002)
         Sc-Zn : Obtained from the ccRepo (grant-hill.group.shef.ac.uk/ccrepo) Feb. 2017
                 N. B. Balabanov, K. A. Peterson, J. Chem. Phys. 123, 064107 (2005)
                 N. B. Balabanov, K. A. Peterson, J. Chem. Phys. 125, 074110 (2006)
         Ga-Kr : Obtained from the ccRepo (grant-hill.group.shef.ac.uk/ccrepo) Feb. 2017
                 A. K. Wilson, D. E. Woon, K. A. Peterson, T. H. Dunning, Jr., J. Chem. Phys. 110, 7667 (1999)
             Y : Obtained from the ccRepo (grant-hill.group.shef.ac.uk/ccrepo) Feb. 2017
                 K. A. Peterson, D. Figgen, M. Dolg, H. Stoll, J. Chem. Phys. 126, 124101 (2007)
        Ag, Au : Obtained from the Peterson Research Group Website (tyr0.chem.wsu.edu/~kipeters) Feb. 2017
                 K. A. Peterson, C. Puzzarini, Theor. Chem. Acc. 114, 283 (2005)

----- AuxC basis set information -----
Your calculation utilizes the auxiliary basis: cc-pVTZ/C 
  Obtained from the EMSL Basis Set Exchange (bse.pnl.gov) Feb. 2017
  H-He, B-F, Al-Ar, Ga-Kr : F. Weigend, A. Kohn, C. Hattig, J. Chem. Phys. 116, 3175 (2002)
             Li-Be, Na-Mg : C. Haettig, Phys. Chem. Chem. Phys. 7, 59 (2005)
                       Ne : C. Haettig, Phys. Chem. Chem. Phys. 7, 59 (2005)
                            F. Weigend, A. Kohn, C. Hattig, J. Chem. Phys. 116, 3175 (2002)
                    Sc-Zn : J. G. Hill, J. A. Platts, J. Chem. Phys. 128, 044104 (2008)

================================================================================
                                        WARNINGS
                       Please study these warnings very carefully!
================================================================================


WARNING: No MP2 level density has been requested!
         To caclulate MP2 level properties use
         %mp2 Density relaxed end
         or
         %mp2 Density unrelaxed end

WARNING: Post HF methods need fully converged wavefunctions
  ===> : Setting SCFConvForced true
         You can overwrite this default with %scf ConvForced false 


INFO   : the flag for use of the SHARK integral package has been found!

================================================================================
                                       INPUT FILE
================================================================================
NAME = CONFS/Conf394.orca
|  1> ! ri-mp2 cc-pvtz cc-pvtz/c TightSCF NoKeepInts
|  2> 
|  3> %scf
|  4>   MaxCore 4096
|  5> end
|  6> *xyz  0  1
|  7>     C       15.1752567   15.2624794   17.0639717
|  8>     C       16.2288758   14.2312252   16.6005006
|  9>     O       17.5783453   14.7502753   16.4892311
| 10>     C       17.8219928   16.0380417   16.1115763
| 11>     O       17.5282240   16.3830305   14.9811040
| 12>     C       17.8433248   16.9904390   17.2775640
| 13>     C       17.4269862   18.2791753   17.1827039
| 14>     C       16.7421324   18.9428093   16.0071207
| 15>     N       17.6811953   19.1711442   18.2292285
| 16>     C       18.5524288   18.9266692   19.2582460
| 17>     S       18.9688128   20.0957128   20.3512170
| 18>     N       19.0644741   17.6553354   19.3334616
| 19>     C       18.5671842   16.5079226   18.5499517
| 20>     C       17.7369273   15.5941595   19.4506870
| 21>     C       18.0150732   14.2150557   19.5097813
| 22>     C       17.2687333   13.3668860   20.3447664
| 23>     C       16.2401380   13.9018911   21.1381246
| 24>     C       15.9691205   15.2760029   21.0962618
| 25>     O       14.9766056   15.7960951   21.8609227
| 26>     C       16.7136782   16.1176732   20.2640362
| 27>     H       15.4175307   15.6886128   18.0388711
| 28>     H       14.1955366   14.7779191   17.1531597
| 29>     H       15.0716499   16.0771554   16.3373989
| 30>     H       16.2292302   13.3767334   17.2893906
| 31>     H       15.9210205   13.8553674   15.6158221
| 32>     H       17.4410740   19.0511440   15.1677449
| 33>     H       16.3499561   19.9378258   16.2476606
| 34>     H       15.8998909   18.3361460   15.6528754
| 35>     H       17.3260297   20.1126242   18.1772909
| 36>     H       19.6847521   17.4956913   20.1171186
| 37>     H       19.4472559   15.9363229   18.2230369
| 38>     H       18.8080481   13.7958648   18.8955814
| 39>     H       17.4900478   12.3013389   20.3765949
| 40>     H       15.6607966   13.2510226   21.7848417
| 41>     H       14.6184653   15.0779371   22.4040552
| 42>     H       16.4862067   17.1782710   20.2520998
| 43> *
| 44> 
| 45>                          ****END OF INPUT****
================================================================================

                       ****************************
                       * Single Point Calculation *
                       ****************************

---------------------------------
CARTESIAN COORDINATES (ANGSTROEM)
---------------------------------
  C     15.175257   15.262479   17.063972
  C     16.228876   14.231225   16.600501
  O     17.578345   14.750275   16.489231
  C     17.821993   16.038042   16.111576
  O     17.528224   16.383031   14.981104
  C     17.843325   16.990439   17.277564
  C     17.426986   18.279175   17.182704
  C     16.742132   18.942809   16.007121
  N     17.681195   19.171144   18.229229
  C     18.552429   18.926669   19.258246
  S     18.968813   20.095713   20.351217
  N     19.064474   17.655335   19.333462
  C     18.567184   16.507923   18.549952
  C     17.736927   15.594159   19.450687
  C     18.015073   14.215056   19.509781
  C     17.268733   13.366886   20.344766
  C     16.240138   13.901891   21.138125
  C     15.969120   15.276003   21.096262
  O     14.976606   15.796095   21.860923
  C     16.713678   16.117673   20.264036
  H     15.417531   15.688613   18.038871
  H     14.195537   14.777919   17.153160
  H     15.071650   16.077155   16.337399
  H     16.229230   13.376733   17.289391
  H     15.921020   13.855367   15.615822
  H     17.441074   19.051144   15.167745
  H     16.349956   19.937826   16.247661
  H     15.899891   18.336146   15.652875
  H     17.326030   20.112624   18.177291
  H     19.684752   17.495691   20.117119
  H     19.447256   15.936323   18.223037
  H     18.808048   13.795865   18.895581
  H     17.490048   12.301339   20.376595
  H     15.660797   13.251023   21.784842
  H     14.618465   15.077937   22.404055
  H     16.486207   17.178271   20.252100

----------------------------
CARTESIAN COORDINATES (A.U.)
----------------------------
  NO LB      ZA    FRAG     MASS         X           Y           Z
   0 C     6.0000    0    12.011   28.677079   28.841906   32.246233
   1 C     6.0000    0    12.011   30.668131   26.893118   31.370400
   2 O     8.0000    0    15.999   33.218259   27.873981   31.160131
   3 C     6.0000    0    12.011   33.678686   30.307507   30.446467
   4 O     8.0000    0    15.999   33.123543   30.959441   28.310184
   5 C     6.0000    0    12.011   33.718997   32.107277   32.649864
   6 C     6.0000    0    12.011   32.932231   34.542635   32.470605
   7 C     6.0000    0    12.011   31.638045   35.796722   30.249074
   8 N     7.0000    0    14.007   33.412617   36.228212   34.448249
   9 C     6.0000    0    12.011   35.059010   35.766221   36.392811
  10 S    16.0000    0    32.060   35.845861   37.975394   38.458227
  11 N     7.0000    0    14.007   36.026635   33.363749   36.534948
  12 C     6.0000    0    12.011   35.086893   31.195453   35.054329
  13 C     6.0000    0    12.011   33.517935   29.468691   36.756472
  14 C     6.0000    0    12.011   34.043555   26.862562   36.868144
  15 C     6.0000    0    12.011   32.633177   25.259754   38.446037
  16 C     6.0000    0    12.011   30.689413   26.270767   39.945266
  17 C     6.0000    0    12.011   30.177264   28.867462   39.866157
  18 O     8.0000    0    15.999   28.301683   29.850294   41.311157
  19 C     6.0000    0    12.011   31.584274   30.457988   38.293479
  20 H     1.0000    0     1.008   29.134911   29.647182   34.088526
  21 H     1.0000    0     1.008   26.825676   27.926220   32.414774
  22 H     1.0000    0     1.008   28.481291   30.381421   30.873210
  23 H     1.0000    0     1.008   30.668800   25.278363   32.672213
  24 H     1.0000    0     1.008   30.086369   26.182850   29.509627
  25 H     1.0000    0     1.008   32.958853   36.001445   28.662884
  26 H     1.0000    0     1.008   30.896939   37.677030   30.703629
  27 H     1.0000    0     1.008   30.046439   34.650294   29.579648
  28 H     1.0000    0     1.008   32.741451   38.007352   34.350102
  29 H     1.0000    0     1.008   37.198790   33.062065   38.015845
  30 H     1.0000    0     1.008   36.749988   30.115286   34.436549
  31 H     1.0000    0     1.008   35.542060   26.070406   35.707474
  32 H     1.0000    0     1.008   33.051400   23.246162   38.506184
  33 H     1.0000    0     1.008   29.594617   25.040804   41.167385
  34 H     1.0000    0     1.008   27.624896   28.493172   42.337529
  35 H     1.0000    0     1.008   31.154416   32.462228   38.270922

--------------------------------
INTERNAL COORDINATES (ANGSTROEM)
--------------------------------
 C      0   0   0     0.000000000000     0.00000000     0.00000000
 C      1   0   0     1.545446179405     0.00000000     0.00000000
 O      2   1   0     1.450124766829   114.74635107     0.00000000
 C      3   2   1     1.363938984408   121.69696455   326.60668090
 O      4   3   2     1.217901884819   118.77461895   294.12119436
 C      4   3   2     1.505670278588   112.66398239    88.37328590
 C      6   4   3     1.357636740575   122.81891917   212.78542616
 C      7   6   4     1.513747229049   127.52879154     7.57042178
 N      7   6   4     1.398372097653   119.83152916   190.85389843
 C      9   7   6     1.370289331657   124.31771399    13.30243247
 S     10   9   7     1.653669912951   122.02539679   171.40732584
 N     10   9   7     1.372638847898   116.33195943   351.47150392
 C     12  10   9     1.475717161804   124.42623921   348.72920615
 C     13  12  10     1.528271443031   109.57476322   255.54457030
 C     14  13  12     1.408113833876   120.19941430   231.75081341
 C     15  14  13     1.404854157396   120.75095460   179.30169968
 C     16  15  14     1.404868670629   119.64968088   359.48384236
 C     17  16  15     1.401208841761   119.88091967   359.72877196
 O     18  17  16     1.356572156286   120.04255659   179.99694277
 C     18  17  16     1.398347064154   120.33525540     0.27882764
 H      1   2   3     1.091198976260   112.15738030   301.20032756
 H      1   2   3     1.096633328886   109.79260319   181.93857930
 H      1   2   3     1.096512374614   111.19076531    63.32292261
 H      2   1   3     1.097600015473   109.35890146   122.88963921
 H      2   1   3     1.098014444314   107.83091077   239.19063671
 H      8   7   6     1.097637235639   110.42978926   290.54319522
 H      8   7   6     1.096229688088   112.91565179   169.74597892
 H      8   7   6     1.096768360440   110.84044653    49.25827163
 H      9   7   6     1.007583598575   119.56156146   183.38600422
 H     12  10   9     1.012101442345   114.65428938   181.60752389
 H     13  12  10     1.099147715569   107.00424842   139.37836632
 H     15  14  13     1.087093243394   119.87039130   358.60319465
 H     16  15  14     1.088753316248   120.01710578   179.62680041
 H     17  16  15     1.085130991852   119.93643823   180.00642811
 H     19  18  17     0.969024406300   107.59005913     3.82550428
 H     20  18  17     1.084782676079   118.90644823   180.18636453

---------------------------
INTERNAL COORDINATES (A.U.)
---------------------------
 C      0   0   0     0.000000000000     0.00000000     0.00000000
 C      1   0   0     2.920470033790     0.00000000     0.00000000
 O      2   1   0     2.740338669323   114.74635107     0.00000000
 C      3   2   1     2.577471143910   121.69696455   326.60668090
 O      4   3   2     2.301501020295   118.77461895   294.12119436
 C      4   3   2     2.845304474516   112.66398239    88.37328590
 C      6   4   3     2.565561629037   122.81891917   212.78542616
 C      7   6   4     2.860567698884   127.52879154     7.57042178
 N      7   6   4     2.642540297882   119.83152916   190.85389843
 C      9   7   6     2.589471561066   124.31771399    13.30243247
 S     10   9   7     3.124983251382   122.02539679   171.40732584
 N     10   9   7     2.593911503308   116.33195943   351.47150392
 C     12  10   9     2.788701286938   124.42623921   348.72920615
 C     13  12  10     2.888014485622   109.57476322   255.54457030
 C     14  13  12     2.660949511412   120.19941430   231.75081341
 C     15  14  13     2.654789615579   120.75095460   179.30169968
 C     16  15  14     2.654817041615   119.64968088   359.48384236
 C     17  16  15     2.647900967357   119.88091967   359.72877196
 O     18  17  16     2.563549856284   120.04255659   179.99694277
 C     18  17  16     2.642492991423   120.33525540     0.27882764
 H      1   2   3     2.062067222748   112.15738030   301.20032756
 H      1   2   3     2.072336660925   109.79260319   181.93857930
 H      1   2   3     2.072108090477   111.19076531    63.32292261
 H      2   1   3     2.074163433832   109.35890146   122.88963921
 H      2   1   3     2.074946590842   107.83091077   239.19063671
 H      8   7   6     2.074233769751   110.42978926   290.54319522
 H      8   7   6     2.071573890361   112.91565179   169.74597892
 H      8   7   6     2.072591833581   110.84044653    49.25827163
 H      9   7   6     1.904057058337   119.56156146   183.38600422
 H     12  10   9     1.912594545780   114.65428938   181.60752389
 H     13  12  10     2.077088163150   107.00424842   139.37836632
 H     15  14  13     2.054308512051   119.87039130   358.60319465
 H     16  15  14     2.057445595107   120.01710578   179.62680041
 H     17  16  15     2.050600394031   119.93643823   180.00642811
 H     19  18  17     1.831190744992   107.59005913     3.82550428
 H     20  18  17     2.049942172612   118.90644823   180.18636453

---------------------
BASIS SET INFORMATION
---------------------
There are 5 groups of distinct atoms

 Group   1 Type C   : 18s5p2d1f contracted to 4s3p2d1f pattern {8811/311/11/1}
 Group   2 Type O   : 18s5p2d1f contracted to 4s3p2d1f pattern {8811/311/11/1}
 Group   3 Type N   : 18s5p2d1f contracted to 4s3p2d1f pattern {8811/311/11/1}
 Group   4 Type S   : 41s16p2d1f contracted to 5s4p2d1f pattern {13131311/7711/11/1}
 Group   5 Type H   : 5s2p1d contracted to 3s2p1d pattern {311/11/1}

Atom   0C    basis set group =>   1
Atom   1C    basis set group =>   1
Atom   2O    basis set group =>   2
Atom   3C    basis set group =>   1
Atom   4O    basis set group =>   2
Atom   5C    basis set group =>   1
Atom   6C    basis set group =>   1
Atom   7C    basis set group =>   1
Atom   8N    basis set group =>   3
Atom   9C    basis set group =>   1
Atom  10S    basis set group =>   4
Atom  11N    basis set group =>   3
Atom  12C    basis set group =>   1
Atom  13C    basis set group =>   1
Atom  14C    basis set group =>   1
Atom  15C    basis set group =>   1
Atom  16C    basis set group =>   1
Atom  17C    basis set group =>   1
Atom  18O    basis set group =>   2
Atom  19C    basis set group =>   1
Atom  20H    basis set group =>   5
Atom  21H    basis set group =>   5
Atom  22H    basis set group =>   5
Atom  23H    basis set group =>   5
Atom  24H    basis set group =>   5
Atom  25H    basis set group =>   5
Atom  26H    basis set group =>   5
Atom  27H    basis set group =>   5
Atom  28H    basis set group =>   5
Atom  29H    basis set group =>   5
Atom  30H    basis set group =>   5
Atom  31H    basis set group =>   5
Atom  32H    basis set group =>   5
Atom  33H    basis set group =>   5
Atom  34H    basis set group =>   5
Atom  35H    basis set group =>   5
---------------------------------
AUXILIARY/C BASIS SET INFORMATION
---------------------------------
There are 5 groups of distinct atoms

 Group   1 Type C   : 8s6p5d3f1g contracted to 8s6p5d3f1g pattern {11111111/111111/11111/111/1}
 Group   2 Type O   : 8s6p5d3f1g contracted to 8s6p5d3f1g pattern {11111111/111111/11111/111/1}
 Group   3 Type N   : 8s6p5d3f1g contracted to 8s6p5d3f1g pattern {11111111/111111/11111/111/1}
 Group   4 Type S   : 10s8p7d5f2g contracted to 10s8p7d5f2g pattern {1111111111/11111111/1111111/11111/11}
 Group   5 Type H   : 4s3p2d1f contracted to 4s3p2d1f pattern {1111/111/11/1}

Atom   0C    basis set group =>   1
Atom   1C    basis set group =>   1
Atom   2O    basis set group =>   2
Atom   3C    basis set group =>   1
Atom   4O    basis set group =>   2
Atom   5C    basis set group =>   1
Atom   6C    basis set group =>   1
Atom   7C    basis set group =>   1
Atom   8N    basis set group =>   3
Atom   9C    basis set group =>   1
Atom  10S    basis set group =>   4
Atom  11N    basis set group =>   3
Atom  12C    basis set group =>   1
Atom  13C    basis set group =>   1
Atom  14C    basis set group =>   1
Atom  15C    basis set group =>   1
Atom  16C    basis set group =>   1
Atom  17C    basis set group =>   1
Atom  18O    basis set group =>   2
Atom  19C    basis set group =>   1
Atom  20H    basis set group =>   5
Atom  21H    basis set group =>   5
Atom  22H    basis set group =>   5
Atom  23H    basis set group =>   5
Atom  24H    basis set group =>   5
Atom  25H    basis set group =>   5
Atom  26H    basis set group =>   5
Atom  27H    basis set group =>   5
Atom  28H    basis set group =>   5
Atom  29H    basis set group =>   5
Atom  30H    basis set group =>   5
Atom  31H    basis set group =>   5
Atom  32H    basis set group =>   5
Atom  33H    basis set group =>   5
Atom  34H    basis set group =>   5
Atom  35H    basis set group =>   5
------------------------------------------------------------------------------
                           ORCA GTO INTEGRAL CALCULATION
------------------------------------------------------------------------------
------------------------------------------------------------------------------
                   ___                                                        
                  /   \      - P O W E R E D   B Y -                         
                 /     \                                                     
                 |  |  |   _    _      __       _____    __    __             
                 |  |  |  | |  | |    /  \     |  _  \  |  |  /  |          
                  \  \/   | |  | |   /    \    | | | |  |  | /  /          
                 / \  \   | |__| |  /  /\  \   | |_| |  |  |/  /          
                |  |  |   |  __  | /  /__\  \  |    /   |      \           
                |  |  |   | |  | | |   __   |  |    \   |  |\   \          
                \     /   | |  | | |  |  |  |  | |\  \  |  | \   \       
                 \___/    |_|  |_| |__|  |__|  |_| \__\ |__|  \__/        
                                                                              
                      - O R C A' S   B I G   F R I E N D -                    
                                      &                                       
                       - I N T E G R A L  F E E D E R -                       
                                                                              
 v1 FN, 2020, v2 2021                                                         
------------------------------------------------------------------------------


Reading SHARK input file CONFS/Conf394.orca.SHARKINP.tmp ... ok
----------------------
SHARK INTEGRAL PACKAGE
----------------------

Number of atoms                             ...     36
Number of basis functions                   ...    828
Number of shells                            ...    298
Maximum angular momentum                    ...      3
Integral batch strategy                     ... SHARK/LIBINT Hybrid
RI-J (if used) integral strategy            ... SPLIT-RIJ (Revised 2003 algorithm where possible)
Printlevel                                  ...      1
Contraction scheme used                     ... SEGMENTED contraction
Coulomb Range Separation                    ... NOT USED
Exchange Range Separation                   ... NOT USED
Finite Nucleus Model                        ... NOT USED
Auxiliary Coulomb fitting basis             ... NOT available
Auxiliary J/K fitting basis                 ... NOT available
Auxiliary Correlation fitting basis         ... AVAILABLE
   # of basis functions in Aux-C            ...   2141
   # of shells in Aux-C                     ...    629
   Maximum angular momentum in Aux-C        ...      4
Auxiliary 'external' fitting basis          ... NOT available
Integral threshold                          ...     2.500000e-11
Primitive cut-off                           ...     2.500000e-12
Primitive pair pre-selection threshold      ...     2.500000e-12

Calculating pre-screening integrals         ... done (  0.6 sec) Dimension = 298
Organizing shell pair data                  ... done (  1.7 sec)
Shell pair information
Total number of shell pairs                 ...     44551
Shell pairs after pre-screening             ...     34840
Total number of primitive shell pairs       ...    234348
Primitive shell pairs kept                  ...     99833
          la=0 lb=0:   6904 shell pairs
          la=1 lb=0:   9664 shell pairs
          la=1 lb=1:   3420 shell pairs
          la=2 lb=0:   5560 shell pairs
          la=2 lb=1:   3841 shell pairs
          la=2 lb=2:   1100 shell pairs
          la=3 lb=0:   2015 shell pairs
          la=3 lb=1:   1395 shell pairs
          la=3 lb=2:    791 shell pairs
          la=3 lb=3:    150 shell pairs

Calculating one electron integrals          ... done (  0.4 sec)
Calculating RI/C V-Matrix + Cholesky decomp.... done (  0.9 sec)
Calculating Nuclear repulsion               ... done (  0.1 sec) ENN=   1739.715456197861 Eh

SHARK setup successfully completed in   4.3 seconds

Maximum memory used throughout the entire GTOINT-calculation: 522.1 MB
-------------------------------------------------------------------------------
                                 ORCA SCF
-------------------------------------------------------------------------------

------------
SCF SETTINGS
------------
Hamiltonian:
 Ab initio Hamiltonian  Method          .... Hartree-Fock(GTOs)


General Settings:
 Integral files         IntName         .... CONFS/Conf394.orca
 Hartree-Fock type      HFTyp           .... RHF
 Total Charge           Charge          ....    0
 Multiplicity           Mult            ....    1
 Number of Electrons    NEL             ....  154
 Basis Dimension        Dim             ....  828
 Nuclear Repulsion      ENuc            ....   1739.7154561979 Eh

Convergence Acceleration:
 DIIS                   CNVDIIS         .... on
   Start iteration      DIISMaxIt       ....    12
   Startup error        DIISStart       ....  0.200000
   # of expansion vecs  DIISMaxEq       ....     5
   Bias factor          DIISBfac        ....   1.050
   Max. coefficient     DIISMaxC        ....  10.000
 Trust-Rad. Augm. Hess. CNVTRAH         .... auto
   Auto Start mean grad. ratio tolernc. ....  1.125000
   Auto Start start iteration           ....    20
   Auto Start num. interpolation iter.  ....    10
   Max. Number of Micro iterations      ....    16
   Max. Number of Macro iterations      .... Maxiter - #DIIS iter
   Number of Davidson start vectors     ....     2
   Converg. threshold I  (grad. norm)   ....   1.000e-05
   Converg. threshold II (energy diff.) ....   1.000e-08
   Grad. Scal. Fac. for Micro threshold ....   0.100
   Minimum threshold for Micro iter.    ....   0.010
   NR start threshold (gradient norm)   ....   0.001
   Initial trust radius                 ....   0.400
   Minimum AH scaling param. (alpha)    ....   1.000
   Maximum AH scaling param. (alpha)    .... 1000.000
   Orbital update algorithm             .... Taylor
   White noise on init. David. guess    .... on
   Maximum white noise                  ....   0.010
   Quad. conv. algorithm                .... NR
 SOSCF                  CNVSOSCF        .... on
   Start iteration      SOSCFMaxIt      ....   150
   Startup grad/error   SOSCFStart      ....  0.003300
 Level Shifting         CNVShift        .... on
   Level shift para.    LevelShift      ....    0.2500
   Turn off err/grad.   ShiftErr        ....    0.0010
 Zerner damping         CNVZerner       .... off
 Static damping         CNVDamp         .... on
   Fraction old density DampFac         ....    0.7000
   Max. Damping (<1)    DampMax         ....    0.9800
   Min. Damping (>=0)   DampMin         ....    0.0000
   Turn off err/grad.   DampErr         ....    0.1000
 Fernandez-Rico         CNVRico         .... off

SCF Procedure:
 Maximum # iterations   MaxIter         ....   125
 SCF integral mode      SCFMode         .... Direct
   Integral package                     .... SHARK and LIBINT hybrid scheme
 Reset frequency        DirectResetFreq ....    20
 Integral Threshold     Thresh          ....  2.500e-11 Eh
 Primitive CutOff       TCut            ....  2.500e-12 Eh

Convergence Tolerance:
 Convergence Check Mode ConvCheckMode   .... Total+1el-Energy
 Convergence forced     ConvForced      .... 1
 Energy Change          TolE            ....  1.000e-08 Eh
 1-El. energy change                    ....  1.000e-05 Eh
 Orbital Gradient       TolG            ....  1.000e-05
 Orbital Rotation angle TolX            ....  1.000e-05
 DIIS Error             TolErr          ....  5.000e-07


Diagonalization of the overlap matrix:
Smallest eigenvalue                        ... 3.089e-05
Time for diagonalization                   ...    0.138 sec
Threshold for overlap eigenvalues          ... 1.000e-08
Number of eigenvalues below threshold      ... 0
Time for construction of square roots      ...    0.071 sec
Total time needed                          ...    0.211 sec

Time for model grid setup =    1.679 sec

------------------------------
INITIAL GUESS: MODEL POTENTIAL
------------------------------
Loading Hartree-Fock densities                     ... done
Calculating cut-offs                               ... done
Initializing the effective Hamiltonian             ... done
Setting up the integral package (SHARK)            ... done
Starting the Coulomb interaction                   ... done (   4.8 sec)
Reading the grid                                   ... done
Mapping shells                                     ... done
Starting the XC term evaluation                    ... done (   1.6 sec)
Transforming the Hamiltonian                       ... done (   0.1 sec)
Diagonalizing the Hamiltonian                      ... done (   0.1 sec)
Back transforming the eigenvectors                 ... done (   0.0 sec)
Now organizing SCF variables                       ... done
                      ------------------
                      INITIAL GUESS DONE (   8.5 sec)
                      ------------------
--------------
SCF ITERATIONS
--------------
ITER       Energy         Delta-E        Max-DP      RMS-DP      [F,P]     Damp
               ***  Starting incremental Fock matrix formation  ***
  0  -1269.9803998660   0.000000000000 0.04941554  0.00043770  0.3274359 0.7000
  1  -1270.2479544598  -0.267554593758 0.03613891  0.00035270  0.1974446 0.7000
                               ***Turning on DIIS***
  2  -1270.4143353249  -0.166380865141 0.02587019  0.00023599  0.1116235 0.7000
  3  -1272.5512621668  -2.136926841839 0.06317456  0.00051208  0.0828220 0.0000
  4  -1270.7248236085   1.826438558321 0.00870100  0.00010185  0.0067805 0.0000
  5  -1270.7811709345  -0.056347326086 0.00394183  0.00005297  0.0053818 0.0000
  6  -1270.7606578598   0.020513074728 0.00212438  0.00002813  0.0037643 0.0000
                      *** Initiating the SOSCF procedure ***
                           *** Shutting down DIIS ***
                      *** Re-Reading the Fockian *** 
                      *** Removing any level shift *** 
ITER      Energy       Delta-E        Grad      Rot      Max-DP    RMS-DP
  7  -1270.77619977  -0.0155419052  0.001403  0.001403  0.001139  0.000015
               *** Restarting incremental Fock matrix formation ***
  8  -1270.77606335   0.0001364131  0.000757  0.001968  0.000726  0.000009
  9  -1270.77608176  -0.0000184112  0.000358  0.002380  0.000930  0.000012
 10  -1270.77608969  -0.0000079307  0.000097  0.000160  0.000232  0.000002
 11  -1270.77609048  -0.0000007908  0.000037  0.000062  0.000071  0.000001
 12  -1270.77609064  -0.0000001593  0.000013  0.000057  0.000033  0.000000
 13  -1270.77609067  -0.0000000236  0.000009  0.000044  0.000022  0.000000
 14  -1270.77609068  -0.0000000111  0.000003  0.000008  0.000004  0.000000
                  ***Gradient check signals convergence***
              ***Rediagonalizing the Fockian in SOSCF/NRSCF***

               *****************************************************
               *                     SUCCESS                       *
               *           SCF CONVERGED AFTER  15 CYCLES          *
               *****************************************************


----------------
TOTAL SCF ENERGY
----------------

Total Energy       :        -1270.77609067 Eh          -34579.57542 eV

Components:
Nuclear Repulsion  :         1739.71545620 Eh           47340.06429 eV
Electronic Energy  :        -3010.49154687 Eh          -81919.63970 eV
One Electron Energy:        -5200.41917351 Eh         -141510.59997 eV
Two Electron Energy:         2189.92762664 Eh           59590.96027 eV

Virial components:
Potential Energy   :        -2539.76747987 Eh          -69110.58664 eV
Kinetic Energy     :         1268.99138920 Eh           34531.01122 eV
Virial Ratio       :            2.00140639


---------------
SCF CONVERGENCE
---------------

  Last Energy change         ...    5.1082e-09  Tolerance :   1.0000e-08
  Last MAX-Density change    ...    1.7873e-06  Tolerance :   1.0000e-07
  Last RMS-Density change    ...    3.1065e-08  Tolerance :   5.0000e-09
  Last Orbital Gradient      ...    8.6807e-07  Tolerance :   1.0000e-05
  Last Orbital Rotation      ...    2.3156e-06  Tolerance :   1.0000e-05

             **** THE GBW FILE WAS UPDATED (CONFS/Conf394.orca.gbw) ****
             **** DENSITY CONFS/Conf394.orca.scfp WAS UPDATED ****
             **** ENERGY FILE WAS UPDATED (CONFS/Conf394.orca.en.tmp) ****
             **** THE GBW FILE WAS UPDATED (CONFS/Conf394.orca.gbw) ****
             **** DENSITY CONFS/Conf394.orca.scfp WAS UPDATED ****
----------------
ORBITAL ENERGIES
----------------

  NO   OCC          E(Eh)            E(eV) 
   0   2.0000     -91.891338     -2500.4904 
   1   2.0000     -20.599102      -560.5301 
   2   2.0000     -20.577276      -559.9361 
   3   2.0000     -20.553664      -559.2936 
   4   2.0000     -15.630563      -425.3293 
   5   2.0000     -15.609967      -424.7688 
   6   2.0000     -11.394575      -310.0621 
   7   2.0000     -11.385761      -309.8223 
   8   2.0000     -11.335820      -308.4633 
   9   2.0000     -11.316517      -307.9381 
  10   2.0000     -11.313804      -307.8643 
  11   2.0000     -11.301422      -307.5273 
  12   2.0000     -11.262991      -306.4816 
  13   2.0000     -11.260607      -306.4167 
  14   2.0000     -11.257851      -306.3417 
  15   2.0000     -11.254593      -306.2530 
  16   2.0000     -11.246294      -306.0272 
  17   2.0000     -11.241367      -305.8931 
  18   2.0000     -11.240350      -305.8655 
  19   2.0000     -11.226420      -305.4864 
  20   2.0000      -8.896360      -242.0823 
  21   2.0000      -6.577927      -178.9945 
  22   2.0000      -6.575931      -178.9402 
  23   2.0000      -6.575334      -178.9239 
  24   2.0000      -1.446881       -39.3716 
  25   2.0000      -1.418906       -38.6104 
  26   2.0000      -1.350623       -36.7523 
  27   2.0000      -1.341961       -36.5166 
  28   2.0000      -1.240379       -33.7524 
  29   2.0000      -1.159556       -31.5531 
  30   2.0000      -1.120775       -30.4978 
  31   2.0000      -1.044809       -28.4307 
  32   2.0000      -1.032160       -28.0865 
  33   2.0000      -1.018299       -27.7093 
  34   2.0000      -1.000190       -27.2165 
  35   2.0000      -0.987108       -26.8606 
  36   2.0000      -0.925189       -25.1757 
  37   2.0000      -0.896954       -24.4074 
  38   2.0000      -0.848660       -23.0932 
  39   2.0000      -0.842532       -22.9265 
  40   2.0000      -0.837149       -22.7800 
  41   2.0000      -0.818615       -22.2756 
  42   2.0000      -0.747134       -20.3305 
  43   2.0000      -0.734422       -19.9846 
  44   2.0000      -0.723230       -19.6801 
  45   2.0000      -0.698070       -18.9955 
  46   2.0000      -0.690985       -18.8026 
  47   2.0000      -0.674348       -18.3499 
  48   2.0000      -0.670002       -18.2317 
  49   2.0000      -0.663738       -18.0612 
  50   2.0000      -0.652022       -17.7424 
  51   2.0000      -0.645736       -17.5714 
  52   2.0000      -0.638360       -17.3707 
  53   2.0000      -0.622777       -16.9466 
  54   2.0000      -0.609073       -16.5737 
  55   2.0000      -0.602045       -16.3825 
  56   2.0000      -0.600932       -16.3522 
  57   2.0000      -0.579703       -15.7745 
  58   2.0000      -0.573190       -15.5973 
  59   2.0000      -0.565027       -15.3752 
  60   2.0000      -0.551064       -14.9952 
  61   2.0000      -0.546494       -14.8709 
  62   2.0000      -0.541254       -14.7283 
  63   2.0000      -0.529014       -14.3952 
  64   2.0000      -0.526125       -14.3166 
  65   2.0000      -0.515484       -14.0270 
  66   2.0000      -0.503699       -13.7064 
  67   2.0000      -0.497990       -13.5510 
  68   2.0000      -0.478555       -13.0221 
  69   2.0000      -0.465418       -12.6647 
  70   2.0000      -0.453786       -12.3481 
  71   2.0000      -0.444758       -12.1025 
  72   2.0000      -0.357820        -9.7368 
  73   2.0000      -0.349596        -9.5130 
  74   2.0000      -0.330438        -8.9917 
  75   2.0000      -0.324676        -8.8349 
  76   2.0000      -0.318449        -8.6654 
  77   0.0000       0.066857         1.8193 
  78   0.0000       0.102604         2.7920 
  79   0.0000       0.118678         3.2294 
  80   0.0000       0.128805         3.5050 
  81   0.0000       0.132492         3.6053 
  82   0.0000       0.143086         3.8936 
  83   0.0000       0.146351         3.9824 
  84   0.0000       0.150550         4.0967 
  85   0.0000       0.158061         4.3011 
  86   0.0000       0.174538         4.7494 
  87   0.0000       0.179638         4.8882 
  88   0.0000       0.185359         5.0439 
  89   0.0000       0.190795         5.1918 
  90   0.0000       0.204040         5.5522 
  91   0.0000       0.205035         5.5793 
  92   0.0000       0.221270         6.0211 
  93   0.0000       0.227037         6.1780 
  94   0.0000       0.228688         6.2229 
  95   0.0000       0.235416         6.4060 
  96   0.0000       0.244607         6.6561 
  97   0.0000       0.256748         6.9865 
  98   0.0000       0.284685         7.7467 
  99   0.0000       0.289855         7.8873 
 100   0.0000       0.300438         8.1753 
 101   0.0000       0.308996         8.4082 
 102   0.0000       0.313675         8.5355 
 103   0.0000       0.316672         8.6171 
 104   0.0000       0.322745         8.7823 
 105   0.0000       0.336032         9.1439 
 106   0.0000       0.341582         9.2949 
 107   0.0000       0.356529         9.7016 
 108   0.0000       0.360913         9.8209 
 109   0.0000       0.363930         9.9030 
 110   0.0000       0.371794        10.1170 
 111   0.0000       0.375007        10.2045 
 112   0.0000       0.386784        10.5249 
 113   0.0000       0.398379        10.8405 
 114   0.0000       0.400135        10.8882 
 115   0.0000       0.410337        11.1658 
 116   0.0000       0.412136        11.2148 
 117   0.0000       0.421156        11.4602 
 118   0.0000       0.425657        11.5827 
 119   0.0000       0.434683        11.8283 
 120   0.0000       0.444587        12.0978 
 121   0.0000       0.448107        12.1936 
 122   0.0000       0.458104        12.4657 
 123   0.0000       0.461439        12.5564 
 124   0.0000       0.465892        12.6776 
 125   0.0000       0.471232        12.8229 
 126   0.0000       0.479014        13.0346 
 127   0.0000       0.480776        13.0826 
 128   0.0000       0.492379        13.3983 
 129   0.0000       0.501005        13.6331 
 130   0.0000       0.503597        13.7036 
 131   0.0000       0.510874        13.9016 
 132   0.0000       0.512715        13.9517 
 133   0.0000       0.518474        14.1084 
 134   0.0000       0.521248        14.1839 
 135   0.0000       0.530278        14.4296 
 136   0.0000       0.537398        14.6234 
 137   0.0000       0.541506        14.7351 
 138   0.0000       0.542143        14.7525 
 139   0.0000       0.556151        15.1336 
 140   0.0000       0.556923        15.1547 
 141   0.0000       0.560717        15.2579 
 142   0.0000       0.561710        15.2849 
 143   0.0000       0.576215        15.6796 
 144   0.0000       0.581554        15.8249 
 145   0.0000       0.584642        15.9089 
 146   0.0000       0.589133        16.0311 
 147   0.0000       0.592553        16.1242 
 148   0.0000       0.599146        16.3036 
 149   0.0000       0.602684        16.3999 
 150   0.0000       0.607325        16.5262 
 151   0.0000       0.611887        16.6503 
 152   0.0000       0.612908        16.6781 
 153   0.0000       0.618625        16.8336 
 154   0.0000       0.622472        16.9383 
 155   0.0000       0.627580        17.0773 
 156   0.0000       0.635379        17.2895 
 157   0.0000       0.636843        17.3294 
 158   0.0000       0.644012        17.5245 
 159   0.0000       0.648745        17.6532 
 160   0.0000       0.651655        17.7324 
 161   0.0000       0.664444        18.0804 
 162   0.0000       0.666012        18.1231 
 163   0.0000       0.668175        18.1820 
 164   0.0000       0.676713        18.4143 
 165   0.0000       0.682314        18.5667 
 166   0.0000       0.683789        18.6068 
 167   0.0000       0.689632        18.7658 
 168   0.0000       0.695142        18.9158 
 169   0.0000       0.701084        19.0775 
 170   0.0000       0.705648        19.2017 
 171   0.0000       0.712071        19.3764 
 172   0.0000       0.715936        19.4816 
 173   0.0000       0.725122        19.7316 
 174   0.0000       0.728347        19.8193 
 175   0.0000       0.735718        20.0199 
 176   0.0000       0.739373        20.1194 
 177   0.0000       0.743998        20.2452 
 178   0.0000       0.754269        20.5247 
 179   0.0000       0.762214        20.7409 
 180   0.0000       0.771809        21.0020 
 181   0.0000       0.790005        21.4971 
 182   0.0000       0.793281        21.5863 
 183   0.0000       0.803027        21.8515 
 184   0.0000       0.811751        22.0889 
 185   0.0000       0.815441        22.1893 
 186   0.0000       0.818498        22.2725 
 187   0.0000       0.826639        22.4940 
 188   0.0000       0.835916        22.7464 
 189   0.0000       0.846786        23.0422 
 190   0.0000       0.850306        23.1380 
 191   0.0000       0.859708        23.3938 
 192   0.0000       0.865581        23.5537 
 193   0.0000       0.880075        23.9481 
 194   0.0000       0.884253        24.0617 
 195   0.0000       0.887127        24.1399 
 196   0.0000       0.891433        24.2571 
 197   0.0000       0.895811        24.3763 
 198   0.0000       0.903431        24.5836 
 199   0.0000       0.909462        24.7477 
 200   0.0000       0.915272        24.9058 
 201   0.0000       0.920638        25.0518 
 202   0.0000       0.928740        25.2723 
 203   0.0000       0.934578        25.4312 
 204   0.0000       0.946160        25.7463 
 205   0.0000       0.946647        25.7596 
 206   0.0000       0.959221        26.1017 
 207   0.0000       0.974209        26.5096 
 208   0.0000       0.978318        26.6214 
 209   0.0000       0.986086        26.8328 
 210   0.0000       0.989435        26.9239 
 211   0.0000       0.994681        27.0666 
 212   0.0000       1.004770        27.3412 
 213   0.0000       1.005457        27.3599 
 214   0.0000       1.012420        27.5493 
 215   0.0000       1.022381        27.8204 
 216   0.0000       1.023584        27.8531 
 217   0.0000       1.042693        28.3731 
 218   0.0000       1.047374        28.5005 
 219   0.0000       1.053824        28.6760 
 220   0.0000       1.056121        28.7385 
 221   0.0000       1.063392        28.9364 
 222   0.0000       1.079180        29.3660 
 223   0.0000       1.079862        29.3845 
 224   0.0000       1.093667        29.7602 
 225   0.0000       1.094636        29.7866 
 226   0.0000       1.101904        29.9843 
 227   0.0000       1.114987        30.3403 
 228   0.0000       1.117748        30.4155 
 229   0.0000       1.125854        30.6360 
 230   0.0000       1.130412        30.7601 
 231   0.0000       1.149366        31.2758 
 232   0.0000       1.151633        31.3375 
 233   0.0000       1.158986        31.5376 
 234   0.0000       1.164323        31.6828 
 235   0.0000       1.165080        31.7034 
 236   0.0000       1.177170        32.0324 
 237   0.0000       1.183889        32.2152 
 238   0.0000       1.194931        32.5157 
 239   0.0000       1.198720        32.6188 
 240   0.0000       1.208637        32.8887 
 241   0.0000       1.213770        33.0284 
 242   0.0000       1.217557        33.1314 
 243   0.0000       1.225901        33.3585 
 244   0.0000       1.231151        33.5013 
 245   0.0000       1.240928        33.7674 
 246   0.0000       1.243963        33.8500 
 247   0.0000       1.256296        34.1856 
 248   0.0000       1.262737        34.3608 
 249   0.0000       1.267545        34.4917 
 250   0.0000       1.277436        34.7608 
 251   0.0000       1.279135        34.8070 
 252   0.0000       1.293633        35.2015 
 253   0.0000       1.299939        35.3731 
 254   0.0000       1.303337        35.4656 
 255   0.0000       1.310568        35.6624 
 256   0.0000       1.316382        35.8206 
 257   0.0000       1.320068        35.9209 
 258   0.0000       1.336125        36.3578 
 259   0.0000       1.341077        36.4926 
 260   0.0000       1.349123        36.7115 
 261   0.0000       1.364756        37.1369 
 262   0.0000       1.365899        37.1680 
 263   0.0000       1.370103        37.2824 
 264   0.0000       1.391847        37.8741 
 265   0.0000       1.397959        38.0404 
 266   0.0000       1.398116        38.0447 
 267   0.0000       1.412617        38.4393 
 268   0.0000       1.421107        38.6703 
 269   0.0000       1.425770        38.7972 
 270   0.0000       1.427550        38.8456 
 271   0.0000       1.438660        39.1479 
 272   0.0000       1.446551        39.3627 
 273   0.0000       1.456254        39.6267 
 274   0.0000       1.462176        39.7878 
 275   0.0000       1.472706        40.0744 
 276   0.0000       1.477872        40.2149 
 277   0.0000       1.482208        40.3329 
 278   0.0000       1.484832        40.4043 
 279   0.0000       1.490917        40.5699 
 280   0.0000       1.500842        40.8400 
 281   0.0000       1.503731        40.9186 
 282   0.0000       1.509209        41.0677 
 283   0.0000       1.512223        41.1497 
 284   0.0000       1.521359        41.3983 
 285   0.0000       1.530304        41.6417 
 286   0.0000       1.533178        41.7199 
 287   0.0000       1.544223        42.0204 
 288   0.0000       1.547031        42.0969 
 289   0.0000       1.552542        42.2468 
 290   0.0000       1.560091        42.4522 
 291   0.0000       1.563278        42.5390 
 292   0.0000       1.574475        42.8436 
 293   0.0000       1.588186        43.2167 
 294   0.0000       1.597931        43.4819 
 295   0.0000       1.607674        43.7470 
 296   0.0000       1.612127        43.8682 
 297   0.0000       1.621354        44.1193 
 298   0.0000       1.628776        44.3212 
 299   0.0000       1.640001        44.6267 
 300   0.0000       1.641863        44.6774 
 301   0.0000       1.655757        45.0554 
 302   0.0000       1.661701        45.2172 
 303   0.0000       1.668302        45.3968 
 304   0.0000       1.683119        45.8000 
 305   0.0000       1.692742        46.0619 
 306   0.0000       1.707043        46.4510 
 307   0.0000       1.713769        46.6340 
 308   0.0000       1.716502        46.7084 
 309   0.0000       1.724962        46.9386 
 310   0.0000       1.730142        47.0796 
 311   0.0000       1.743284        47.4372 
 312   0.0000       1.751921        47.6722 
 313   0.0000       1.759533        47.8793 
 314   0.0000       1.762076        47.9485 
 315   0.0000       1.779395        48.4198 
 316   0.0000       1.789691        48.7000 
 317   0.0000       1.792839        48.7856 
 318   0.0000       1.804457        49.1018 
 319   0.0000       1.810963        49.2788 
 320   0.0000       1.825644        49.6783 
 321   0.0000       1.838497        50.0280 
 322   0.0000       1.848254        50.2936 
 323   0.0000       1.863113        50.6979 
 324   0.0000       1.873523        50.9812 
 325   0.0000       1.885033        51.2944 
 326   0.0000       1.896683        51.6114 
 327   0.0000       1.911875        52.0248 
 328   0.0000       1.918151        52.1955 
 329   0.0000       1.933955        52.6256 
 330   0.0000       1.937863        52.7319 
 331   0.0000       1.945230        52.9324 
 332   0.0000       1.955693        53.2171 
 333   0.0000       1.968780        53.5732 
 334   0.0000       1.976931        53.7950 
 335   0.0000       1.987162        54.0734 
 336   0.0000       2.002790        54.4987 
 337   0.0000       2.017811        54.9074 
 338   0.0000       2.024600        55.0922 
 339   0.0000       2.035619        55.3920 
 340   0.0000       2.045367        55.6573 
 341   0.0000       2.054060        55.8938 
 342   0.0000       2.060542        56.0702 
 343   0.0000       2.083691        56.7001 
 344   0.0000       2.101413        57.1824 
 345   0.0000       2.121589        57.7314 
 346   0.0000       2.125888        57.8484 
 347   0.0000       2.130068        57.9621 
 348   0.0000       2.152121        58.5622 
 349   0.0000       2.169770        59.0424 
 350   0.0000       2.175772        59.2058 
 351   0.0000       2.200037        59.8660 
 352   0.0000       2.208154        60.0869 
 353   0.0000       2.232468        60.7485 
 354   0.0000       2.246427        61.1284 
 355   0.0000       2.257586        61.4320 
 356   0.0000       2.274089        61.8811 
 357   0.0000       2.291226        62.3474 
 358   0.0000       2.295221        62.4561 
 359   0.0000       2.317796        63.0704 
 360   0.0000       2.320544        63.1452 
 361   0.0000       2.330187        63.4076 
 362   0.0000       2.348737        63.9124 
 363   0.0000       2.360173        64.2236 
 364   0.0000       2.366996        64.4092 
 365   0.0000       2.372376        64.5556 
 366   0.0000       2.387846        64.9766 
 367   0.0000       2.417195        65.7752 
 368   0.0000       2.421300        65.8869 
 369   0.0000       2.428933        66.0946 
 370   0.0000       2.447456        66.5987 
 371   0.0000       2.475544        67.3630 
 372   0.0000       2.478712        67.4492 
 373   0.0000       2.484155        67.5973 
 374   0.0000       2.496384        67.9301 
 375   0.0000       2.504782        68.1586 
 376   0.0000       2.521712        68.6193 
 377   0.0000       2.527502        68.7768 
 378   0.0000       2.557700        69.5986 
 379   0.0000       2.563196        69.7481 
 380   0.0000       2.579110        70.1811 
 381   0.0000       2.584480        70.3273 
 382   0.0000       2.597718        70.6875 
 383   0.0000       2.616800        71.2067 
 384   0.0000       2.624799        71.4244 
 385   0.0000       2.642332        71.9015 
 386   0.0000       2.646451        72.0136 
 387   0.0000       2.651198        72.1428 
 388   0.0000       2.665324        72.5272 
 389   0.0000       2.675584        72.8063 
 390   0.0000       2.688762        73.1649 
 391   0.0000       2.696017        73.3623 
 392   0.0000       2.719924        74.0129 
 393   0.0000       2.722426        74.0810 
 394   0.0000       2.734060        74.3975 
 395   0.0000       2.746311        74.7309 
 396   0.0000       2.757385        75.0323 
 397   0.0000       2.767699        75.3129 
 398   0.0000       2.775881        75.5356 
 399   0.0000       2.785387        75.7942 
 400   0.0000       2.798706        76.1567 
 401   0.0000       2.804720        76.3203 
 402   0.0000       2.819305        76.7172 
 403   0.0000       2.827860        76.9500 
 404   0.0000       2.833424        77.1014 
 405   0.0000       2.845693        77.4352 
 406   0.0000       2.849228        77.5314 
 407   0.0000       2.858413        77.7814 
 408   0.0000       2.869391        78.0801 
 409   0.0000       2.875246        78.2394 
 410   0.0000       2.882231        78.4295 
 411   0.0000       2.893672        78.7408 
 412   0.0000       2.899038        78.8868 
 413   0.0000       2.908949        79.1565 
 414   0.0000       2.926520        79.6347 
 415   0.0000       2.932906        79.8084 
 416   0.0000       2.945255        80.1445 
 417   0.0000       2.950800        80.2953 
 418   0.0000       2.955918        80.4346 
 419   0.0000       2.964032        80.6554 
 420   0.0000       2.968709        80.7827 
 421   0.0000       2.975198        80.9593 
 422   0.0000       2.986523        81.2674 
 423   0.0000       2.994204        81.4764 
 424   0.0000       3.012703        81.9798 
 425   0.0000       3.015042        82.0435 
 426   0.0000       3.022336        82.2420 
 427   0.0000       3.030965        82.4767 
 428   0.0000       3.044451        82.8437 
 429   0.0000       3.049467        82.9802 
 430   0.0000       3.053517        83.0904 
 431   0.0000       3.068001        83.4846 
 432   0.0000       3.070900        83.5634 
 433   0.0000       3.075032        83.6759 
 434   0.0000       3.085098        83.9498 
 435   0.0000       3.087987        84.0284 
 436   0.0000       3.094214        84.1978 
 437   0.0000       3.098402        84.3118 
 438   0.0000       3.105785        84.5127 
 439   0.0000       3.116103        84.7935 
 440   0.0000       3.121070        84.9286 
 441   0.0000       3.134376        85.2907 
 442   0.0000       3.136361        85.3447 
 443   0.0000       3.138296        85.3974 
 444   0.0000       3.153250        85.8043 
 445   0.0000       3.160370        85.9981 
 446   0.0000       3.167874        86.2022 
 447   0.0000       3.174859        86.3923 
 448   0.0000       3.175973        86.4226 
 449   0.0000       3.196067        86.9694 
 450   0.0000       3.200513        87.0904 
 451   0.0000       3.204955        87.2113 
 452   0.0000       3.213002        87.4302 
 453   0.0000       3.226772        87.8049 
 454   0.0000       3.236538        88.0707 
 455   0.0000       3.241215        88.1980 
 456   0.0000       3.246678        88.3466 
 457   0.0000       3.248060        88.3842 
 458   0.0000       3.262637        88.7809 
 459   0.0000       3.268827        88.9493 
 460   0.0000       3.277033        89.1726 
 461   0.0000       3.284749        89.3826 
 462   0.0000       3.292700        89.5989 
 463   0.0000       3.293324        89.6159 
 464   0.0000       3.304861        89.9298 
 465   0.0000       3.311852        90.1201 
 466   0.0000       3.313338        90.1605 
 467   0.0000       3.323176        90.4282 
 468   0.0000       3.332042        90.6695 
 469   0.0000       3.335212        90.7557 
 470   0.0000       3.346898        91.0737 
 471   0.0000       3.355291        91.3021 
 472   0.0000       3.360176        91.4350 
 473   0.0000       3.365747        91.5866 
 474   0.0000       3.366986        91.6203 
 475   0.0000       3.374751        91.8316 
 476   0.0000       3.379747        91.9676 
 477   0.0000       3.384622        92.1003 
 478   0.0000       3.391352        92.2834 
 479   0.0000       3.396969        92.4362 
 480   0.0000       3.407505        92.7229 
 481   0.0000       3.414414        92.9109 
 482   0.0000       3.415691        92.9457 
 483   0.0000       3.420131        93.0665 
 484   0.0000       3.425432        93.2107 
 485   0.0000       3.434012        93.4442 
 486   0.0000       3.435773        93.4921 
 487   0.0000       3.437336        93.5347 
 488   0.0000       3.442846        93.6846 
 489   0.0000       3.452842        93.9566 
 490   0.0000       3.454320        93.9968 
 491   0.0000       3.458941        94.1226 
 492   0.0000       3.468116        94.3722 
 493   0.0000       3.470807        94.4455 
 494   0.0000       3.481281        94.7305 
 495   0.0000       3.490254        94.9746 
 496   0.0000       3.495291        95.1117 
 497   0.0000       3.506755        95.4236 
 498   0.0000       3.512683        95.5850 
 499   0.0000       3.520230        95.7903 
 500   0.0000       3.528494        96.0152 
 501   0.0000       3.534264        96.1722 
 502   0.0000       3.536358        96.2292 
 503   0.0000       3.541469        96.3683 
 504   0.0000       3.549470        96.5860 
 505   0.0000       3.554754        96.7298 
 506   0.0000       3.560644        96.8901 
 507   0.0000       3.583039        97.4994 
 508   0.0000       3.591333        97.7251 
 509   0.0000       3.595511        97.8388 
 510   0.0000       3.598501        97.9202 
 511   0.0000       3.604489        98.0831 
 512   0.0000       3.618258        98.4578 
 513   0.0000       3.622250        98.5664 
 514   0.0000       3.627163        98.7001 
 515   0.0000       3.628403        98.7339 
 516   0.0000       3.638326        99.0039 
 517   0.0000       3.639818        99.0445 
 518   0.0000       3.643138        99.1348 
 519   0.0000       3.646269        99.2200 
 520   0.0000       3.654816        99.4526 
 521   0.0000       3.661709        99.6402 
 522   0.0000       3.666522        99.7711 
 523   0.0000       3.671233        99.8993 
 524   0.0000       3.681653       100.1829 
 525   0.0000       3.686382       100.3116 
 526   0.0000       3.692545       100.4793 
 527   0.0000       3.709009       100.9273 
 528   0.0000       3.713975       101.0624 
 529   0.0000       3.717668       101.1629 
 530   0.0000       3.725136       101.3661 
 531   0.0000       3.731700       101.5447 
 532   0.0000       3.733513       101.5941 
 533   0.0000       3.743692       101.8710 
 534   0.0000       3.748404       101.9992 
 535   0.0000       3.756933       102.2313 
 536   0.0000       3.764487       102.4369 
 537   0.0000       3.765369       102.4609 
 538   0.0000       3.776736       102.7702 
 539   0.0000       3.781215       102.8921 
 540   0.0000       3.791125       103.1618 
 541   0.0000       3.798233       103.3552 
 542   0.0000       3.807159       103.5981 
 543   0.0000       3.809849       103.6712 
 544   0.0000       3.821150       103.9788 
 545   0.0000       3.829310       104.2008 
 546   0.0000       3.834280       104.3361 
 547   0.0000       3.837960       104.4362 
 548   0.0000       3.851818       104.8133 
 549   0.0000       3.855864       104.9234 
 550   0.0000       3.865902       105.1965 
 551   0.0000       3.867515       105.2404 
 552   0.0000       3.880774       105.6012 
 553   0.0000       3.887819       105.7929 
 554   0.0000       3.896600       106.0319 
 555   0.0000       3.910776       106.4176 
 556   0.0000       3.911856       106.4470 
 557   0.0000       3.928874       106.9101 
 558   0.0000       3.933983       107.0491 
 559   0.0000       3.937237       107.1377 
 560   0.0000       3.950591       107.5010 
 561   0.0000       3.954314       107.6024 
 562   0.0000       3.967103       107.9504 
 563   0.0000       3.974691       108.1568 
 564   0.0000       3.990834       108.5961 
 565   0.0000       3.992418       108.6392 
 566   0.0000       4.006600       109.0251 
 567   0.0000       4.009170       109.0951 
 568   0.0000       4.016849       109.3040 
 569   0.0000       4.024099       109.5013 
 570   0.0000       4.027248       109.5870 
 571   0.0000       4.043017       110.0161 
 572   0.0000       4.057277       110.4041 
 573   0.0000       4.064902       110.6116 
 574   0.0000       4.066309       110.6499 
 575   0.0000       4.072662       110.8228 
 576   0.0000       4.085872       111.1822 
 577   0.0000       4.094039       111.4045 
 578   0.0000       4.105315       111.7113 
 579   0.0000       4.105858       111.7261 
 580   0.0000       4.112728       111.9130 
 581   0.0000       4.120146       112.1149 
 582   0.0000       4.137764       112.5943 
 583   0.0000       4.142868       112.7332 
 584   0.0000       4.157385       113.1282 
 585   0.0000       4.159143       113.1760 
 586   0.0000       4.166719       113.3822 
 587   0.0000       4.169800       113.4660 
 588   0.0000       4.175883       113.6315 
 589   0.0000       4.178315       113.6977 
 590   0.0000       4.185293       113.8876 
 591   0.0000       4.191075       114.0449 
 592   0.0000       4.196863       114.2024 
 593   0.0000       4.200527       114.3022 
 594   0.0000       4.214428       114.6804 
 595   0.0000       4.217551       114.7654 
 596   0.0000       4.230730       115.1240 
 597   0.0000       4.232564       115.1739 
 598   0.0000       4.237114       115.2977 
 599   0.0000       4.258340       115.8753 
 600   0.0000       4.269251       116.1722 
 601   0.0000       4.270878       116.2165 
 602   0.0000       4.276228       116.3621 
 603   0.0000       4.281590       116.5080 
 604   0.0000       4.289099       116.7123 
 605   0.0000       4.292373       116.8014 
 606   0.0000       4.311574       117.3239 
 607   0.0000       4.323098       117.6375 
 608   0.0000       4.331331       117.8615 
 609   0.0000       4.332814       117.9018 
 610   0.0000       4.342373       118.1620 
 611   0.0000       4.343832       118.2017 
 612   0.0000       4.358475       118.6001 
 613   0.0000       4.363622       118.7402 
 614   0.0000       4.372957       118.9942 
 615   0.0000       4.384522       119.3089 
 616   0.0000       4.391707       119.5044 
 617   0.0000       4.401040       119.7584 
 618   0.0000       4.408106       119.9507 
 619   0.0000       4.409517       119.9891 
 620   0.0000       4.422778       120.3499 
 621   0.0000       4.434865       120.6788 
 622   0.0000       4.436344       120.7191 
 623   0.0000       4.442083       120.8752 
 624   0.0000       4.460621       121.3797 
 625   0.0000       4.469495       121.6211 
 626   0.0000       4.472761       121.7100 
 627   0.0000       4.478958       121.8787 
 628   0.0000       4.493645       122.2783 
 629   0.0000       4.497883       122.3936 
 630   0.0000       4.515894       122.8837 
 631   0.0000       4.527336       123.1951 
 632   0.0000       4.532018       123.3225 
 633   0.0000       4.537832       123.4807 
 634   0.0000       4.539725       123.5322 
 635   0.0000       4.551282       123.8467 
 636   0.0000       4.556775       123.9961 
 637   0.0000       4.566923       124.2723 
 638   0.0000       4.578909       124.5985 
 639   0.0000       4.586486       124.8046 
 640   0.0000       4.592506       124.9684 
 641   0.0000       4.603052       125.2554 
 642   0.0000       4.612826       125.5214 
 643   0.0000       4.618735       125.6822 
 644   0.0000       4.629781       125.9827 
 645   0.0000       4.633249       126.0771 
 646   0.0000       4.637977       126.2058 
 647   0.0000       4.642991       126.3422 
 648   0.0000       4.653872       126.6383 
 649   0.0000       4.658946       126.7764 
 650   0.0000       4.665386       126.9516 
 651   0.0000       4.667881       127.0195 
 652   0.0000       4.683448       127.4431 
 653   0.0000       4.686093       127.5151 
 654   0.0000       4.692324       127.6846 
 655   0.0000       4.702797       127.9696 
 656   0.0000       4.716160       128.3332 
 657   0.0000       4.718582       128.3991 
 658   0.0000       4.750559       129.2693 
 659   0.0000       4.760879       129.5501 
 660   0.0000       4.769298       129.7792 
 661   0.0000       4.770968       129.8246 
 662   0.0000       4.785521       130.2206 
 663   0.0000       4.799459       130.5999 
 664   0.0000       4.813556       130.9835 
 665   0.0000       4.826141       131.3260 
 666   0.0000       4.851702       132.0215 
 667   0.0000       4.864666       132.3743 
 668   0.0000       4.880003       132.7916 
 669   0.0000       4.895215       133.2056 
 670   0.0000       4.923658       133.9796 
 671   0.0000       4.932954       134.2325 
 672   0.0000       4.949742       134.6893 
 673   0.0000       4.970542       135.2553 
 674   0.0000       4.983267       135.6016 
 675   0.0000       4.995503       135.9345 
 676   0.0000       5.017582       136.5353 
 677   0.0000       5.023036       136.6838 
 678   0.0000       5.031157       136.9047 
 679   0.0000       5.042471       137.2126 
 680   0.0000       5.046526       137.3230 
 681   0.0000       5.064669       137.8166 
 682   0.0000       5.075198       138.1032 
 683   0.0000       5.089787       138.5002 
 684   0.0000       5.110341       139.0595 
 685   0.0000       5.114220       139.1650 
 686   0.0000       5.124101       139.4339 
 687   0.0000       5.130466       139.6071 
 688   0.0000       5.148351       140.0937 
 689   0.0000       5.157593       140.3452 
 690   0.0000       5.180018       140.9555 
 691   0.0000       5.184321       141.0726 
 692   0.0000       5.185855       141.1143 
 693   0.0000       5.195268       141.3704 
 694   0.0000       5.208109       141.7199 
 695   0.0000       5.220130       142.0470 
 696   0.0000       5.222129       142.1014 
 697   0.0000       5.229173       142.2930 
 698   0.0000       5.246313       142.7594 
 699   0.0000       5.255725       143.0156 
 700   0.0000       5.271582       143.4470 
 701   0.0000       5.286500       143.8530 
 702   0.0000       5.290440       143.9602 
 703   0.0000       5.315578       144.6442 
 704   0.0000       5.323138       144.8499 
 705   0.0000       5.329849       145.0326 
 706   0.0000       5.350806       145.6028 
 707   0.0000       5.362738       145.9275 
 708   0.0000       5.372383       146.1900 
 709   0.0000       5.381804       146.4463 
 710   0.0000       5.388689       146.6337 
 711   0.0000       5.401862       146.9921 
 712   0.0000       5.428526       147.7177 
 713   0.0000       5.458332       148.5288 
 714   0.0000       5.466662       148.7554 
 715   0.0000       5.486900       149.3061 
 716   0.0000       5.490948       149.4163 
 717   0.0000       5.504469       149.7842 
 718   0.0000       5.518829       150.1750 
 719   0.0000       5.530279       150.4866 
 720   0.0000       5.540902       150.7756 
 721   0.0000       5.553159       151.1091 
 722   0.0000       5.562764       151.3705 
 723   0.0000       5.569245       151.5469 
 724   0.0000       5.589337       152.0936 
 725   0.0000       5.606779       152.5682 
 726   0.0000       5.610992       152.6829 
 727   0.0000       5.618213       152.8793 
 728   0.0000       5.633364       153.2916 
 729   0.0000       5.642664       153.5447 
 730   0.0000       5.651085       153.7738 
 731   0.0000       5.673296       154.3782 
 732   0.0000       5.693820       154.9367 
 733   0.0000       5.705324       155.2498 
 734   0.0000       5.721261       155.6834 
 735   0.0000       5.725661       155.8032 
 736   0.0000       5.738829       156.1615 
 737   0.0000       5.742549       156.2627 
 738   0.0000       5.750314       156.4740 
 739   0.0000       5.759945       156.7361 
 740   0.0000       5.769839       157.0053 
 741   0.0000       5.775616       157.1625 
 742   0.0000       5.816459       158.2739 
 743   0.0000       5.827221       158.5667 
 744   0.0000       5.832018       158.6973 
 745   0.0000       5.841826       158.9642 
 746   0.0000       5.863520       159.5545 
 747   0.0000       5.880388       160.0135 
 748   0.0000       5.896901       160.4628 
 749   0.0000       5.949466       161.8932 
 750   0.0000       5.958916       162.1503 
 751   0.0000       5.974692       162.5796 
 752   0.0000       5.984882       162.8569 
 753   0.0000       5.998921       163.2389 
 754   0.0000       6.009930       163.5385 
 755   0.0000       6.026291       163.9837 
 756   0.0000       6.047056       164.5488 
 757   0.0000       6.052307       164.6917 
 758   0.0000       6.068636       165.1360 
 759   0.0000       6.101096       166.0193 
 760   0.0000       6.118718       166.4988 
 761   0.0000       6.166642       167.8029 
 762   0.0000       6.229723       169.5194 
 763   0.0000       6.233987       169.6354 
 764   0.0000       6.261490       170.3838 
 765   0.0000       6.294485       171.2817 
 766   0.0000       6.325410       172.1232 
 767   0.0000       6.348189       172.7430 
 768   0.0000       6.354952       172.9270 
 769   0.0000       6.360634       173.0816 
 770   0.0000       6.382146       173.6670 
 771   0.0000       6.391399       173.9188 
 772   0.0000       6.404980       174.2884 
 773   0.0000       6.447935       175.4572 
 774   0.0000       6.465028       175.9224 
 775   0.0000       6.474312       176.1750 
 776   0.0000       6.495166       176.7424 
 777   0.0000       6.549842       178.2303 
 778   0.0000       6.559623       178.4964 
 779   0.0000       6.604026       179.7047 
 780   0.0000       6.671925       181.5523 
 781   0.0000       6.691063       182.0731 
 782   0.0000       6.759603       183.9381 
 783   0.0000       6.777603       184.4280 
 784   0.0000       6.812942       185.3896 
 785   0.0000       6.889188       187.4643 
 786   0.0000       6.908053       187.9777 
 787   0.0000       6.922097       188.3598 
 788   0.0000       6.964011       189.5004 
 789   0.0000       7.031642       191.3407 
 790   0.0000       7.049547       191.8279 
 791   0.0000       7.063176       192.1988 
 792   0.0000       7.081228       192.6900 
 793   0.0000       7.123302       193.8349 
 794   0.0000       7.231931       196.7909 
 795   0.0000       7.260387       197.5652 
 796   0.0000       7.267352       197.7547 
 797   0.0000       7.281442       198.1381 
 798   0.0000       7.339262       199.7115 
 799   0.0000       7.344212       199.8462 
 800   0.0000       7.403876       201.4697 
 801   0.0000       7.562244       205.7791 
 802   0.0000       7.588074       206.4820 
 803   0.0000       7.606056       206.9713 
 804   0.0000       7.651528       208.2087 
 805   0.0000       7.820049       212.7944 
 806   0.0000       7.829148       213.0419 
 807   0.0000       7.885811       214.5838 
 808   0.0000       7.934678       215.9136 
 809   0.0000       9.502053       258.5640 
 810   0.0000       9.550225       259.8748 
 811   0.0000      10.764754       292.9238 
 812   0.0000      11.325214       308.1748 
 813   0.0000      11.877769       323.2105 
 814   0.0000      12.619927       343.4057 
 815   0.0000      12.906047       351.1914 
 816   0.0000      13.003136       353.8333 
 817   0.0000      13.112116       356.7988 
 818   0.0000      13.206400       359.3644 
 819   0.0000      13.425077       365.3149 
 820   0.0000      13.458320       366.2195 
 821   0.0000      13.826055       376.2261 
 822   0.0000      13.977103       380.3363 
 823   0.0000      14.030475       381.7886 
 824   0.0000      14.231828       387.2677 
 825   0.0000      14.587531       396.9469 
 826   0.0000      14.706643       400.1881 
 827   0.0000      16.014398       435.7739 

                    ********************************
                    * MULLIKEN POPULATION ANALYSIS *
                    ********************************

-----------------------
MULLIKEN ATOMIC CHARGES
-----------------------
   0 C :   -0.341252
   1 C :    0.040263
   2 O :   -0.391499
   3 C :    0.469004
   4 O :   -0.393840
   5 C :   -0.233727
   6 C :    0.159578
   7 C :   -0.276905
   8 N :   -0.121750
   9 C :    0.187764
  10 S :   -0.431537
  11 N :   -0.196039
  12 C :    0.046597
  13 C :    0.053890
  14 C :   -0.199050
  15 C :   -0.138680
  16 C :   -0.274411
  17 C :    0.310227
  18 O :   -0.356785
  19 C :   -0.261479
  20 H :    0.119739
  21 H :    0.118205
  22 H :    0.105404
  23 H :    0.115279
  24 H :    0.120827
  25 H :    0.138976
  26 H :    0.094946
  27 H :    0.126048
  28 H :    0.197970
  29 H :    0.191781
  30 H :    0.149219
  31 H :    0.157240
  32 H :    0.165920
  33 H :    0.133161
  34 H :    0.240624
  35 H :    0.174293
Sum of atomic charges:    0.0000000

--------------------------------
MULLIKEN REDUCED ORBITAL CHARGES
--------------------------------
  0 C s       :     3.272867  s :     3.272867
      pz      :     1.010538  p :     2.989048
      px      :     0.995713
      py      :     0.982798
      dz2     :     0.015838  d :     0.074974
      dxz     :     0.006056
      dyz     :     0.023797
      dx2y2   :     0.009098
      dxy     :     0.020186
      f0      :     0.000444  f :     0.004362
      f+1     :     0.000456
      f-1     :     0.001076
      f+2     :     0.000243
      f-2     :     0.000714
      f+3     :     0.000474
      f-3     :     0.000956
  1 C s       :     3.156879  s :     3.156879
      pz      :     1.034440  p :     2.631862
      px      :     0.651864
      py      :     0.945558
      dz2     :     0.023611  d :     0.159395
      dxz     :     0.034937
      dyz     :     0.030621
      dx2y2   :     0.036600
      dxy     :     0.033625
      f0      :     0.001698  f :     0.011602
      f+1     :     0.001371
      f-1     :     0.001071
      f+2     :     0.001373
      f-2     :     0.001375
      f+3     :     0.002407
      f-3     :     0.002306
  2 O s       :     3.719592  s :     3.719592
      pz      :     1.831578  p :     4.638710
      px      :     1.434127
      py      :     1.373005
      dz2     :     0.003943  d :     0.030877
      dxz     :     0.002927
      dyz     :     0.005415
      dx2y2   :     0.013992
      dxy     :     0.004599
      f0      :     0.000326  f :     0.002320
      f+1     :     0.000282
[...]
 15 C s       :     2.705710  s :     2.705710
      pz      :     0.901572  p :     2.796841
      px      :     0.924101
      py      :     0.971168
      dz2     :     0.096468  d :     0.417313
      dxz     :     0.068044
      dyz     :     0.060258
      dx2y2   :     0.115187
      dxy     :     0.077357
      f0      :     0.003168  f :     0.041096
      f+1     :     0.005134
      f-1     :     0.006484
      f+2     :     0.007112
      f-2     :     0.006452
      f+3     :     0.006472
      f-3     :     0.006275
 16 C s       :     2.701678  s :     2.701678
      pz      :     0.938343  p :     2.868832
      px      :     0.953715
      py      :     0.976773
      dz2     :     0.046488  d :     0.391398
      dxz     :     0.053140
      dyz     :     0.093215
      dx2y2   :     0.093060
      dxy     :     0.105495
      f0      :     0.004632  f :     0.040389
      f+1     :     0.004218
      f-1     :     0.004131
      f+2     :     0.006558
      f-2     :     0.005059
      f+3     :     0.009229
      f-3     :     0.006562
 17 C s       :     2.701339  s :     2.701339
      pz      :     0.840327  p :     2.681969
      px      :     0.823936
      py      :     1.017706
      dz2     :     0.130074  d :     0.709529
      dxz     :     0.100874
      dyz     :     0.150685
      dx2y2   :     0.159061
      dxy     :     0.168835
      f0      :     0.010191  f :     0.099359
      f+1     :     0.014722
      f-1     :     0.010748
      f+2     :     0.016803
      f-2     :     0.014443
      f+3     :     0.017677
      f-3     :     0.014775
 18 O s       :     3.176930  s :     3.176930
      pz      :     1.425306  p :     4.346021
      px      :     1.421076
      py      :     1.499638
      dz2     :     0.008730  d :     0.075574
      dxz     :     0.017101
      dyz     :     0.019063
      dx2y2   :     0.013290
      dxy     :     0.017391
      f0      :     0.000616  f :     0.005063
      f+1     :     0.000694
      f-1     :     0.000428
      f+2     :     0.000737
      f-2     :     0.001053
      f+3     :     0.000745
      f-3     :     0.000790
 19 C s       :     2.695690  s :     2.695690
      pz      :     0.933019  p :     2.843715
      px      :     0.943026
      py      :     0.967671
      dz2     :     0.078006  d :     0.388695
      dxz     :     0.067072
      dyz     :     0.063234
      dx2y2   :     0.100056
      dxy     :     0.080326
      f0      :     0.003242  f :     0.040754
      f+1     :     0.005392
      f-1     :     0.005910
      f+2     :     0.007091
      f-2     :     0.007051
      f+3     :     0.006281
      f-3     :     0.005787
 20 H s       :     0.841695  s :     0.841695
      pz      :     0.074876  p :     0.164396
      px      :     0.043112
      py      :     0.046408
      dz2     :     0.009222  d :     0.028243
      dxz     :     0.006855
      dyz     :     0.008262
      dx2y2   :     0.001580
      dxy     :     0.002323
 21 H s       :     0.842067  s :     0.842067
      pz      :     0.041429  p :     0.152061
      px      :     0.065473
      py      :     0.045158
      dz2     :     0.002263  d :     0.027604
      dxz     :     0.007318
      dyz     :     0.002423
      dx2y2   :     0.008129
      dxy     :     0.007471
 22 H s       :     0.848832  s :     0.848832
      pz      :     0.055027  p :     0.153785
      px      :     0.039939
      py      :     0.058819
      dz2     :     0.007288  d :     0.027732
      dxz     :     0.003797
      dyz     :     0.006772
      dx2y2   :     0.004156
      dxy     :     0.005719
 23 H s       :     0.852390  s :     0.852390
      pz      :     0.057514  p :     0.145173
      px      :     0.024145
      py      :     0.063514
      dz2     :     0.007484  d :     0.026924
      dxz     :     0.002207
      dyz     :     0.007739
      dx2y2   :     0.005138
      dxy     :     0.004356
 24 H s       :     0.854075  s :     0.854075
      pz      :     0.072447  p :     0.146481
      px      :     0.030966
      py      :     0.043067
      dz2     :     0.008357  d :     0.027149
      dxz     :     0.006438
      dyz     :     0.008972
      dx2y2   :     0.001637
      dxy     :     0.001746
 25 H s       :     0.823681  s :     0.823681
      pz      :     0.060436  p :     0.151752
      px      :     0.052761
      py      :     0.038555
      dz2     :     0.008028  d :     0.027724
      dxz     :     0.007035
      dyz     :     0.005437
      dx2y2   :     0.003081
      dxy     :     0.004144
 26 H s       :     0.844658  s :     0.844658
      pz      :     0.037825  p :     0.150293
      px      :     0.045069
      py      :     0.067399
      dz2     :     0.002835  d :     0.027692
      dxz     :     0.001985
      dyz     :     0.007099
      dx2y2   :     0.007512
      dxy     :     0.008261
 27 H s       :     0.831489  s :     0.831489
      pz      :     0.042678  p :     0.150770
      px      :     0.058569
      py      :     0.049522
      dz2     :     0.003411  d :     0.027811
      dxz     :     0.006284
      dyz     :     0.003610
      dx2y2   :     0.008101
      dxy     :     0.006405
 28 H s       :     0.742598  s :     0.742598
      pz      :     0.055117  p :     0.253585
      px      :     0.081525
      py      :     0.116943
      dz2     :     0.005718  d :     0.061791
      dxz     :     0.002420
      dyz     :     0.016195
      dx2y2   :     0.018128
      dxy     :     0.019330
 29 H s       :     0.749382  s :     0.749382
      pz      :     0.111972  p :     0.254163
      px      :     0.097634
      py      :     0.044557
      dz2     :     0.020397  d :     0.061364
      dxz     :     0.015412
      dyz     :     0.010340
      dx2y2   :     0.008994
      dxy     :     0.006221
 30 H s       :     0.831298  s :     0.831298
      pz      :     0.039352  p :     0.146711
      px      :     0.062848
      py      :     0.044512
      dz2     :     0.003173  d :     0.028502
      dxz     :     0.006868
      dyz     :     0.003606
      dx2y2   :     0.007262
      dxy     :     0.007594
 31 H s       :     0.843373  s :     0.843373
      pz      :     0.055762  p :     0.156820
      px      :     0.062505
      py      :     0.038552
      dz2     :     0.005574  d :     0.027596
      dxz     :     0.006540
      dyz     :     0.004051
      dx2y2   :     0.005690
      dxy     :     0.005741
 32 H s       :     0.842643  s :     0.842643
      pz      :     0.036937  p :     0.151395
      px      :     0.037642
      py      :     0.076816
      dz2     :     0.002607  d :     0.026461
      dxz     :     0.000380
      dyz     :     0.007635
      dx2y2   :     0.007813
      dxy     :     0.008026
 33 H s       :     0.848241  s :     0.848241
      pz      :     0.057173  p :     0.158917
      px      :     0.051920
      py      :     0.049825
      dz2     :     0.006001  d :     0.027738
      dxz     :     0.005020
      dyz     :     0.005711
      dx2y2   :     0.005755
      dxy     :     0.005251
 34 H s       :     0.706266  s :     0.706266
      pz      :     0.110816  p :     0.347636
      px      :     0.091359
      py      :     0.145462
      dz2     :     0.022579  d :     0.099524
      dxz     :     0.011972
      dyz     :     0.023628
      dx2y2   :     0.020906
      dxy     :     0.020440
 35 H s       :     0.837598  s :     0.837598
      pz      :     0.040257  p :     0.158221
      px      :     0.039771
      py      :     0.078193
      dz2     :     0.002585  d :     0.028088
      dxz     :     0.000431
      dyz     :     0.008412
      dx2y2   :     0.007952
      dxy     :     0.008707


                      *****************************
                      * MAYER POPULATION ANALYSIS *
                      *****************************

  NA   - Mulliken gross atomic population
  ZA   - Total nuclear charge
  QA   - Mulliken gross atomic charge
  VA   - Mayer's total valence
  BVA  - Mayer's bonded valence
  FA   - Mayer's free valence

  ATOM       NA         ZA         QA         VA         BVA        FA
  0 C      6.3413     6.0000    -0.3413     3.8728     3.8728     0.0000
  1 C      5.9597     6.0000     0.0403     3.8491     3.8491     0.0000
  2 O      8.3915     8.0000    -0.3915     1.9689     1.9689     0.0000
  3 C      5.5310     6.0000     0.4690     4.2207     4.2207    -0.0000
  4 O      8.3938     8.0000    -0.3938     2.1032     2.1032     0.0000
  5 C      6.2337     6.0000    -0.2337     3.6351     3.6351     0.0000
  6 C      5.8404     6.0000     0.1596     3.8604     3.8604     0.0000
  7 C      6.2769     6.0000    -0.2769     3.9106     3.9106     0.0000
  8 N      7.1217     7.0000    -0.1217     3.2858     3.2858    -0.0000
  9 C      5.8122     6.0000     0.1878     4.1559     4.1559     0.0000
 10 S     16.4315    16.0000    -0.4315     1.7663     1.7663     0.0000
 11 N      7.1960     7.0000    -0.1960     3.2519     3.2519    -0.0000
 12 C      5.9534     6.0000     0.0466     3.9538     3.9538     0.0000
 13 C      5.9461     6.0000     0.0539     3.6988     3.6988     0.0000
 14 C      6.1991     6.0000    -0.1991     3.8436     3.8436     0.0000
 15 C      6.1387     6.0000    -0.1387     3.8002     3.8002    -0.0000
 16 C      6.2744     6.0000    -0.2744     3.7843     3.7843     0.0000
 17 C      5.6898     6.0000     0.3102     3.8856     3.8856     0.0000
 18 O      8.3568     8.0000    -0.3568     2.1192     2.1192    -0.0000
 19 C      6.2615     6.0000    -0.2615     3.8232     3.8232    -0.0000
 20 H      0.8803     1.0000     0.1197     0.9715     0.9715     0.0000
 21 H      0.8818     1.0000     0.1182     0.9846     0.9846    -0.0000
 22 H      0.8946     1.0000     0.1054     0.9759     0.9759    -0.0000
 23 H      0.8847     1.0000     0.1153     0.9754     0.9754     0.0000
 24 H      0.8792     1.0000     0.1208     0.9779     0.9779     0.0000
 25 H      0.8610     1.0000     0.1390     0.9785     0.9785    -0.0000
 26 H      0.9051     1.0000     0.0949     0.9854     0.9854     0.0000
 27 H      0.8740     1.0000     0.1260     0.9773     0.9773     0.0000
 28 H      0.8020     1.0000     0.1980     1.0222     1.0222    -0.0000
 29 H      0.8082     1.0000     0.1918     1.0197     1.0197     0.0000
 30 H      0.8508     1.0000     0.1492     0.9910     0.9910     0.0000
 31 H      0.8428     1.0000     0.1572     0.9891     0.9891    -0.0000
 32 H      0.8341     1.0000     0.1659     0.9752     0.9752    -0.0000
 33 H      0.8668     1.0000     0.1332     0.9903     0.9903     0.0000
 34 H      0.7594     1.0000     0.2406     1.0111     1.0111     0.0000
 35 H      0.8257     1.0000     0.1743     0.9863     0.9863    -0.0000

  Mayer bond orders larger than 0.100000
B(  0-C ,  1-C ) :   0.9604 B(  0-C , 20-H ) :   0.9671 B(  0-C , 21-H ) :   0.9775 
B(  0-C , 22-H ) :   0.9729 B(  1-C ,  2-O ) :   0.8778 B(  1-C , 23-H ) :   0.9765 
B(  1-C , 24-H ) :   0.9860 B(  2-O ,  3-C ) :   1.1029 B(  3-C ,  4-O ) :   2.0340 
B(  3-C ,  5-C ) :   1.0282 B(  5-C ,  6-C ) :   1.6635 B(  5-C , 12-C ) :   0.9628 
B(  6-C ,  7-C ) :   0.9666 B(  6-C ,  8-N ) :   1.1375 B(  7-C , 25-H ) :   0.9566 
B(  7-C , 26-H ) :   0.9874 B(  7-C , 27-H ) :   0.9677 B(  8-N ,  9-C ) :   1.1796 
B(  8-N , 28-H ) :   0.9490 B(  9-C , 10-S ) :   1.6223 B(  9-C , 11-N ) :   1.2936 
B( 11-N , 12-C ) :   0.9894 B( 11-N , 29-H ) :   0.9527 B( 12-C , 13-C ) :   0.9418 
B( 12-C , 30-H ) :   1.0065 B( 13-C , 14-C ) :   1.3595 B( 13-C , 19-C ) :   1.3561 
B( 14-C , 15-C ) :   1.3913 B( 14-C , 31-H ) :   0.9689 B( 15-C , 16-C ) :   1.3615 
B( 15-C , 32-H ) :   0.9695 B( 16-C , 17-C ) :   1.3304 B( 16-C , 33-H ) :   0.9838 
B( 17-C , 18-O ) :   1.1132 B( 17-C , 19-C ) :   1.3757 B( 18-O , 34-H ) :   0.9798 
B( 19-C , 35-H ) :   0.9585 

-------
TIMINGS
-------

Total SCF time: 0 days 2 hours 32 min 26 sec 

Total time                  ....    9146.296 sec
Sum of individual times     ....    9138.300 sec  ( 99.9%)

Fock matrix formation       ....    9121.388 sec  ( 99.7%)
Diagonalization             ....       1.791 sec  (  0.0%)
Density matrix formation    ....       0.220 sec  (  0.0%)
Population analysis         ....       0.236 sec  (  0.0%)
Initial guess               ....       6.836 sec  (  0.1%)
Orbital Transformation      ....       0.000 sec  (  0.0%)
Orbital Orthonormalization  ....       0.000 sec  (  0.0%)
DIIS solution               ....       3.534 sec  (  0.0%)
SOSCF solution              ....       2.617 sec  (  0.0%)

Maximum memory used throughout the entire SCF-calculation: 764.5 MB

------------------------------------------------------------------------------
                                ORCA  MP2 
------------------------------------------------------------------------------

Freezing NCore=48 chemical core electrons

-------------
RI-MP2 ENERGY
-------------
Dimension of the basis                    ...  828
Memory devoted to MP2                     ...  256 MB   
Data format for buffers                   ... DOUBLE
Compression type for matrix containers    ... UNCOMPRESSED
Overall scaling of the MP2 energy         ...   1.000e+00
Calculating two index integrals           ... done (    0.031 sec)
Cholesky decomposition of V**-1           ... done (    0.431 sec)

-----------------
RI-TRANSFORMATION (AUX index driven)
-----------------

Dimension of the orbital-basis         ... 828
Dimension of the aux-basis             ... 2141
Transformation of internal/external MOs...   24-  76 to   77- 827
Number Format for Storage              ... Double (8 Byte)
Integral mode                          ... Direct

First Phase: integral generation and transformation of MO indices
  Aux angular momentum 0               ... done (    3.518 sec)
  Aux angular momentum 1               ... done (    5.982 sec)
  Aux angular momentum 2               ... done (    8.445 sec)
  Aux angular momentum 3               ... done (    6.812 sec)
  Aux angular momentum 4               ... done (    2.390 sec)
Closing buffer VIA ( 0.63 GB; CompressionRatio= 1.00)
  Phase 1 completed in    27.484 sec
Second Phase: sorting and transformation of aux index

IA-Transformation
Memory available                       ... 156 MB 
Max. # MO pairs treated in a batch     ... 11    
# of internal orbitals                 ... 53
# batches for internal orbitals        ... 5
Closing buffer IAV ( 0.63 GB; CompressionRatio= 1.00)
(ia|v) transformation done in    26.760 sec

  Phase 2 completed in    26.770 sec
RI-Integral transformation completed in    54.275 sec
Opening buffers                              ... done

Starting loop over batches of integrals:

Operator 0  - window                       ... ( 24- 76)x( 77-827)
Operator 0  - Memory available             ...   256 MB
Operator 0  - Memory needed per MO         ...  12.3 MB
Operator 0  - Number of orbitals per batch ... 13
Operator 0  - Number of batches            ... 5

OPERATOR  0   PASS   0:  MOs    24 ...   36
  Reading integrals       ... ok
  Internal MO  26
  Internal MO  29
  Internal MO  32
  Internal MO  35
OPERATOR  0   PASS   1:  MOs    37 ...   49
  Reading integrals       ... ok
  Internal MO  38
  Internal MO  41
  Internal MO  44
  Internal MO  47
OPERATOR  0   PASS   2:  MOs    50 ...   62
  Reading integrals       ... ok
  Internal MO  50
  Internal MO  53
  Internal MO  56
  Internal MO  59
  Internal MO  62
OPERATOR  0   PASS   3:  MOs    63 ...   75
  Reading integrals       ... ok
  Internal MO  65
  Internal MO  68
  Internal MO  71
  Internal MO  74
OPERATOR  0   PASS   4:  MOs    76 ...   76
  Reading integrals       ... ok
Time spent in pair loops =    71.841 sec
Deleting buffer (Ka|jb)[aa] ...done

-----------------------------------------------
 RI-MP2 CORRELATION ENERGY:     -3.540498372 Eh
-----------------------------------------------


-------
TIMINGS
-------

Total time                :  126.687 sec
Integral trafo            :   54.294 sec ( 42.9%)
I/O of integrals          :    3.342 sec (  2.6%)
K(i,j) Operators          :   42.727 sec ( 33.7%)
T(i,j) pair energies      :    7.405 sec (  5.8%)
V-calculation             :    0.031 sec (  0.0%)
V**(-1/2)                 :    0.431 sec (  0.3%)
Gamma(ia|P)               :    0.000 sec (  0.0%)
Gamma-Trafo               :    0.000 sec (  0.0%)
D(virtual)                :    0.000 sec (  0.0%)
D(internal)               :    0.000 sec (  0.0%)
W(virtual)                :    0.000 sec (  0.0%)
W(internal)               :    0.000 sec (  0.0%)
L(virtual)                :    0.000 sec (  0.0%)
L(internal)               :    0.000 sec (  0.0%)
G(D)                      :    0.000 sec (  0.0%)
G(Z)                      :    0.000 sec (  0.0%)
Z-Vector Solution         :    0.000 sec (  0.0%)
3-Index Derivative        :    0.000 sec (  0.0%)
2-Index Derivative        :    0.000 sec (  0.0%)
Separable Gradient        :    0.000 sec (  0.0%)


---------------------------------------
MP2 TOTAL ENERGY:    -1274.316589045 Eh
---------------------------------------

Maximum memory used throughout the entire MP2-calculation: 306.2 MB

-------------------------   --------------------
FINAL SINGLE POINT ENERGY     -1274.316589045029
-------------------------   --------------------


                            ***************************************
                            *     ORCA property calculations      *
                            ***************************************


  WARNING: The energy has been calculated at the MP2 level but the densities
           used in the property calculations are still SCF densities
           MP2 response densities have not been calculated 
           use %mp2 Density relaxed end
           or  %mp2 Density unrelaxed end

                                    ---------------------
                                    Active property flags
                                    ---------------------
   (+) Dipole Moment


------------------------------------------------------------------------------
                       ORCA ELECTRIC PROPERTIES CALCULATION
------------------------------------------------------------------------------

Dipole Moment Calculation                       ... on
Quadrupole Moment Calculation                   ... off
Polarizability Calculation                      ... off
GBWName                                         ... CONFS/Conf394.orca.gbw
Electron density file                           ... CONFS/Conf394.orca.scfp
The origin for moment calculation is the CENTER OF MASS  = (32.827046, 31.385135 35.208832)

-------------
DIPOLE MOMENT
-------------
                                X             Y             Z
Electronic contribution:     10.05965       7.43490       6.07437
Nuclear contribution   :    -11.22364      -9.02044      -6.06584
                        -----------------------------------------
Total Dipole Moment    :     -1.16399      -1.58554       0.00854
                        -----------------------------------------
Magnitude (a.u.)       :      1.96695
Magnitude (Debye)      :      4.99958



--------------------
Rotational spectrum 
--------------------
 
Rotational constants in cm-1:     0.011752     0.010040     0.006608 
Rotational constants in MHz :   352.326445   300.977686   198.117697 

 Dipole components along the rotational axes: 
x,y,z [a.u.] :    -1.881839    -0.285712     0.495911 
x,y,z [Debye]:    -4.783254    -0.726222     1.260507 

 

Timings for individual modules:

Sum of individual times         ...     9278.494 sec (= 154.642 min)
GTO integral calculation        ...        4.409 sec (=   0.073 min)   0.0 %
SCF iterations                  ...     9146.374 sec (= 152.440 min)  98.6 %
MP2 module                      ...      127.710 sec (=   2.129 min)   1.4 %
                             ****ORCA TERMINATED NORMALLY****
TOTAL RUN TIME: 0 days 2 hours 34 minutes 40 seconds 295 msec
