
                                        *****************
                                        * O   R   C   A *
                                        *****************

                                            #,                                       
                                            ###                                      
                                            ####                                     
                                            #####                                    
                                            ######                                   
                                           ########,                                 
                                     ,,################,,,,,                         
                               ,,#################################,,                 
                          ,,##########################################,,             
                       ,#########################################, ''#####,          
                    ,#############################################,,   '####,        
                  ,##################################################,,,,####,       
                ,###########''''           ''''###############################       
              ,#####''   ,,,,##########,,,,          '''####'''          '####       
            ,##' ,,,,###########################,,,                        '##       
           ' ,,###''''                  '''############,,,                           
         ,,##''                                '''############,,,,        ,,,,,,###''
      ,#''                                            '''#######################'''  
     '                                                          ''''####''''         
             ,#######,   #######,   ,#######,      ##                                
            ,#'     '#,  ##    ##  ,#'     '#,    #''#        ######   ,####,        
            ##       ##  ##   ,#'  ##            #'  '#       #        #'  '#        
            ##       ##  #######   ##           ,######,      #####,   #    #        
            '#,     ,#'  ##    ##  '#,     ,#' ,#      #,         ##   #,  ,#        
             '#######'   ##     ##  '#######'  #'      '#     #####' # '####'        



                  #######################################################
                  #                        -***-                        #
                  #          Department of theory and spectroscopy      #
                  #    Directorship and core code : Frank Neese         #
                  #        Max Planck Institute fuer Kohlenforschung    #
                  #                Kaiser Wilhelm Platz 1               #
                  #                 D-45470 Muelheim/Ruhr               #
                  #                      Germany                        #
                  #                                                     #
                  #                  All rights reserved                #
                  #                        -***-                        #
                  #######################################################


                         Program Version 5.0.0 -  RELEASE  -
                                (SVN: $Rev: 19529$)
                ($Date: 2021-06-28 11:36:33 +0200 (Mo, 28 Jun 2021) $)


 With contributions from (in alphabetic order):
   Daniel Aravena         : Magnetic Suceptibility
   Michael Atanasov       : Ab Initio Ligand Field Theory (pilot matlab implementation)
   Alexander A. Auer      : GIAO ZORA, VPT2 properties, NMR spectrum
   Ute Becker             : Parallelization
   Giovanni Bistoni       : ED, misc. LED, open-shell LED, HFLD
   Martin Brehm           : Molecular dynamics
   Dmytro Bykov           : SCF Hessian
   Vijay G. Chilkuri      : MRCI spin determinant printing, contributions to CSF-ICE
   Dipayan Datta          : RHF DLPNO-CCSD density
   Achintya Kumar Dutta   : EOM-CC, STEOM-CC
   Dmitry Ganyushin       : Spin-Orbit,Spin-Spin,Magnetic field MRCI
   Miquel Garcia          : C-PCM Hessian, Gaussian charge scheme
   Yang Guo               : DLPNO-NEVPT2, F12-NEVPT2, CIM, IAO-localization
   Andreas Hansen         : Spin unrestricted coupled pair/coupled cluster methods
   Benjamin Helmich-Paris : MC-RPA, TRAH-SCF, COSX integrals
   Lee Huntington         : MR-EOM, pCC
   Robert Izsak           : Overlap fitted RIJCOSX, COSX-SCS-MP3, EOM
   Marcus Kettner         : VPT2
   Christian Kollmar      : KDIIS, OOCD, Brueckner-CCSD(T), CCSD density, CASPT2, CASPT2-K
   Simone Kossmann        : Meta GGA functionals, TD-DFT gradient, OOMP2, MP2 Hessian
   Martin Krupicka        : Initial AUTO-CI
   Lucas Lang             : DCDCAS
   Marvin Lechner         : AUTO-CI (C++ implementation), FIC-MRCC
   Dagmar Lenk            : GEPOL surface, SMD
   Dimitrios Liakos       : Extrapolation schemes; Compound Job, initial MDCI parallelization
   Dimitrios Manganas     : Further ROCIS development; embedding schemes
   Dimitrios Pantazis     : SARC Basis sets
   Anastasios Papadopoulos: AUTO-CI, single reference methods and gradients
   Taras Petrenko         : DFT Hessian,TD-DFT gradient, ASA, ECA, R-Raman, ABS, FL, XAS/XES, NRVS
   Peter Pinski           : DLPNO-MP2, DLPNO-MP2 Gradient
   Christoph Reimann      : Effective Core Potentials
   Marius Retegan         : Local ZFS, SOC
   Christoph Riplinger    : Optimizer, TS searches, QM/MM, DLPNO-CCSD(T), (RO)-DLPNO pert. Triples
   Tobias Risthaus        : Range-separated hybrids, TD-DFT gradient, RPA, STAB
   Michael Roemelt        : Original ROCIS implementation
   Masaaki Saitow         : Open-shell DLPNO-CCSD energy and density
   Barbara Sandhoefer     : DKH picture change effects
   Avijit Sen             : IP-ROCIS
   Kantharuban Sivalingam : CASSCF convergence, NEVPT2, FIC-MRCI
   Bernardo de Souza      : ESD, SOC TD-DFT
   Georgi Stoychev        : AutoAux, RI-MP2 NMR
   Willem Van den Heuvel  : Paramagnetic NMR
   Boris Wezisla          : Elementary symmetry handling
   Frank Wennmohs         : Technical directorship


 We gratefully acknowledge several colleagues who have allowed us to
 interface, adapt or use parts of their codes:
   Stefan Grimme, W. Hujo, H. Kruse, P. Pracht,  : VdW corrections, initial TS optimization,
                  C. Bannwarth, S. Ehlert          DFT functionals, gCP, sTDA/sTD-DF
   Ed Valeev, F. Pavosevic, A. Kumar             : LibInt (2-el integral package), F12 methods
   Garnet Chan, S. Sharma, J. Yang, R. Olivares  : DMRG
   Ulf Ekstrom                                   : XCFun DFT Library
   Mihaly Kallay                                 : mrcc  (arbitrary order and MRCC methods)
   Jiri Pittner, Ondrej Demel                    : Mk-CCSD
   Frank Weinhold                                : gennbo (NPA and NBO analysis)
   Christopher J. Cramer and Donald G. Truhlar   : smd solvation model
   Lars Goerigk                                  : TD-DFT with DH, B97 family of functionals
   V. Asgeirsson, H. Jonsson                     : NEB implementation
   FAccTs GmbH                                   : IRC, NEB, NEB-TS, DLPNO-Multilevel, CI-OPT
                                                   MM, QMMM, 2- and 3-layer-ONIOM, Crystal-QMMM,
                                                   LR-CPCM, SF, NACMEs, symmetry and pop. for TD-DFT,
                                                   nearIR, NL-DFT gradient (VV10), updates on ESD,
                                                   ML-optimized integration grids
   S Lehtola, MJT Oliveira, MAL Marques          : LibXC Library
   Liviu Ungur et al                             : ANISO software


 Your calculation uses the libint2 library for the computation of 2-el integrals
 For citations please refer to: http://libint.valeyev.net

 Your ORCA version has been built with support for libXC version: 5.1.0
 For citations please refer to: https://tddft.org/programs/libxc/

 This ORCA versions uses:
   CBLAS   interface :  Fast vector & matrix operations
   LAPACKE interface :  Fast linear algebra routines
   SCALAPACK package :  Parallel linear algebra routines
   Shared memory     :  Shared parallel matrices
   BLAS/LAPACK       :  OpenBLAS 0.3.15  USE64BITINT DYNAMIC_ARCH NO_AFFINITY Zen SINGLE_THREADED
        Core in use  :  Zen
   Copyright (c) 2011-2014, The OpenBLAS Project


================================================================================

----- Orbital basis set information -----
Your calculation utilizes the basis: cc-pVTZ 
       H, B-Ne : Obtained from the ccRepo (grant-hill.group.shef.ac.uk/ccrepo) Feb. 2017
                 T. H. Dunning, Jr., J. Chem. Phys. 90, 1007 (1989)
            He : Obtained from the ccRepo (grant-hill.group.shef.ac.uk/ccrepo) Feb. 2017
                 D. E. Woon, T. H. Dunning, Jr., J. Chem. Phys. 100, 2975 (1994)
  Li-Be, Na-Mg : Obtained from the ccRepo (grant-hill.group.shef.ac.uk/ccrepo) Feb. 2017
                 B. P. Prascher, D. E. Woon, K. A. Peterson, T. H. Dunning, Jr., A. K. Wilson, Theor. Chem. Acc. 128, 69 (2011)
         Al-Ar : Obtained from the ccRepo (grant-hill.group.shef.ac.uk/ccrepo) Feb. 2017
                 D. E. Woon, T. H. Dunning, Jr., J. Chem. Phys. 98, 1358 (1993)
            Ca : Obtained from the Peterson Research Group Website (tyr0.chem.wsu.edu/~kipeters) Feb. 2017
                 J. Koput, K. A. Peterson, J. Phys. Chem. 106, 9595 (2002)
         Sc-Zn : Obtained from the ccRepo (grant-hill.group.shef.ac.uk/ccrepo) Feb. 2017
                 N. B. Balabanov, K. A. Peterson, J. Chem. Phys. 123, 064107 (2005)
                 N. B. Balabanov, K. A. Peterson, J. Chem. Phys. 125, 074110 (2006)
         Ga-Kr : Obtained from the ccRepo (grant-hill.group.shef.ac.uk/ccrepo) Feb. 2017
                 A. K. Wilson, D. E. Woon, K. A. Peterson, T. H. Dunning, Jr., J. Chem. Phys. 110, 7667 (1999)
             Y : Obtained from the ccRepo (grant-hill.group.shef.ac.uk/ccrepo) Feb. 2017
                 K. A. Peterson, D. Figgen, M. Dolg, H. Stoll, J. Chem. Phys. 126, 124101 (2007)
        Ag, Au : Obtained from the Peterson Research Group Website (tyr0.chem.wsu.edu/~kipeters) Feb. 2017
                 K. A. Peterson, C. Puzzarini, Theor. Chem. Acc. 114, 283 (2005)

----- AuxC basis set information -----
Your calculation utilizes the auxiliary basis: cc-pVTZ/C 
  Obtained from the EMSL Basis Set Exchange (bse.pnl.gov) Feb. 2017
  H-He, B-F, Al-Ar, Ga-Kr : F. Weigend, A. Kohn, C. Hattig, J. Chem. Phys. 116, 3175 (2002)
             Li-Be, Na-Mg : C. Haettig, Phys. Chem. Chem. Phys. 7, 59 (2005)
                       Ne : C. Haettig, Phys. Chem. Chem. Phys. 7, 59 (2005)
                            F. Weigend, A. Kohn, C. Hattig, J. Chem. Phys. 116, 3175 (2002)
                    Sc-Zn : J. G. Hill, J. A. Platts, J. Chem. Phys. 128, 044104 (2008)

================================================================================
                                        WARNINGS
                       Please study these warnings very carefully!
================================================================================


WARNING: No MP2 level density has been requested!
         To caclulate MP2 level properties use
         %mp2 Density relaxed end
         or
         %mp2 Density unrelaxed end

WARNING: Post HF methods need fully converged wavefunctions
  ===> : Setting SCFConvForced true
         You can overwrite this default with %scf ConvForced false 


INFO   : the flag for use of the SHARK integral package has been found!

================================================================================
                                       INPUT FILE
================================================================================
NAME = CONFS/Conf283.orca
|  1> ! ri-mp2 cc-pvtz cc-pvtz/c TightSCF NoKeepInts
|  2> 
|  3> %scf
|  4>   MaxCore 4096
|  5> end
|  6> *xyz  0  1
|  7>     C       15.5049447   13.9388203   14.8789979
|  8>     C       15.0386590   14.8952288   15.9974280
|  9>     O       16.0054051   15.9461870   16.1976405
| 10>     C       17.2041654   15.7021279   16.8095878
| 11>     O       17.6324347   14.5740841   16.9888835
| 12>     C       17.7123812   16.8691668   17.6067627
| 13>     C       17.4094370   18.1691904   17.3532435
| 14>     C       16.5442905   18.7235760   16.2398598
| 15>     N       17.9892923   19.1809582   18.1257280
| 16>     C       18.9835852   18.9897073   19.0485072
| 17>     S       19.7077049   20.2577356   19.8253288
| 18>     N       19.3481036   17.6901012   19.2932938
| 19>     C       18.6462059   16.5044094   18.7667346
| 20>     C       17.8829296   15.7967483   19.8835689
| 21>     C       18.0998726   14.4302108   20.1397842
| 22>     C       17.3983531   13.7727921   21.1642819
| 23>     C       16.4705489   14.4872647   21.9410046
| 24>     C       16.2484196   15.8474587   21.6867982
| 25>     O       15.3485024   16.5386516   22.4309886
| 26>     C       16.9477964   16.4989006   20.6660316
| 27>     H       15.7716759   14.5002630   13.9752554
| 28>     H       14.7021416   13.2380555   14.6201990
| 29>     H       16.3740439   13.3460529   15.1879384
| 30>     H       14.0810338   15.3433049   15.7031211
| 31>     H       14.8797902   14.3372193   16.9303796
| 32>     H       16.7984343   18.2589062   15.2790170
| 33>     H       16.6625270   19.8064841   16.1124561
| 34>     H       15.4836808   18.5266631   16.4400420
| 35>     H       17.7350560   20.1416895   17.9604151
| 36>     H       20.0614983   17.5738496   20.0014156
| 37>     H       19.4080460   15.8127283   18.3789992
| 38>     H       18.8040932   13.8711900   19.5283776
| 39>     H       17.5713193   12.7139269   21.3477726
| 40>     H       15.9253311   13.9830622   22.7318251
| 41>     H       15.0023921   15.9325225   23.1029588
| 42>     H       16.7629043   17.5527623   20.4893732
| 43> *
| 44> 
| 45>                          ****END OF INPUT****
================================================================================

                       ****************************
                       * Single Point Calculation *
                       ****************************

---------------------------------
CARTESIAN COORDINATES (ANGSTROEM)
---------------------------------
  C     15.504945   13.938820   14.878998
  C     15.038659   14.895229   15.997428
  O     16.005405   15.946187   16.197640
  C     17.204165   15.702128   16.809588
  O     17.632435   14.574084   16.988884
  C     17.712381   16.869167   17.606763
  C     17.409437   18.169190   17.353243
  C     16.544290   18.723576   16.239860
  N     17.989292   19.180958   18.125728
  C     18.983585   18.989707   19.048507
  S     19.707705   20.257736   19.825329
  N     19.348104   17.690101   19.293294
  C     18.646206   16.504409   18.766735
  C     17.882930   15.796748   19.883569
  C     18.099873   14.430211   20.139784
  C     17.398353   13.772792   21.164282
  C     16.470549   14.487265   21.941005
  C     16.248420   15.847459   21.686798
  O     15.348502   16.538652   22.430989
  C     16.947796   16.498901   20.666032
  H     15.771676   14.500263   13.975255
  H     14.702142   13.238055   14.620199
  H     16.374044   13.346053   15.187938
  H     14.081034   15.343305   15.703121
  H     14.879790   14.337219   16.930380
  H     16.798434   18.258906   15.279017
  H     16.662527   19.806484   16.112456
  H     15.483681   18.526663   16.440042
  H     17.735056   20.141689   17.960415
  H     20.061498   17.573850   20.001416
  H     19.408046   15.812728   18.378999
  H     18.804093   13.871190   19.528378
  H     17.571319   12.713927   21.347773
  H     15.925331   13.983062   22.731825
  H     15.002392   15.932522   23.102959
  H     16.762904   17.552762   20.489373

----------------------------
CARTESIAN COORDINATES (A.U.)
----------------------------
  NO LB      ZA    FRAG     MASS         X           Y           Z
   0 C     6.0000    0    12.011   29.300099   26.340553   28.117231
   1 C     6.0000    0    12.011   28.418947   28.147903   30.230758
   2 O     8.0000    0    15.999   30.245832   30.133926   30.609105
   3 C     6.0000    0    12.011   32.511161   29.672721   31.765517
   4 O     8.0000    0    15.999   33.320473   27.541028   32.104337
   5 C     6.0000    0    12.011   33.471550   31.878105   33.271960
   6 C     6.0000    0    12.011   32.899068   34.334794   32.792878
   7 C     6.0000    0    12.011   31.264178   35.382431   30.688887
   8 N     7.0000    0    14.007   33.994836   36.246758   34.252662
   9 C     6.0000    0    12.011   35.873777   35.885346   35.996462
  10 S    16.0000    0    32.060   37.242165   38.281572   37.464442
  11 N     7.0000    0    14.007   36.562617   33.429447   36.459042
  12 C     6.0000    0    12.011   35.236223   31.188814   35.463989
  13 C     6.0000    0    12.011   33.793839   29.851528   37.574500
  14 C     6.0000    0    12.011   34.203802   27.269146   38.058677
  15 C     6.0000    0    12.011   32.878123   26.026805   39.994697
  16 C     6.0000    0    12.011   31.124827   27.376963   41.462490
  17 C     6.0000    0    12.011   30.705063   29.947357   40.982109
  18 O     8.0000    0    15.999   29.004466   31.253522   42.388425
  19 C     6.0000    0    12.011   32.026694   31.178404   39.053140
  20 H     1.0000    0     1.008   29.804148   27.401526   26.409405
  21 H     1.0000    0     1.008   27.783021   25.016299   27.628172
  22 H     1.0000    0     1.008   30.942459   25.220385   28.701044
  23 H     1.0000    0     1.008   26.609298   28.994644   29.674598
  24 H     1.0000    0     1.008   28.118728   27.093418   31.993781
  25 H     1.0000    0     1.008   31.744440   34.504332   28.873158
  26 H     1.0000    0     1.008   31.487613   37.428831   30.448129
  27 H     1.0000    0     1.008   29.259916   35.010319   31.067177
  28 H     1.0000    0     1.008   33.514399   38.062277   33.940266
  29 H     1.0000    0     1.008   37.910738   33.209763   37.797198
  30 H     1.0000    0     1.008   36.675892   29.881726   34.731275
  31 H     1.0000    0     1.008   35.534586   26.212750   36.903286
  32 H     1.0000    0     1.008   33.204981   24.025840   40.341444
  33 H     1.0000    0     1.008   30.094514   26.424158   42.956924
  34 H     1.0000    0     1.008   28.350412   30.108104   43.658265
  35 H     1.0000    0     1.008   31.677298   33.169914   38.719304

--------------------------------
INTERNAL COORDINATES (ANGSTROEM)
--------------------------------
 C      0   0   0     0.000000000000     0.00000000     0.00000000
 C      1   0   0     1.543705108330     0.00000000     0.00000000
 O      2   1   0     1.441941817539   110.46568113     0.00000000
 C      3   2   1     1.367870826915   121.30768544   286.90910013
 O      4   3   2     1.219854235587   122.57662971    14.19464731
 C      4   3   2     1.501915748194   113.28822584   212.55634725
 C      6   4   3     1.358715766317   124.67959859   333.25515707
 C      7   6   4     1.515072646237   127.91872948   358.88201611
 N      7   6   4     1.398798967970   119.77515176   182.89736116
 C      9   7   6     1.369933111394   124.88163889     8.01394131
 S     10   9   7     1.653994228453   121.80897113   174.52362589
 N     10   9   7     1.371776278639   116.44411858   354.59042003
 C     12  10   9     1.475055936891   124.84741172   352.22852640
 C     13  12  10     1.526660995851   110.44825801   252.03207898
 C     14  13  12     1.407172798241   120.41570691   234.83391295
 C     15  14  13     1.404964232034   120.67749433   180.13904503
 C     16  15  14     1.405201011380   119.65834192     0.00000000
 C     17  16  15     1.401459966376   119.85898412     0.18486427
 O     18  17  16     1.356988556812   119.99978717   179.68963583
 C     18  17  16     1.398380816920   120.34945704   359.84013546
 H      1   2   3     1.096865508959   110.68772126   308.46731340
 H      1   2   3     1.096604300981   110.22877730   188.92488467
 H      1   2   3     1.096426396291   111.73023360    69.41655531
 H      2   1   3     1.097467432981   108.79776437   119.54505542
 H      2   1   3     1.098641245196   110.13580058   237.73329096
 H      8   7   6     1.097144466523   110.87490645   314.04516423
 H      8   7   6     1.096768674676   112.64962620   194.23364244
 H      8   7   6     1.097151101315   110.62518615    73.74178782
 H      9   7   6     1.007456739490   119.63917612   182.44580397
 H     12  10   9     1.011870997769   114.90192380   182.01613488
 H     13  12  10     1.099618944216   107.56697021   134.11662621
 H     15  14  13     1.087312714365   119.78525996   359.04087986
 H     16  15  14     1.088476759100   119.91908803   179.62257259
 H     17  16  15     1.084840851767   119.89827945   179.88344439
 H     19  18  17     0.968880165614   107.37376940     2.60975176
 H     20  18  17     1.084443526266   119.10159226   180.23623228

---------------------------
INTERNAL COORDINATES (A.U.)
---------------------------
 C      0   0   0     0.000000000000     0.00000000     0.00000000
 C      1   0   0     2.917179886278     0.00000000     0.00000000
 O      2   1   0     2.724875136198   110.46568113     0.00000000
 C      3   2   1     2.584901249450   121.30768544   286.90910013
 O      4   3   2     2.305190428563   122.57662971    14.19464731
 C      4   3   2     2.838209440310   113.28822584   212.55634725
 C      6   4   3     2.567600692181   124.67959859   333.25515707
 C      7   6   4     2.863072374383   127.91872948   358.88201611
 N      7   6   4     2.643346965876   119.77515176   182.89736116
 C      9   7   6     2.588798402325   124.88163889     8.01394131
 S     10   9   7     3.125596118862   121.80897113   174.52362589
 N     10   9   7     2.592281483636   116.44411858   354.59042003
 C     12  10   9     2.787451752938   124.84741172   352.22852640
 C     13  12  10     2.884971181497   110.44825801   252.03207898
 C     14  13  12     2.659171211779   120.41570691   234.83391295
 C     15  14  13     2.654997626499   120.67749433   180.13904503
 C     16  15  14     2.655445074618   119.65834192     0.00000000
 C     17  16  15     2.648375524106   119.85898412     0.18486427
 O     18  17  16     2.564336739240   119.99978717   179.68963583
 C     18  17  16     2.642556774908   120.34945704   359.84013546
 H      1   2   3     2.072775417676   110.68772126   308.46731340
 H      1   2   3     2.072281806134   110.22877730   188.92488467
 H      1   2   3     2.071945614992   111.73023360    69.41655531
 H      2   1   3     2.073912889232   108.79776437   119.54505542
 H      2   1   3     2.076131072851   110.13580058   237.73329096
 H      8   7   6     2.073302571076   110.87490645   314.04516423
 H      8   7   6     2.072592427402   112.64962620   194.23364244
 H      8   7   6     2.073315109016   110.62518615    73.74178782
 H      9   7   6     1.903817329409   119.63917612   182.44580397
 H     12  10   9     1.912159068641   114.90192380   182.01613488
 H     13  12  10     2.077978656240   107.56697021   134.11662621
 H     15  14  13     2.054723252081   119.78525996   359.04087986
 H     16  15  14     2.056922977836   119.91908803   179.62257259
 H     17  16  15     2.050052108730   119.89827945   179.88344439
 H     19  18  17     1.830918169599   107.37376940     2.60975176
 H     20  18  17     2.049301272346   119.10159226   180.23623228

---------------------
BASIS SET INFORMATION
---------------------
There are 5 groups of distinct atoms

 Group   1 Type C   : 18s5p2d1f contracted to 4s3p2d1f pattern {8811/311/11/1}
 Group   2 Type O   : 18s5p2d1f contracted to 4s3p2d1f pattern {8811/311/11/1}
 Group   3 Type N   : 18s5p2d1f contracted to 4s3p2d1f pattern {8811/311/11/1}
 Group   4 Type S   : 41s16p2d1f contracted to 5s4p2d1f pattern {13131311/7711/11/1}
 Group   5 Type H   : 5s2p1d contracted to 3s2p1d pattern {311/11/1}

Atom   0C    basis set group =>   1
Atom   1C    basis set group =>   1
Atom   2O    basis set group =>   2
Atom   3C    basis set group =>   1
Atom   4O    basis set group =>   2
Atom   5C    basis set group =>   1
Atom   6C    basis set group =>   1
Atom   7C    basis set group =>   1
Atom   8N    basis set group =>   3
Atom   9C    basis set group =>   1
Atom  10S    basis set group =>   4
Atom  11N    basis set group =>   3
Atom  12C    basis set group =>   1
Atom  13C    basis set group =>   1
Atom  14C    basis set group =>   1
Atom  15C    basis set group =>   1
Atom  16C    basis set group =>   1
Atom  17C    basis set group =>   1
Atom  18O    basis set group =>   2
Atom  19C    basis set group =>   1
Atom  20H    basis set group =>   5
Atom  21H    basis set group =>   5
Atom  22H    basis set group =>   5
Atom  23H    basis set group =>   5
Atom  24H    basis set group =>   5
Atom  25H    basis set group =>   5
Atom  26H    basis set group =>   5
Atom  27H    basis set group =>   5
Atom  28H    basis set group =>   5
Atom  29H    basis set group =>   5
Atom  30H    basis set group =>   5
Atom  31H    basis set group =>   5
Atom  32H    basis set group =>   5
Atom  33H    basis set group =>   5
Atom  34H    basis set group =>   5
Atom  35H    basis set group =>   5
---------------------------------
AUXILIARY/C BASIS SET INFORMATION
---------------------------------
There are 5 groups of distinct atoms

 Group   1 Type C   : 8s6p5d3f1g contracted to 8s6p5d3f1g pattern {11111111/111111/11111/111/1}
 Group   2 Type O   : 8s6p5d3f1g contracted to 8s6p5d3f1g pattern {11111111/111111/11111/111/1}
 Group   3 Type N   : 8s6p5d3f1g contracted to 8s6p5d3f1g pattern {11111111/111111/11111/111/1}
 Group   4 Type S   : 10s8p7d5f2g contracted to 10s8p7d5f2g pattern {1111111111/11111111/1111111/11111/11}
 Group   5 Type H   : 4s3p2d1f contracted to 4s3p2d1f pattern {1111/111/11/1}

Atom   0C    basis set group =>   1
Atom   1C    basis set group =>   1
Atom   2O    basis set group =>   2
Atom   3C    basis set group =>   1
Atom   4O    basis set group =>   2
Atom   5C    basis set group =>   1
Atom   6C    basis set group =>   1
Atom   7C    basis set group =>   1
Atom   8N    basis set group =>   3
Atom   9C    basis set group =>   1
Atom  10S    basis set group =>   4
Atom  11N    basis set group =>   3
Atom  12C    basis set group =>   1
Atom  13C    basis set group =>   1
Atom  14C    basis set group =>   1
Atom  15C    basis set group =>   1
Atom  16C    basis set group =>   1
Atom  17C    basis set group =>   1
Atom  18O    basis set group =>   2
Atom  19C    basis set group =>   1
Atom  20H    basis set group =>   5
Atom  21H    basis set group =>   5
Atom  22H    basis set group =>   5
Atom  23H    basis set group =>   5
Atom  24H    basis set group =>   5
Atom  25H    basis set group =>   5
Atom  26H    basis set group =>   5
Atom  27H    basis set group =>   5
Atom  28H    basis set group =>   5
Atom  29H    basis set group =>   5
Atom  30H    basis set group =>   5
Atom  31H    basis set group =>   5
Atom  32H    basis set group =>   5
Atom  33H    basis set group =>   5
Atom  34H    basis set group =>   5
Atom  35H    basis set group =>   5
------------------------------------------------------------------------------
                           ORCA GTO INTEGRAL CALCULATION
------------------------------------------------------------------------------
------------------------------------------------------------------------------
                   ___                                                        
                  /   \      - P O W E R E D   B Y -                         
                 /     \                                                     
                 |  |  |   _    _      __       _____    __    __             
                 |  |  |  | |  | |    /  \     |  _  \  |  |  /  |          
                  \  \/   | |  | |   /    \    | | | |  |  | /  /          
                 / \  \   | |__| |  /  /\  \   | |_| |  |  |/  /          
                |  |  |   |  __  | /  /__\  \  |    /   |      \           
                |  |  |   | |  | | |   __   |  |    \   |  |\   \          
                \     /   | |  | | |  |  |  |  | |\  \  |  | \   \       
                 \___/    |_|  |_| |__|  |__|  |_| \__\ |__|  \__/        
                                                                              
                      - O R C A' S   B I G   F R I E N D -                    
                                      &                                       
                       - I N T E G R A L  F E E D E R -                       
                                                                              
 v1 FN, 2020, v2 2021                                                         
------------------------------------------------------------------------------


Reading SHARK input file CONFS/Conf283.orca.SHARKINP.tmp ... ok
----------------------
SHARK INTEGRAL PACKAGE
----------------------

Number of atoms                             ...     36
Number of basis functions                   ...    828
Number of shells                            ...    298
Maximum angular momentum                    ...      3
Integral batch strategy                     ... SHARK/LIBINT Hybrid
RI-J (if used) integral strategy            ... SPLIT-RIJ (Revised 2003 algorithm where possible)
Printlevel                                  ...      1
Contraction scheme used                     ... SEGMENTED contraction
Coulomb Range Separation                    ... NOT USED
Exchange Range Separation                   ... NOT USED
Finite Nucleus Model                        ... NOT USED
Auxiliary Coulomb fitting basis             ... NOT available
Auxiliary J/K fitting basis                 ... NOT available
Auxiliary Correlation fitting basis         ... AVAILABLE
   # of basis functions in Aux-C            ...   2141
   # of shells in Aux-C                     ...    629
   Maximum angular momentum in Aux-C        ...      4
Auxiliary 'external' fitting basis          ... NOT available
Integral threshold                          ...     2.500000e-11
Primitive cut-off                           ...     2.500000e-12
Primitive pair pre-selection threshold      ...     2.500000e-12

Calculating pre-screening integrals         ... done (  0.5 sec) Dimension = 298
Organizing shell pair data                  ... done (  1.3 sec)
Shell pair information
Total number of shell pairs                 ...     44551
Shell pairs after pre-screening             ...     32391
Total number of primitive shell pairs       ...    234348
Primitive shell pairs kept                  ...     93387
          la=0 lb=0:   6487 shell pairs
          la=1 lb=0:   9020 shell pairs
          la=1 lb=1:   3187 shell pairs
          la=2 lb=0:   5162 shell pairs
          la=2 lb=1:   3541 shell pairs
          la=2 lb=2:   1001 shell pairs
          la=3 lb=0:   1866 shell pairs
          la=3 lb=1:   1276 shell pairs
          la=3 lb=2:    710 shell pairs
          la=3 lb=3:    141 shell pairs

Calculating one electron integrals          ... done (  0.3 sec)
Calculating RI/C V-Matrix + Cholesky decomp.... done (  0.9 sec)
Calculating Nuclear repulsion               ... done (  0.1 sec) ENN=   1691.041869136738 Eh

SHARK setup successfully completed in   3.4 seconds

Maximum memory used throughout the entire GTOINT-calculation: 479.9 MB
-------------------------------------------------------------------------------
                                 ORCA SCF
-------------------------------------------------------------------------------

------------
SCF SETTINGS
------------
Hamiltonian:
 Ab initio Hamiltonian  Method          .... Hartree-Fock(GTOs)


General Settings:
 Integral files         IntName         .... CONFS/Conf283.orca
 Hartree-Fock type      HFTyp           .... RHF
 Total Charge           Charge          ....    0
 Multiplicity           Mult            ....    1
 Number of Electrons    NEL             ....  154
 Basis Dimension        Dim             ....  828
 Nuclear Repulsion      ENuc            ....   1691.0418691367 Eh

Convergence Acceleration:
 DIIS                   CNVDIIS         .... on
   Start iteration      DIISMaxIt       ....    12
   Startup error        DIISStart       ....  0.200000
   # of expansion vecs  DIISMaxEq       ....     5
   Bias factor          DIISBfac        ....   1.050
   Max. coefficient     DIISMaxC        ....  10.000
 Trust-Rad. Augm. Hess. CNVTRAH         .... auto
   Auto Start mean grad. ratio tolernc. ....  1.125000
   Auto Start start iteration           ....    20
   Auto Start num. interpolation iter.  ....    10
   Max. Number of Micro iterations      ....    16
   Max. Number of Macro iterations      .... Maxiter - #DIIS iter
   Number of Davidson start vectors     ....     2
   Converg. threshold I  (grad. norm)   ....   1.000e-05
   Converg. threshold II (energy diff.) ....   1.000e-08
   Grad. Scal. Fac. for Micro threshold ....   0.100
   Minimum threshold for Micro iter.    ....   0.010
   NR start threshold (gradient norm)   ....   0.001
   Initial trust radius                 ....   0.400
   Minimum AH scaling param. (alpha)    ....   1.000
   Maximum AH scaling param. (alpha)    .... 1000.000
   Orbital update algorithm             .... Taylor
   White noise on init. David. guess    .... on
   Maximum white noise                  ....   0.010
   Quad. conv. algorithm                .... NR
 SOSCF                  CNVSOSCF        .... on
   Start iteration      SOSCFMaxIt      ....   150
   Startup grad/error   SOSCFStart      ....  0.003300
 Level Shifting         CNVShift        .... on
   Level shift para.    LevelShift      ....    0.2500
   Turn off err/grad.   ShiftErr        ....    0.0010
 Zerner damping         CNVZerner       .... off
 Static damping         CNVDamp         .... on
   Fraction old density DampFac         ....    0.7000
   Max. Damping (<1)    DampMax         ....    0.9800
   Min. Damping (>=0)   DampMin         ....    0.0000
   Turn off err/grad.   DampErr         ....    0.1000
 Fernandez-Rico         CNVRico         .... off

SCF Procedure:
 Maximum # iterations   MaxIter         ....   125
 SCF integral mode      SCFMode         .... Direct
   Integral package                     .... SHARK and LIBINT hybrid scheme
 Reset frequency        DirectResetFreq ....    20
 Integral Threshold     Thresh          ....  2.500e-11 Eh
 Primitive CutOff       TCut            ....  2.500e-12 Eh

Convergence Tolerance:
 Convergence Check Mode ConvCheckMode   .... Total+1el-Energy
 Convergence forced     ConvForced      .... 1
 Energy Change          TolE            ....  1.000e-08 Eh
 1-El. energy change                    ....  1.000e-05 Eh
 Orbital Gradient       TolG            ....  1.000e-05
 Orbital Rotation angle TolX            ....  1.000e-05
 DIIS Error             TolErr          ....  5.000e-07


Diagonalization of the overlap matrix:
Smallest eigenvalue                        ... 3.494e-05
Time for diagonalization                   ...    0.113 sec
Threshold for overlap eigenvalues          ... 1.000e-08
Number of eigenvalues below threshold      ... 0
Time for construction of square roots      ...    0.086 sec
Total time needed                          ...    0.200 sec

Time for model grid setup =    1.323 sec

------------------------------
INITIAL GUESS: MODEL POTENTIAL
------------------------------
Loading Hartree-Fock densities                     ... done
Calculating cut-offs                               ... done
Initializing the effective Hamiltonian             ... done
Setting up the integral package (SHARK)            ... done
Starting the Coulomb interaction                   ... done (   3.8 sec)
Reading the grid                                   ... done
Mapping shells                                     ... done
Starting the XC term evaluation                    ... done (   1.1 sec)
Transforming the Hamiltonian                       ... done (   0.1 sec)
Diagonalizing the Hamiltonian                      ... done (   0.1 sec)
Back transforming the eigenvectors                 ... done (   0.0 sec)
Now organizing SCF variables                       ... done
                      ------------------
                      INITIAL GUESS DONE (   6.6 sec)
                      ------------------
--------------
SCF ITERATIONS
--------------
ITER       Energy         Delta-E        Max-DP      RMS-DP      [F,P]     Damp
               ***  Starting incremental Fock matrix formation  ***
  0  -1270.0086135629   0.000000000000 0.04930414  0.00043064  0.3092694 0.7000
  1  -1270.2774789240  -0.268865361079 0.03607297  0.00034483  0.1813840 0.7000
                               ***Turning on DIIS***
  2  -1270.4450500366  -0.167571112562 0.02583264  0.00023172  0.1097309 0.7000
  3  -1272.6048283802  -2.159778343652 0.06312773  0.00050670  0.0828754 0.0000
  4  -1270.7526042660   1.852224114166 0.00888612  0.00009588  0.0070518 0.0000
  5  -1270.8178204931  -0.065216227019 0.00406060  0.00005085  0.0036800 0.0000
                      *** Initiating the SOSCF procedure ***
                           *** Shutting down DIIS ***
                      *** Re-Reading the Fockian *** 
                      *** Removing any level shift *** 
ITER      Energy       Delta-E        Grad      Rot      Max-DP    RMS-DP
  6  -1270.79470345   0.0231170383  0.001681  0.001681  0.001807  0.000026
               *** Restarting incremental Fock matrix formation ***
  7  -1270.80896146  -0.0142580006  0.000698  0.001616  0.001271  0.000015
  8  -1270.80900786  -0.0000464012  0.000440  0.001880  0.001395  0.000016
  9  -1270.80902524  -0.0000173802  0.000183  0.000303  0.000362  0.000004
 10  -1270.80902739  -0.0000021538  0.000045  0.000120  0.000113  0.000001
 11  -1270.80902760  -0.0000002063  0.000019  0.000107  0.000058  0.000001
 12  -1270.80902766  -0.0000000595  0.000009  0.000029  0.000028  0.000000
                  ***Gradient check signals convergence***
              ***Rediagonalizing the Fockian in SOSCF/NRSCF***

               *****************************************************
               *                     SUCCESS                       *
               *           SCF CONVERGED AFTER  13 CYCLES          *
               *****************************************************


----------------
TOTAL SCF ENERGY
----------------

Total Energy       :        -1270.80902765 Eh          -34580.47168 eV

Components:
Nuclear Repulsion  :         1691.04186914 Eh           46015.58865 eV
Electronic Energy  :        -2961.85089679 Eh          -80596.06033 eV
One Electron Energy:        -5103.58367646 Eh         -138875.57213 eV
Two Electron Energy:         2141.73277967 Eh           58279.51181 eV

Virial components:
Potential Energy   :        -2539.74544759 Eh          -69109.98711 eV
Kinetic Energy     :         1268.93641994 Eh           34529.51543 eV
Virial Ratio       :            2.00147573


---------------
SCF CONVERGENCE
---------------

  Last Energy change         ...    2.3051e-09  Tolerance :   1.0000e-08
  Last MAX-Density change    ...    5.2794e-06  Tolerance :   1.0000e-07
  Last RMS-Density change    ...    9.1533e-08  Tolerance :   5.0000e-09
  Last Orbital Gradient      ...    2.3117e-06  Tolerance :   1.0000e-05
  Last Orbital Rotation      ...    6.8291e-06  Tolerance :   1.0000e-05

             **** THE GBW FILE WAS UPDATED (CONFS/Conf283.orca.gbw) ****
             **** DENSITY CONFS/Conf283.orca.scfp WAS UPDATED ****
             **** ENERGY FILE WAS UPDATED (CONFS/Conf283.orca.en.tmp) ****
             **** THE GBW FILE WAS UPDATED (CONFS/Conf283.orca.gbw) ****
             **** DENSITY CONFS/Conf283.orca.scfp WAS UPDATED ****
----------------
ORBITAL ENERGIES
----------------

  NO   OCC          E(Eh)            E(eV) 
   0   2.0000     -91.887620     -2500.3892 
   1   2.0000     -20.600077      -560.5566 
   2   2.0000     -20.591812      -560.3317 
   3   2.0000     -20.548579      -559.1553 
   4   2.0000     -15.627510      -425.2462 
   5   2.0000     -15.606508      -424.6747 
   6   2.0000     -11.397372      -310.1383 
   7   2.0000     -11.382623      -309.7369 
   8   2.0000     -11.334313      -308.4223 
   9   2.0000     -11.307710      -307.6984 
  10   2.0000     -11.305927      -307.6499 
  11   2.0000     -11.302338      -307.5523 
  12   2.0000     -11.259974      -306.3995 
  13   2.0000     -11.258505      -306.3595 
  14   2.0000     -11.253660      -306.2277 
  15   2.0000     -11.247968      -306.0728 
  16   2.0000     -11.237557      -305.7895 
  17   2.0000     -11.233538      -305.6801 
  18   2.0000     -11.230741      -305.6040 
  19   2.0000     -11.222880      -305.3901 
  20   2.0000      -8.892689      -241.9824 
  21   2.0000      -6.574268      -178.8949 
  22   2.0000      -6.572260      -178.8403 
  23   2.0000      -6.571676      -178.8244 
  24   2.0000      -1.452448       -39.5231 
  25   2.0000      -1.411548       -38.4102 
  26   2.0000      -1.358144       -36.9570 
  27   2.0000      -1.338654       -36.4266 
  28   2.0000      -1.236482       -33.6464 
  29   2.0000      -1.152210       -31.3532 
  30   2.0000      -1.119254       -30.4565 
  31   2.0000      -1.041882       -28.3511 
  32   2.0000      -1.033395       -28.1201 
  33   2.0000      -1.009595       -27.4725 
  34   2.0000      -0.996702       -27.1217 
  35   2.0000      -0.982174       -26.7263 
  36   2.0000      -0.921163       -25.0661 
  37   2.0000      -0.892241       -24.2791 
  38   2.0000      -0.847322       -23.0568 
  39   2.0000      -0.835611       -22.7381 
  40   2.0000      -0.828112       -22.5341 
  41   2.0000      -0.818669       -22.2771 
  42   2.0000      -0.750800       -20.4303 
  43   2.0000      -0.732876       -19.9426 
  44   2.0000      -0.725011       -19.7286 
  45   2.0000      -0.690937       -18.8014 
  46   2.0000      -0.684876       -18.6364 
  47   2.0000      -0.680053       -18.5052 
  48   2.0000      -0.670950       -18.2575 
  49   2.0000      -0.661828       -18.0093 
  50   2.0000      -0.645616       -17.5681 
  51   2.0000      -0.641132       -17.4461 
  52   2.0000      -0.631962       -17.1966 
  53   2.0000      -0.607438       -16.5292 
  54   2.0000      -0.599899       -16.3241 
  55   2.0000      -0.599101       -16.3024 
  56   2.0000      -0.594906       -16.1882 
  57   2.0000      -0.586214       -15.9517 
  58   2.0000      -0.573037       -15.5931 
  59   2.0000      -0.567656       -15.4467 
  60   2.0000      -0.560051       -15.2398 
  61   2.0000      -0.545549       -14.8452 
  62   2.0000      -0.535693       -14.5769 
  63   2.0000      -0.520212       -14.1557 
  64   2.0000      -0.517151       -14.0724 
  65   2.0000      -0.510857       -13.9011 
  66   2.0000      -0.501720       -13.6525 
  67   2.0000      -0.495440       -13.4816 
  68   2.0000      -0.479792       -13.0558 
  69   2.0000      -0.461317       -12.5531 
  70   2.0000      -0.457366       -12.4456 
  71   2.0000      -0.452383       -12.3100 
  72   2.0000      -0.353414        -9.6169 
  73   2.0000      -0.344053        -9.3622 
  74   2.0000      -0.326805        -8.8928 
  75   2.0000      -0.315394        -8.5823 
  76   2.0000      -0.313887        -8.5413 
  77   0.0000       0.076239         2.0746 
  78   0.0000       0.112325         3.0565 
  79   0.0000       0.121560         3.3078 
  80   0.0000       0.135893         3.6978 
  81   0.0000       0.140823         3.8320 
  82   0.0000       0.146274         3.9803 
  83   0.0000       0.152846         4.1591 
  84   0.0000       0.161074         4.3830 
  85   0.0000       0.163314         4.4440 
  86   0.0000       0.167669         4.5625 
  87   0.0000       0.175339         4.7712 
  88   0.0000       0.192528         5.2390 
  89   0.0000       0.192705         5.2438 
  90   0.0000       0.198570         5.4034 
  91   0.0000       0.210594         5.7306 
  92   0.0000       0.212957         5.7949 
  93   0.0000       0.217273         5.9123 
  94   0.0000       0.225876         6.1464 
  95   0.0000       0.235834         6.4174 
  96   0.0000       0.241997         6.5851 
  97   0.0000       0.247384         6.7317 
  98   0.0000       0.258330         7.0295 
  99   0.0000       0.275732         7.5030 
 100   0.0000       0.290169         7.8959 
 101   0.0000       0.307685         8.3725 
 102   0.0000       0.309797         8.4300 
 103   0.0000       0.318988         8.6801 
 104   0.0000       0.328693         8.9442 
 105   0.0000       0.333043         9.0625 
 106   0.0000       0.341312         9.2876 
 107   0.0000       0.352740         9.5985 
 108   0.0000       0.357022         9.7151 
 109   0.0000       0.369337        10.0502 
 110   0.0000       0.376519        10.2456 
 111   0.0000       0.380093        10.3429 
 112   0.0000       0.384914        10.4741 
 113   0.0000       0.393254        10.7010 
 114   0.0000       0.399876        10.8812 
 115   0.0000       0.411935        11.2093 
 116   0.0000       0.424185        11.5427 
 117   0.0000       0.426409        11.6032 
 118   0.0000       0.433419        11.7939 
 119   0.0000       0.436005        11.8643 
 120   0.0000       0.443784        12.0760 
 121   0.0000       0.450555        12.2602 
 122   0.0000       0.451991        12.2993 
 123   0.0000       0.458358        12.4726 
 124   0.0000       0.461362        12.5543 
 125   0.0000       0.467108        12.7107 
 126   0.0000       0.475591        12.9415 
 127   0.0000       0.489130        13.3099 
 128   0.0000       0.494312        13.4509 
 129   0.0000       0.496565        13.5122 
 130   0.0000       0.500370        13.6158 
 131   0.0000       0.505653        13.7595 
 132   0.0000       0.514457        13.9991 
 133   0.0000       0.517434        14.0801 
 134   0.0000       0.525009        14.2862 
 135   0.0000       0.531107        14.4521 
 136   0.0000       0.533785        14.5250 
 137   0.0000       0.540513        14.7081 
 138   0.0000       0.544352        14.8126 
 139   0.0000       0.548011        14.9121 
 140   0.0000       0.554492        15.0885 
 141   0.0000       0.559881        15.2351 
 142   0.0000       0.569475        15.4962 
 143   0.0000       0.572881        15.5889 
 144   0.0000       0.575190        15.6517 
 145   0.0000       0.577833        15.7236 
 146   0.0000       0.582219        15.8430 
 147   0.0000       0.592818        16.1314 
 148   0.0000       0.598111        16.2754 
 149   0.0000       0.603410        16.4196 
 150   0.0000       0.605073        16.4649 
 151   0.0000       0.607995        16.5444 
 152   0.0000       0.608813        16.5666 
 153   0.0000       0.617668        16.8076 
 154   0.0000       0.618802        16.8384 
 155   0.0000       0.621138        16.9020 
 156   0.0000       0.625296        17.0152 
 157   0.0000       0.632918        17.2226 
 158   0.0000       0.635939        17.3048 
 159   0.0000       0.637452        17.3459 
 160   0.0000       0.642553        17.4847 
 161   0.0000       0.643410        17.5081 
 162   0.0000       0.654156        17.8005 
 163   0.0000       0.656058        17.8522 
 164   0.0000       0.665512        18.1095 
 165   0.0000       0.669197        18.2098 
 166   0.0000       0.674975        18.3670 
 167   0.0000       0.680023        18.5044 
 168   0.0000       0.684467        18.6253 
 169   0.0000       0.694157        18.8890 
 170   0.0000       0.701833        19.0979 
 171   0.0000       0.707448        19.2506 
 172   0.0000       0.710095        19.3227 
 173   0.0000       0.714303        19.4372 
 174   0.0000       0.722619        19.6635 
 175   0.0000       0.731160        19.8959 
 176   0.0000       0.738097        20.0846 
 177   0.0000       0.745264        20.2797 
 178   0.0000       0.747986        20.3537 
 179   0.0000       0.752895        20.4873 
 180   0.0000       0.755977        20.5712 
 181   0.0000       0.760130        20.6842 
 182   0.0000       0.765954        20.8427 
 183   0.0000       0.783160        21.3109 
 184   0.0000       0.788246        21.4493 
 185   0.0000       0.805056        21.9067 
 186   0.0000       0.813642        22.1403 
 187   0.0000       0.824297        22.4303 
 188   0.0000       0.826815        22.4988 
 189   0.0000       0.835499        22.7351 
 190   0.0000       0.844399        22.9773 
 191   0.0000       0.849491        23.1158 
 192   0.0000       0.854837        23.2613 
 193   0.0000       0.858912        23.3722 
 194   0.0000       0.874206        23.7884 
 195   0.0000       0.879971        23.9452 
 196   0.0000       0.888339        24.1729 
 197   0.0000       0.896048        24.3827 
 198   0.0000       0.899419        24.4744 
 199   0.0000       0.906846        24.6765 
 200   0.0000       0.913719        24.8636 
 201   0.0000       0.920227        25.0407 
 202   0.0000       0.930702        25.3257 
 203   0.0000       0.936665        25.4880 
 204   0.0000       0.941191        25.6111 
 205   0.0000       0.947332        25.7782 
 206   0.0000       0.951949        25.9038 
 207   0.0000       0.970525        26.4093 
 208   0.0000       0.975592        26.5472 
 209   0.0000       0.978644        26.6303 
 210   0.0000       0.983691        26.7676 
 211   0.0000       0.995080        27.0775 
 212   0.0000       0.995785        27.0967 
 213   0.0000       1.004466        27.3329 
 214   0.0000       1.008652        27.4468 
 215   0.0000       1.013909        27.5899 
 216   0.0000       1.017891        27.6982 
 217   0.0000       1.026612        27.9355 
 218   0.0000       1.039450        28.2849 
 219   0.0000       1.043847        28.4045 
 220   0.0000       1.052750        28.6468 
 221   0.0000       1.060580        28.8599 
 222   0.0000       1.063030        28.9265 
 223   0.0000       1.082128        29.4462 
 224   0.0000       1.088213        29.6118 
 225   0.0000       1.090925        29.6856 
 226   0.0000       1.102563        30.0023 
 227   0.0000       1.109570        30.1929 
 228   0.0000       1.116134        30.3716 
 229   0.0000       1.120008        30.4770 
 230   0.0000       1.131036        30.7770 
 231   0.0000       1.137026        30.9401 
 232   0.0000       1.142732        31.0953 
 233   0.0000       1.153287        31.3825 
 234   0.0000       1.160220        31.5712 
 235   0.0000       1.166822        31.7508 
 236   0.0000       1.176467        32.0133 
 237   0.0000       1.181460        32.1492 
 238   0.0000       1.183054        32.1925 
 239   0.0000       1.184430        32.2300 
 240   0.0000       1.198204        32.6048 
 241   0.0000       1.200499        32.6672 
 242   0.0000       1.204559        32.7777 
 243   0.0000       1.211014        32.9534 
 244   0.0000       1.214985        33.0614 
 245   0.0000       1.224144        33.3107 
 246   0.0000       1.232752        33.5449 
 247   0.0000       1.238373        33.6979 
 248   0.0000       1.245071        33.8801 
 249   0.0000       1.252447        34.0808 
 250   0.0000       1.255551        34.1653 
 251   0.0000       1.264527        34.4095 
 252   0.0000       1.275169        34.6991 
 253   0.0000       1.279535        34.8179 
 254   0.0000       1.283387        34.9227 
 255   0.0000       1.297742        35.3134 
 256   0.0000       1.302913        35.4541 
 257   0.0000       1.313568        35.7440 
 258   0.0000       1.318497        35.8781 
 259   0.0000       1.329318        36.1726 
 260   0.0000       1.336969        36.3808 
 261   0.0000       1.337605        36.3981 
 262   0.0000       1.354120        36.8475 
 263   0.0000       1.358720        36.9726 
 264   0.0000       1.367155        37.2022 
 265   0.0000       1.376032        37.4437 
 266   0.0000       1.397645        38.0318 
 267   0.0000       1.404206        38.2104 
 268   0.0000       1.405034        38.2329 
 269   0.0000       1.415139        38.5079 
 270   0.0000       1.426326        38.8123 
 271   0.0000       1.429122        38.8884 
 272   0.0000       1.438035        39.1309 
 273   0.0000       1.445989        39.3474 
 274   0.0000       1.452749        39.5313 
 275   0.0000       1.458143        39.6781 
 276   0.0000       1.464882        39.8615 
 277   0.0000       1.477754        40.2117 
 278   0.0000       1.487250        40.4701 
 279   0.0000       1.488846        40.5135 
 280   0.0000       1.494224        40.6599 
 281   0.0000       1.499866        40.8134 
 282   0.0000       1.502692        40.8903 
 283   0.0000       1.509548        41.0769 
 284   0.0000       1.514141        41.2019 
 285   0.0000       1.521377        41.3988 
 286   0.0000       1.527989        41.5787 
 287   0.0000       1.539670        41.8966 
 288   0.0000       1.542310        41.9684 
 289   0.0000       1.553044        42.2605 
 290   0.0000       1.558910        42.4201 
 291   0.0000       1.560122        42.4531 
 292   0.0000       1.570783        42.7432 
 293   0.0000       1.578209        42.9453 
 294   0.0000       1.590287        43.2739 
 295   0.0000       1.595123        43.4055 
 296   0.0000       1.600149        43.5423 
 297   0.0000       1.608957        43.7819 
 298   0.0000       1.615664        43.9645 
 299   0.0000       1.617517        44.0149 
 300   0.0000       1.630704        44.3737 
 301   0.0000       1.639610        44.6160 
 302   0.0000       1.644604        44.7519 
 303   0.0000       1.649453        44.8839 
 304   0.0000       1.662101        45.2281 
 305   0.0000       1.669362        45.4256 
 306   0.0000       1.672396        45.5082 
 307   0.0000       1.690067        45.9891 
 308   0.0000       1.702107        46.3167 
 309   0.0000       1.708136        46.4807 
 310   0.0000       1.713446        46.6252 
 311   0.0000       1.722557        46.8732 
 312   0.0000       1.731050        47.1043 
 313   0.0000       1.738810        47.3154 
 314   0.0000       1.746694        47.5300 
 315   0.0000       1.757624        47.8274 
 316   0.0000       1.762181        47.9514 
 317   0.0000       1.773848        48.2689 
 318   0.0000       1.782943        48.5163 
 319   0.0000       1.788460        48.6665 
 320   0.0000       1.806904        49.1683 
 321   0.0000       1.818843        49.4932 
 322   0.0000       1.827806        49.7371 
 323   0.0000       1.841890        50.1204 
 324   0.0000       1.849926        50.3390 
 325   0.0000       1.857384        50.5420 
 326   0.0000       1.874493        51.0076 
 327   0.0000       1.879724        51.1499 
 328   0.0000       1.908100        51.9220 
 329   0.0000       1.912094        52.0307 
 330   0.0000       1.920505        52.2596 
 331   0.0000       1.932946        52.5981 
 332   0.0000       1.941509        52.8312 
 333   0.0000       1.957299        53.2608 
 334   0.0000       1.964236        53.4496 
 335   0.0000       1.976775        53.7908 
 336   0.0000       1.996248        54.3207 
 337   0.0000       1.996534        54.3284 
 338   0.0000       2.017744        54.9056 
 339   0.0000       2.025959        55.1292 
 340   0.0000       2.029295        55.2199 
 341   0.0000       2.036467        55.4151 
 342   0.0000       2.049725        55.7759 
 343   0.0000       2.052511        55.8517 
 344   0.0000       2.076288        56.4987 
 345   0.0000       2.100736        57.1639 
 346   0.0000       2.117308        57.6149 
 347   0.0000       2.128218        57.9118 
 348   0.0000       2.147264        58.4300 
 349   0.0000       2.158257        58.7292 
 350   0.0000       2.172652        59.1209 
 351   0.0000       2.201929        59.9175 
 352   0.0000       2.204838        59.9967 
 353   0.0000       2.224942        60.5437 
 354   0.0000       2.235247        60.8242 
 355   0.0000       2.247378        61.1543 
 356   0.0000       2.279020        62.0153 
 357   0.0000       2.289501        62.3005 
 358   0.0000       2.306562        62.7647 
 359   0.0000       2.310197        62.8637 
 360   0.0000       2.319279        63.1108 
 361   0.0000       2.324941        63.2649 
 362   0.0000       2.346401        63.8488 
 363   0.0000       2.356159        64.1143 
 364   0.0000       2.360078        64.2210 
 365   0.0000       2.377409        64.6926 
 366   0.0000       2.390450        65.0475 
 367   0.0000       2.400068        65.3092 
 368   0.0000       2.407081        65.5000 
 369   0.0000       2.424521        65.9746 
 370   0.0000       2.431875        66.1747 
 371   0.0000       2.447414        66.5975 
 372   0.0000       2.472275        67.2740 
 373   0.0000       2.474218        67.3269 
 374   0.0000       2.480810        67.5063 
 375   0.0000       2.507880        68.2429 
 376   0.0000       2.512065        68.3568 
 377   0.0000       2.521715        68.6194 
 378   0.0000       2.526310        68.7444 
 379   0.0000       2.550114        69.3921 
 380   0.0000       2.573820        70.0372 
 381   0.0000       2.579464        70.1908 
 382   0.0000       2.588310        70.4315 
 383   0.0000       2.606004        70.9130 
 384   0.0000       2.616865        71.2085 
 385   0.0000       2.625183        71.4349 
 386   0.0000       2.636120        71.7325 
 387   0.0000       2.645869        71.9977 
 388   0.0000       2.663010        72.4642 
 389   0.0000       2.668675        72.6184 
 390   0.0000       2.679090        72.9017 
 391   0.0000       2.684642        73.0528 
 392   0.0000       2.703475        73.5653 
 393   0.0000       2.706982        73.6607 
 394   0.0000       2.720048        74.0163 
 395   0.0000       2.729829        74.2824 
 396   0.0000       2.744400        74.6789 
 397   0.0000       2.746591        74.7385 
 398   0.0000       2.752276        74.8932 
 399   0.0000       2.763206        75.1907 
 400   0.0000       2.776015        75.5392 
 401   0.0000       2.788381        75.8757 
 402   0.0000       2.799841        76.1875 
 403   0.0000       2.806065        76.3569 
 404   0.0000       2.813677        76.5640 
 405   0.0000       2.835902        77.1688 
 406   0.0000       2.840684        77.2989 
 407   0.0000       2.846369        77.4536 
 408   0.0000       2.857039        77.7440 
 409   0.0000       2.862141        77.8828 
 410   0.0000       2.873581        78.1941 
 411   0.0000       2.876255        78.2669 
 412   0.0000       2.886648        78.5497 
 413   0.0000       2.894582        78.7656 
 414   0.0000       2.899749        78.9062 
 415   0.0000       2.909095        79.1605 
 416   0.0000       2.935417        79.8768 
 417   0.0000       2.941744        80.0489 
 418   0.0000       2.946563        80.1801 
 419   0.0000       2.952213        80.3338 
 420   0.0000       2.960304        80.5540 
 421   0.0000       2.972995        80.8993 
 422   0.0000       2.983132        81.1751 
 423   0.0000       2.993421        81.4551 
 424   0.0000       3.001016        81.6618 
 425   0.0000       3.005866        81.7938 
 426   0.0000       3.013235        81.9943 
 427   0.0000       3.028004        82.3962 
 428   0.0000       3.032992        82.5319 
 429   0.0000       3.037671        82.6592 
 430   0.0000       3.042645        82.7946 
 431   0.0000       3.055135        83.1344 
 432   0.0000       3.062742        83.3415 
 433   0.0000       3.070881        83.5629 
 434   0.0000       3.079930        83.8092 
 435   0.0000       3.083737        83.9127 
 436   0.0000       3.092785        84.1590 
 437   0.0000       3.099449        84.3403 
 438   0.0000       3.105373        84.5015 
 439   0.0000       3.110281        84.6350 
 440   0.0000       3.119560        84.8876 
 441   0.0000       3.122249        84.9607 
 442   0.0000       3.128524        85.1315 
 443   0.0000       3.133089        85.2557 
 444   0.0000       3.137962        85.3883 
 445   0.0000       3.146607        85.6235 
 446   0.0000       3.164312        86.1053 
 447   0.0000       3.167231        86.1847 
 448   0.0000       3.176989        86.4503 
 449   0.0000       3.184209        86.6467 
 450   0.0000       3.198285        87.0298 
 451   0.0000       3.202249        87.1376 
 452   0.0000       3.202791        87.1524 
 453   0.0000       3.214584        87.4733 
 454   0.0000       3.221819        87.6702 
 455   0.0000       3.231112        87.9230 
 456   0.0000       3.233447        87.9866 
 457   0.0000       3.246343        88.3375 
 458   0.0000       3.250646        88.4546 
 459   0.0000       3.256804        88.6221 
 460   0.0000       3.268708        88.9461 
 461   0.0000       3.275487        89.1305 
 462   0.0000       3.279258        89.2331 
 463   0.0000       3.294217        89.6402 
 464   0.0000       3.301248        89.8315 
 465   0.0000       3.307390        89.9987 
 466   0.0000       3.311878        90.1208 
 467   0.0000       3.316677        90.2514 
 468   0.0000       3.321283        90.3767 
 469   0.0000       3.331433        90.6529 
 470   0.0000       3.333487        90.7088 
 471   0.0000       3.343850        90.9908 
 472   0.0000       3.347108        91.0794 
 473   0.0000       3.352189        91.2177 
 474   0.0000       3.362665        91.5028 
 475   0.0000       3.368464        91.6606 
 476   0.0000       3.371596        91.7458 
 477   0.0000       3.378856        91.9434 
 478   0.0000       3.382417        92.0402 
 479   0.0000       3.388415        92.2035 
 480   0.0000       3.399464        92.5041 
 481   0.0000       3.400479        92.5317 
 482   0.0000       3.405730        92.6746 
 483   0.0000       3.408878        92.7603 
 484   0.0000       3.415800        92.9486 
 485   0.0000       3.418062        93.0102 
 486   0.0000       3.420995        93.0900 
 487   0.0000       3.423595        93.1608 
 488   0.0000       3.432766        93.4103 
 489   0.0000       3.438455        93.5651 
 490   0.0000       3.444926        93.7412 
 491   0.0000       3.450449        93.8915 
 492   0.0000       3.457032        94.0706 
 493   0.0000       3.457781        94.0910 
 494   0.0000       3.466188        94.3198 
 495   0.0000       3.473488        94.5184 
 496   0.0000       3.477818        94.6362 
 497   0.0000       3.490760        94.9884 
 498   0.0000       3.497188        95.1633 
 499   0.0000       3.502937        95.3198 
 500   0.0000       3.514780        95.6420 
 501   0.0000       3.523186        95.8708 
 502   0.0000       3.528376        96.0120 
 503   0.0000       3.530326        96.0651 
 504   0.0000       3.541470        96.3683 
 505   0.0000       3.547769        96.5397 
 506   0.0000       3.566610        97.0524 
 507   0.0000       3.573498        97.2398 
 508   0.0000       3.578932        97.3877 
 509   0.0000       3.581500        97.4576 
 510   0.0000       3.589815        97.6838 
 511   0.0000       3.611360        98.2701 
 512   0.0000       3.613876        98.3386 
 513   0.0000       3.618839        98.4736 
 514   0.0000       3.622532        98.5741 
 515   0.0000       3.627651        98.7134 
 516   0.0000       3.633508        98.8728 
 517   0.0000       3.636528        98.9550 
 518   0.0000       3.638923        99.0201 
 519   0.0000       3.647989        99.2668 
 520   0.0000       3.649643        99.3118 
 521   0.0000       3.661068        99.6227 
 522   0.0000       3.661893        99.6452 
 523   0.0000       3.669328        99.8475 
 524   0.0000       3.670387        99.8763 
 525   0.0000       3.681209       100.1708 
 526   0.0000       3.688223       100.3617 
 527   0.0000       3.695102       100.5488 
 528   0.0000       3.703841       100.7866 
 529   0.0000       3.706075       100.8474 
 530   0.0000       3.715158       101.0946 
 531   0.0000       3.720252       101.2332 
 532   0.0000       3.720851       101.2495 
 533   0.0000       3.744384       101.8899 
 534   0.0000       3.745243       101.9133 
 535   0.0000       3.754783       102.1728 
 536   0.0000       3.756742       102.2261 
 537   0.0000       3.758486       102.2736 
 538   0.0000       3.767271       102.5126 
 539   0.0000       3.779500       102.8454 
 540   0.0000       3.781576       102.9019 
 541   0.0000       3.786041       103.0234 
 542   0.0000       3.793426       103.2244 
 543   0.0000       3.799239       103.3825 
 544   0.0000       3.810249       103.6822 
 545   0.0000       3.818737       103.9131 
 546   0.0000       3.821291       103.9826 
 547   0.0000       3.825103       104.0863 
 548   0.0000       3.831919       104.2718 
 549   0.0000       3.843284       104.5811 
 550   0.0000       3.847383       104.6926 
 551   0.0000       3.856735       104.9471 
 552   0.0000       3.869960       105.3070 
 553   0.0000       3.876066       105.4731 
 554   0.0000       3.890686       105.8709 
 555   0.0000       3.902789       106.2003 
 556   0.0000       3.904468       106.2460 
 557   0.0000       3.915358       106.5423 
 558   0.0000       3.918006       106.6144 
 559   0.0000       3.931242       106.9745 
 560   0.0000       3.939776       107.2068 
 561   0.0000       3.952481       107.5525 
 562   0.0000       3.957585       107.6914 
 563   0.0000       3.970029       108.0300 
 564   0.0000       3.980430       108.3130 
 565   0.0000       3.985060       108.4390 
 566   0.0000       3.988795       108.5406 
 567   0.0000       3.993611       108.6717 
 568   0.0000       3.999807       108.8403 
 569   0.0000       4.020089       109.3922 
 570   0.0000       4.025023       109.5264 
 571   0.0000       4.028149       109.6115 
 572   0.0000       4.036479       109.8382 
 573   0.0000       4.048335       110.1608 
 574   0.0000       4.055343       110.3515 
 575   0.0000       4.063255       110.5668 
 576   0.0000       4.077200       110.9463 
 577   0.0000       4.087091       111.2154 
 578   0.0000       4.094816       111.4256 
 579   0.0000       4.107167       111.7617 
 580   0.0000       4.115788       111.9963 
 581   0.0000       4.117731       112.0491 
 582   0.0000       4.123066       112.1943 
 583   0.0000       4.130587       112.3990 
 584   0.0000       4.145665       112.8093 
 585   0.0000       4.147011       112.8459 
 586   0.0000       4.154107       113.0390 
 587   0.0000       4.163772       113.3020 
 588   0.0000       4.164445       113.3203 
 589   0.0000       4.176739       113.6548 
 590   0.0000       4.179868       113.7400 
 591   0.0000       4.188196       113.9666 
 592   0.0000       4.192224       114.0762 
 593   0.0000       4.194711       114.1439 
 594   0.0000       4.199781       114.2819 
 595   0.0000       4.210704       114.5791 
 596   0.0000       4.218567       114.7930 
 597   0.0000       4.221039       114.8603 
 598   0.0000       4.229173       115.0816 
 599   0.0000       4.242945       115.4564 
 600   0.0000       4.249919       115.6462 
 601   0.0000       4.256870       115.8353 
 602   0.0000       4.267126       116.1144 
 603   0.0000       4.269876       116.1892 
 604   0.0000       4.277382       116.3935 
 605   0.0000       4.284438       116.5855 
 606   0.0000       4.303611       117.1072 
 607   0.0000       4.304517       117.1319 
 608   0.0000       4.322123       117.6109 
 609   0.0000       4.328703       117.7900 
 610   0.0000       4.339711       118.0895 
 611   0.0000       4.341877       118.1485 
 612   0.0000       4.345581       118.2493 
 613   0.0000       4.350955       118.3955 
 614   0.0000       4.357625       118.5770 
 615   0.0000       4.365665       118.7958 
 616   0.0000       4.369182       118.8915 
 617   0.0000       4.374866       119.0462 
 618   0.0000       4.384388       119.3053 
 619   0.0000       4.393379       119.5499 
 620   0.0000       4.410866       120.0258 
 621   0.0000       4.419403       120.2581 
 622   0.0000       4.421775       120.3226 
 623   0.0000       4.435301       120.6907 
 624   0.0000       4.437990       120.7638 
 625   0.0000       4.447982       121.0357 
 626   0.0000       4.454646       121.2171 
 627   0.0000       4.460406       121.3738 
 628   0.0000       4.472490       121.7026 
 629   0.0000       4.482197       121.9668 
 630   0.0000       4.504227       122.5663 
 631   0.0000       4.508293       122.6769 
 632   0.0000       4.516704       122.9058 
 633   0.0000       4.531419       123.3062 
 634   0.0000       4.533614       123.3659 
 635   0.0000       4.541377       123.5772 
 636   0.0000       4.551746       123.8593 
 637   0.0000       4.560424       124.0955 
 638   0.0000       4.563829       124.1881 
 639   0.0000       4.565718       124.2395 
 640   0.0000       4.576001       124.5193 
 641   0.0000       4.587105       124.8215 
 642   0.0000       4.594653       125.0269 
 643   0.0000       4.609862       125.4407 
 644   0.0000       4.611684       125.4903 
 645   0.0000       4.627409       125.9182 
 646   0.0000       4.630294       125.9967 
 647   0.0000       4.638497       126.2199 
 648   0.0000       4.644096       126.3723 
 649   0.0000       4.647936       126.4768 
 650   0.0000       4.651657       126.5780 
 651   0.0000       4.664934       126.9393 
 652   0.0000       4.669373       127.0601 
 653   0.0000       4.676302       127.2486 
 654   0.0000       4.688664       127.5850 
 655   0.0000       4.694214       127.7361 
 656   0.0000       4.704105       128.0052 
 657   0.0000       4.716234       128.3352 
 658   0.0000       4.729515       128.6967 
 659   0.0000       4.732918       128.7893 
 660   0.0000       4.750308       129.2624 
 661   0.0000       4.765401       129.6732 
 662   0.0000       4.775333       129.9434 
 663   0.0000       4.787369       130.2709 
 664   0.0000       4.790141       130.3464 
 665   0.0000       4.820736       131.1789 
 666   0.0000       4.833188       131.5177 
 667   0.0000       4.847943       131.9192 
 668   0.0000       4.872528       132.5882 
 669   0.0000       4.893473       133.1582 
 670   0.0000       4.900791       133.3573 
 671   0.0000       4.916450       133.7834 
 672   0.0000       4.921777       133.9284 
 673   0.0000       4.939691       134.4158 
 674   0.0000       4.968117       135.1893 
 675   0.0000       4.977291       135.4390 
 676   0.0000       5.005031       136.1938 
 677   0.0000       5.010275       136.3365 
 678   0.0000       5.023147       136.6868 
 679   0.0000       5.032256       136.9346 
 680   0.0000       5.055146       137.5575 
 681   0.0000       5.069567       137.9499 
 682   0.0000       5.079351       138.2162 
 683   0.0000       5.092878       138.5842 
 684   0.0000       5.108574       139.0114 
 685   0.0000       5.108974       139.0223 
 686   0.0000       5.121771       139.3705 
 687   0.0000       5.132554       139.6639 
 688   0.0000       5.149183       140.1164 
 689   0.0000       5.152983       140.2198 
 690   0.0000       5.168348       140.6379 
 691   0.0000       5.179244       140.9344 
 692   0.0000       5.189491       141.2132 
 693   0.0000       5.193220       141.3147 
 694   0.0000       5.207677       141.7081 
 695   0.0000       5.217166       141.9663 
 696   0.0000       5.218688       142.0077 
 697   0.0000       5.233072       142.3991 
 698   0.0000       5.235074       142.4536 
 699   0.0000       5.246593       142.7670 
 700   0.0000       5.256271       143.0304 
 701   0.0000       5.273544       143.5004 
 702   0.0000       5.291481       143.9885 
 703   0.0000       5.321778       144.8129 
 704   0.0000       5.328243       144.9889 
 705   0.0000       5.338210       145.2601 
 706   0.0000       5.345384       145.4553 
 707   0.0000       5.355081       145.7192 
 708   0.0000       5.369208       146.1036 
 709   0.0000       5.384876       146.5299 
 710   0.0000       5.397216       146.8657 
 711   0.0000       5.414878       147.3463 
 712   0.0000       5.431006       147.7852 
 713   0.0000       5.454982       148.4376 
 714   0.0000       5.467276       148.7722 
 715   0.0000       5.483643       149.2175 
 716   0.0000       5.494616       149.5161 
 717   0.0000       5.512558       150.0043 
 718   0.0000       5.516393       150.1087 
 719   0.0000       5.522938       150.2868 
 720   0.0000       5.534753       150.6083 
 721   0.0000       5.545534       150.9016 
 722   0.0000       5.553555       151.1199 
 723   0.0000       5.573222       151.6551 
 724   0.0000       5.586574       152.0184 
 725   0.0000       5.606132       152.5506 
 726   0.0000       5.611980       152.7097 
 727   0.0000       5.627292       153.1264 
 728   0.0000       5.632465       153.2672 
 729   0.0000       5.644780       153.6023 
 730   0.0000       5.650923       153.7694 
 731   0.0000       5.671889       154.3399 
 732   0.0000       5.676190       154.4570 
 733   0.0000       5.678716       154.5257 
 734   0.0000       5.700624       155.1219 
 735   0.0000       5.703835       155.2092 
 736   0.0000       5.724892       155.7822 
 737   0.0000       5.731627       155.9655 
 738   0.0000       5.737460       156.1242 
 739   0.0000       5.755407       156.6126 
 740   0.0000       5.770697       157.0286 
 741   0.0000       5.776426       157.1845 
 742   0.0000       5.790910       157.5787 
 743   0.0000       5.808772       158.0647 
 744   0.0000       5.823194       158.4572 
 745   0.0000       5.836128       158.8091 
 746   0.0000       5.856575       159.3655 
 747   0.0000       5.860372       159.4688 
 748   0.0000       5.881850       160.0533 
 749   0.0000       5.932668       161.4361 
 750   0.0000       5.952950       161.9880 
 751   0.0000       5.971863       162.5027 
 752   0.0000       5.979227       162.7030 
 753   0.0000       5.994574       163.1206 
 754   0.0000       6.013960       163.6482 
 755   0.0000       6.025791       163.9701 
 756   0.0000       6.058847       164.8696 
 757   0.0000       6.067021       165.0920 
 758   0.0000       6.076701       165.3554 
 759   0.0000       6.097485       165.9210 
 760   0.0000       6.102316       166.0525 
 761   0.0000       6.176297       168.0656 
 762   0.0000       6.220350       169.2643 
 763   0.0000       6.223265       169.3436 
 764   0.0000       6.236188       169.6953 
 765   0.0000       6.258898       170.3133 
 766   0.0000       6.272862       170.6932 
 767   0.0000       6.322339       172.0396 
 768   0.0000       6.352844       172.8697 
 769   0.0000       6.353326       172.8828 
 770   0.0000       6.367604       173.2713 
 771   0.0000       6.384394       173.7282 
 772   0.0000       6.407020       174.3439 
 773   0.0000       6.447441       175.4438 
 774   0.0000       6.461967       175.8391 
 775   0.0000       6.468082       176.0054 
 776   0.0000       6.501050       176.9026 
 777   0.0000       6.539294       177.9432 
 778   0.0000       6.561089       178.5363 
 779   0.0000       6.594516       179.4459 
 780   0.0000       6.655996       181.1189 
 781   0.0000       6.677958       181.7165 
 782   0.0000       6.718286       182.8139 
 783   0.0000       6.755853       183.8361 
 784   0.0000       6.785727       184.6490 
 785   0.0000       6.888457       187.4444 
 786   0.0000       6.916514       188.2079 
 787   0.0000       6.926507       188.4799 
 788   0.0000       6.976048       189.8279 
 789   0.0000       7.015559       190.9031 
 790   0.0000       7.057081       192.0329 
 791   0.0000       7.066395       192.2864 
 792   0.0000       7.086675       192.8382 
 793   0.0000       7.138554       194.2499 
 794   0.0000       7.228134       196.6875 
 795   0.0000       7.242088       197.0672 
 796   0.0000       7.265362       197.7006 
 797   0.0000       7.286234       198.2685 
 798   0.0000       7.345402       199.8786 
 799   0.0000       7.366973       200.4655 
 800   0.0000       7.407360       201.5645 
 801   0.0000       7.517086       204.5503 
 802   0.0000       7.586835       206.4483 
 803   0.0000       7.600843       206.8294 
 804   0.0000       7.692831       209.3326 
 805   0.0000       7.821175       212.8250 
 806   0.0000       7.840358       213.3470 
 807   0.0000       7.928386       215.7423 
 808   0.0000       7.939756       216.0517 
 809   0.0000       9.351828       254.4762 
 810   0.0000       9.600176       261.2341 
 811   0.0000      10.844795       295.1019 
 812   0.0000      11.286065       307.1094 
 813   0.0000      11.781869       320.6009 
 814   0.0000      12.586504       342.4962 
 815   0.0000      12.920388       351.5816 
 816   0.0000      12.959224       352.6384 
 817   0.0000      13.069024       355.6262 
 818   0.0000      13.159713       358.0940 
 819   0.0000      13.399741       364.6255 
 820   0.0000      13.476017       366.7011 
 821   0.0000      13.663499       371.8027 
 822   0.0000      13.927149       378.9770 
 823   0.0000      13.963421       379.9640 
 824   0.0000      13.991191       380.7197 
 825   0.0000      14.541418       395.6921 
 826   0.0000      14.689141       399.7118 
 827   0.0000      15.948769       433.9881 

                    ********************************
                    * MULLIKEN POPULATION ANALYSIS *
                    ********************************

-----------------------
MULLIKEN ATOMIC CHARGES
-----------------------
   0 C :   -0.300296
   1 C :    0.045266
   2 O :   -0.351484
   3 C :    0.433545
   4 O :   -0.427820
   5 C :   -0.147081
   6 C :    0.139181
   7 C :   -0.285263
   8 N :   -0.122206
   9 C :    0.201895
  10 S :   -0.440365
  11 N :   -0.197330
  12 C :    0.036521
  13 C :    0.054963
  14 C :   -0.162513
  15 C :   -0.134284
  16 C :   -0.279364
  17 C :    0.311286
  18 O :   -0.358848
  19 C :   -0.270469
  20 H :    0.090093
  21 H :    0.094435
  22 H :    0.126121
  23 H :    0.102625
  24 H :    0.097574
  25 H :    0.123929
  26 H :    0.101843
  27 H :    0.128082
  28 H :    0.196764
  29 H :    0.193421
  30 H :    0.153921
  31 H :    0.153617
  32 H :    0.159188
  33 H :    0.128196
  34 H :    0.239992
  35 H :    0.164868
Sum of atomic charges:   -0.0000000

--------------------------------
MULLIKEN REDUCED ORBITAL CHARGES
--------------------------------
  0 C s       :     3.261582  s :     3.261582
      pz      :     0.950561  p :     2.962571
      px      :     1.025778
      py      :     0.986232
      dz2     :     0.018686  d :     0.071713
      dxz     :     0.008749
      dyz     :     0.018061
      dx2y2   :     0.003623
      dxy     :     0.022594
      f0      :     0.000396  f :     0.004430
      f+1     :     0.000258
      f-1     :     0.001327
      f+2     :     0.000416
      f-2     :     0.001151
      f+3     :     0.000220
      f-3     :     0.000661
  1 C s       :     3.168446  s :     3.168446
      pz      :     0.973927  p :     2.624757
      px      :     0.858277
      py      :     0.792552
      dz2     :     0.027759  d :     0.150115
      dxz     :     0.019329
      dyz     :     0.034828
      dx2y2   :     0.027357
      dxy     :     0.040842
      f0      :     0.001406  f :     0.011417
      f+1     :     0.000924
      f-1     :     0.001810
      f+2     :     0.000717
      f-2     :     0.002431
      f+3     :     0.001836
      f-3     :     0.002292
  2 O s       :     3.713809  s :     3.713809
      pz      :     1.721107  p :     4.602578
      px      :     1.271740
      py      :     1.609731
      dz2     :     0.004039  d :     0.032832
      dxz     :     0.006605
      dyz     :     0.003792
      dx2y2   :     0.008587
      dxy     :     0.009810
      f0      :     0.000299  f :     0.002266
      f+1     :     0.000383
      f-1     :     0.000135
      f+2     :     0.000381
      f-2     :     0.000280
      f+3     :     0.000428
      f-3     :     0.000359
[...]
 15 C s       :     2.705731  s :     2.705731
      pz      :     0.926074  p :     2.796979
      px      :     0.906199
      py      :     0.964706
      dz2     :     0.103449  d :     0.415779
      dxz     :     0.070291
      dyz     :     0.075294
      dx2y2   :     0.103904
      dxy     :     0.062841
      f0      :     0.004415  f :     0.041004
      f+1     :     0.005727
      f-1     :     0.006709
      f+2     :     0.007548
      f-2     :     0.006023
      f+3     :     0.005368
      f-3     :     0.005213
 16 C s       :     2.701841  s :     2.701841
      pz      :     0.944260  p :     2.869214
      px      :     0.945571
      py      :     0.979383
      dz2     :     0.055263  d :     0.391058
      dxz     :     0.055477
      dyz     :     0.096375
      dx2y2   :     0.091001
      dxy     :     0.092943
      f0      :     0.003935  f :     0.040333
      f+1     :     0.004493
      f-1     :     0.006185
      f+2     :     0.006572
      f-2     :     0.004659
      f+3     :     0.008748
      f-3     :     0.005740
 17 C s       :     2.701522  s :     2.701522
      pz      :     0.876231  p :     2.684012
      px      :     0.823098
      py      :     0.984683
      dz2     :     0.139684  d :     0.707816
      dxz     :     0.098619
      dyz     :     0.162496
      dx2y2   :     0.148478
      dxy     :     0.158539
      f0      :     0.010862  f :     0.099210
      f+1     :     0.013482
      f-1     :     0.013614
      f+2     :     0.018266
      f-2     :     0.013255
      f+3     :     0.017175
      f-3     :     0.012557
 18 O s       :     3.177297  s :     3.177297
      pz      :     1.376589  p :     4.348938
      px      :     1.454560
      py      :     1.517789
      dz2     :     0.010062  d :     0.075567
      dxz     :     0.015907
      dyz     :     0.022056
      dx2y2   :     0.010939
      dxy     :     0.016603
      f0      :     0.000622  f :     0.005077
      f+1     :     0.000585
      f-1     :     0.000690
      f+2     :     0.000726
      f-2     :     0.001087
      f+3     :     0.000704
      f-3     :     0.000664
 19 C s       :     2.695321  s :     2.695321
      pz      :     0.945510  p :     2.846669
      px      :     0.936399
      py      :     0.964759
      dz2     :     0.087713  d :     0.388262
      dxz     :     0.070383
      dyz     :     0.072902
      dx2y2   :     0.091759
      dxy     :     0.065506
      f0      :     0.004265  f :     0.040805
      f+1     :     0.006297
      f-1     :     0.006314
      f+2     :     0.007382
      f-2     :     0.006465
      f+3     :     0.005246
      f-3     :     0.004836
 20 H s       :     0.851376  s :     0.851376
      pz      :     0.062359  p :     0.151420
      px      :     0.042835
      py      :     0.046226
      dz2     :     0.008547  d :     0.027618
      dxz     :     0.006396
      dyz     :     0.006919
      dx2y2   :     0.002275
      dxy     :     0.003480
 21 H s       :     0.848786  s :     0.848786
      pz      :     0.041660  p :     0.152302
      px      :     0.056904
      py      :     0.053737
      dz2     :     0.002647  d :     0.027503
      dxz     :     0.005072
      dyz     :     0.004620
      dx2y2   :     0.008420
      dxy     :     0.006743
 22 H s       :     0.842520  s :     0.842520
      pz      :     0.042221  p :     0.155667
      px      :     0.063887
      py      :     0.049560
      dz2     :     0.003348  d :     0.027740
      dxz     :     0.005458
      dyz     :     0.003679
      dx2y2   :     0.007791
      dxy     :     0.007464
 23 H s       :     0.854489  s :     0.854489
      pz      :     0.043735  p :     0.143765
      px      :     0.064475
      py      :     0.035555
      dz2     :     0.003604  d :     0.026883
      dxz     :     0.007189
      dyz     :     0.002618
      dx2y2   :     0.006503
      dxy     :     0.006970
 24 H s       :     0.854525  s :     0.854525
      pz      :     0.068776  p :     0.145555
      px      :     0.031923
      py      :     0.044855
      dz2     :     0.007898  d :     0.026946
      dxz     :     0.006220
      dyz     :     0.008144
      dx2y2   :     0.001974
      dxy     :     0.002709
 25 H s       :     0.830657  s :     0.830657
      pz      :     0.064764  p :     0.150707
      px      :     0.040382
      py      :     0.045561
      dz2     :     0.008957  d :     0.027732
      dxz     :     0.007311
      dyz     :     0.007109
      dx2y2   :     0.002805
      dxy     :     0.001549
 26 H s       :     0.842964  s :     0.842964
      pz      :     0.038169  p :     0.150038
      px      :     0.039421
      py      :     0.072448
      dz2     :     0.002318  d :     0.027704
      dxz     :     0.000283
      dyz     :     0.009245
      dx2y2   :     0.007137
      dxy     :     0.008722
 27 H s       :     0.830064  s :     0.830064
      pz      :     0.039061  p :     0.151718
      px      :     0.072161
      py      :     0.040497
      dz2     :     0.002807  d :     0.027735
      dxz     :     0.008568
      dyz     :     0.000402
      dx2y2   :     0.007650
      dxy     :     0.008307
 28 H s       :     0.743080  s :     0.743080
      pz      :     0.067497  p :     0.254171
      px      :     0.071097
      py      :     0.115577
      dz2     :     0.006107  d :     0.061888
      dxz     :     0.001638
      dyz     :     0.018980
      dx2y2   :     0.015807
      dxy     :     0.019356
 29 H s       :     0.748532  s :     0.748532
      pz      :     0.108962  p :     0.253968
      px      :     0.102869
      py      :     0.042137
      dz2     :     0.019790  d :     0.061336
      dxz     :     0.015049
      dyz     :     0.007840
      dx2y2   :     0.010571
      dxy     :     0.008087
 30 H s       :     0.828200  s :     0.828200
      pz      :     0.042310  p :     0.148538
      px      :     0.054143
      py      :     0.052085
      dz2     :     0.003624  d :     0.028388
      dxz     :     0.005923
      dyz     :     0.004681
      dx2y2   :     0.006607
      dxy     :     0.007552
 31 H s       :     0.842004  s :     0.842004
      pz      :     0.053195  p :     0.155978
      px      :     0.058577
      py      :     0.044207
      dz2     :     0.005530  d :     0.027476
      dxz     :     0.005760
      dyz     :     0.004885
      dx2y2   :     0.005713
      dxy     :     0.005588
 32 H s       :     0.843439  s :     0.843439
      pz      :     0.037123  p :     0.151358
      px      :     0.037745
      py      :     0.076490
      dz2     :     0.002896  d :     0.026482
      dxz     :     0.000457
      dyz     :     0.007902
      dx2y2   :     0.007495
      dxy     :     0.007732
 33 H s       :     0.849386  s :     0.849386
      pz      :     0.063270  p :     0.159234
      px      :     0.052192
      py      :     0.043772
      dz2     :     0.007416  d :     0.027778
      dxz     :     0.006098
      dyz     :     0.006122
      dx2y2   :     0.004188
      dxy     :     0.003954
 34 H s       :     0.707088  s :     0.707088
      pz      :     0.122644  p :     0.348188
      px      :     0.094806
      py      :     0.130738
      dz2     :     0.027204  d :     0.099646
      dxz     :     0.016425
      dyz     :     0.023769
      dx2y2   :     0.015737
      dxy     :     0.016510
 35 H s       :     0.839733  s :     0.839733
      pz      :     0.039206  p :     0.157052
      px      :     0.040087
      py      :     0.077760
      dz2     :     0.002924  d :     0.028034
      dxz     :     0.000552
      dyz     :     0.008462
      dx2y2   :     0.007674
      dxy     :     0.008421


                      *****************************
                      * MAYER POPULATION ANALYSIS *
                      *****************************

  NA   - Mulliken gross atomic population
  ZA   - Total nuclear charge
  QA   - Mulliken gross atomic charge
  VA   - Mayer's total valence
  BVA  - Mayer's bonded valence
  FA   - Mayer's free valence

  ATOM       NA         ZA         QA         VA         BVA        FA
  0 C      6.3003     6.0000    -0.3003     3.8593     3.8593    -0.0000
  1 C      5.9547     6.0000     0.0453     3.8781     3.8781    -0.0000
  2 O      8.3515     8.0000    -0.3515     2.0516     2.0516    -0.0000
  3 C      5.5665     6.0000     0.4335     4.1720     4.1720     0.0000
  4 O      8.4278     8.0000    -0.4278     2.0783     2.0783    -0.0000
  5 C      6.1471     6.0000    -0.1471     3.6377     3.6377    -0.0000
  6 C      5.8608     6.0000     0.1392     3.8368     3.8368    -0.0000
  7 C      6.2853     6.0000    -0.2853     3.8916     3.8916    -0.0000
  8 N      7.1222     7.0000    -0.1222     3.2878     3.2878     0.0000
  9 C      5.7981     6.0000     0.2019     4.1548     4.1548    -0.0000
 10 S     16.4404    16.0000    -0.4404     1.7553     1.7553    -0.0000
 11 N      7.1973     7.0000    -0.1973     3.2600     3.2600    -0.0000
 12 C      5.9635     6.0000     0.0365     3.9698     3.9698    -0.0000
 13 C      5.9450     6.0000     0.0550     3.7392     3.7392     0.0000
 14 C      6.1625     6.0000    -0.1625     3.8634     3.8634    -0.0000
 15 C      6.1343     6.0000    -0.1343     3.8078     3.8078     0.0000
 16 C      6.2794     6.0000    -0.2794     3.7932     3.7932     0.0000
 17 C      5.6887     6.0000     0.3113     3.8760     3.8760    -0.0000
 18 O      8.3588     8.0000    -0.3588     2.1157     2.1157    -0.0000
 19 C      6.2705     6.0000    -0.2705     3.8529     3.8529     0.0000
 20 H      0.9099     1.0000     0.0901     0.9837     0.9837    -0.0000
 21 H      0.9056     1.0000     0.0944     0.9830     0.9830     0.0000
 22 H      0.8739     1.0000     0.1261     0.9889     0.9889     0.0000
 23 H      0.8974     1.0000     0.1026     0.9765     0.9765    -0.0000
 24 H      0.9024     1.0000     0.0976     0.9830     0.9830     0.0000
 25 H      0.8761     1.0000     0.1239     0.9843     0.9843    -0.0000
 26 H      0.8982     1.0000     0.1018     0.9866     0.9866     0.0000
 27 H      0.8719     1.0000     0.1281     0.9785     0.9785    -0.0000
 28 H      0.8032     1.0000     0.1968     1.0232     1.0232     0.0000
 29 H      0.8066     1.0000     0.1934     1.0187     1.0187    -0.0000
 30 H      0.8461     1.0000     0.1539     0.9969     0.9969    -0.0000
 31 H      0.8464     1.0000     0.1536     0.9894     0.9894    -0.0000
 32 H      0.8408     1.0000     0.1592     0.9775     0.9775     0.0000
 33 H      0.8718     1.0000     0.1282     0.9921     0.9921    -0.0000
 34 H      0.7600     1.0000     0.2400     1.0111     1.0111     0.0000
 35 H      0.8351     1.0000     0.1649     0.9886     0.9886     0.0000

  Mayer bond orders larger than 0.100000
B(  0-C ,  1-C ) :   0.9684 B(  0-C , 20-H ) :   0.9757 B(  0-C , 21-H ) :   0.9772 
B(  0-C , 22-H ) :   0.9717 B(  1-C ,  2-O ) :   0.9061 B(  1-C , 23-H ) :   0.9845 
B(  1-C , 24-H ) :   0.9772 B(  2-O ,  3-C ) :   1.1326 B(  3-C ,  4-O ) :   1.9644 
B(  3-C ,  5-C ) :   1.0516 B(  5-C ,  6-C ) :   1.6525 B(  5-C , 12-C ) :   0.9645 
B(  6-C ,  7-C ) :   0.9548 B(  6-C ,  8-N ) :   1.1431 B(  7-C , 25-H ) :   0.9677 
B(  7-C , 26-H ) :   0.9908 B(  7-C , 27-H ) :   0.9627 B(  8-N ,  9-C ) :   1.1808 
B(  8-N , 28-H ) :   0.9493 B(  9-C , 10-S ) :   1.6099 B(  9-C , 11-N ) :   1.3027 
B( 11-N , 12-C ) :   0.9934 B( 11-N , 29-H ) :   0.9519 B( 12-C , 13-C ) :   0.9464 
B( 12-C , 30-H ) :   0.9993 B( 13-C , 14-C ) :   1.3756 B( 13-C , 19-C ) :   1.3703 
B( 14-C , 15-C ) :   1.3946 B( 14-C , 31-H ) :   0.9650 B( 15-C , 16-C ) :   1.3629 
B( 15-C , 32-H ) :   0.9714 B( 16-C , 17-C ) :   1.3312 B( 16-C , 33-H ) :   0.9860 
B( 17-C , 18-O ) :   1.1082 B( 17-C , 19-C ) :   1.3787 B( 18-O , 34-H ) :   0.9806 
B( 19-C , 35-H ) :   0.9583 

-------
TIMINGS
-------

Total SCF time: 0 days 1 hours 20 min 49 sec 

Total time                  ....    4849.337 sec
Sum of individual times     ....    4841.839 sec  ( 99.8%)

Fock matrix formation       ....    4827.357 sec  ( 99.5%)
Diagonalization             ....       1.328 sec  (  0.0%)
Density matrix formation    ....       0.167 sec  (  0.0%)
Population analysis         ....       0.369 sec  (  0.0%)
Initial guess               ....       5.305 sec  (  0.1%)
Orbital Transformation      ....       0.000 sec  (  0.0%)
Orbital Orthonormalization  ....       0.000 sec  (  0.0%)
DIIS solution               ....       3.839 sec  (  0.1%)
SOSCF solution              ....       2.152 sec  (  0.0%)

Maximum memory used throughout the entire SCF-calculation: 722.3 MB

------------------------------------------------------------------------------
                                ORCA  MP2 
------------------------------------------------------------------------------

Freezing NCore=48 chemical core electrons

-------------
RI-MP2 ENERGY
-------------
Dimension of the basis                    ...  828
Memory devoted to MP2                     ...  256 MB   
Data format for buffers                   ... DOUBLE
Compression type for matrix containers    ... UNCOMPRESSED
Overall scaling of the MP2 energy         ...   1.000e+00
Calculating two index integrals           ... done (    0.038 sec)
Cholesky decomposition of V**-1           ... done (    0.504 sec)

-----------------
RI-TRANSFORMATION (AUX index driven)
-----------------

Dimension of the orbital-basis         ... 828
Dimension of the aux-basis             ... 2141
Transformation of internal/external MOs...   24-  76 to   77- 827
Number Format for Storage              ... Double (8 Byte)
Integral mode                          ... Direct

First Phase: integral generation and transformation of MO indices
  Aux angular momentum 0               ... done (    5.136 sec)
  Aux angular momentum 1               ... done (    6.727 sec)
  Aux angular momentum 2               ... done (    8.219 sec)
  Aux angular momentum 3               ... done (    6.234 sec)
  Aux angular momentum 4               ... done (    2.130 sec)
Closing buffer VIA ( 0.63 GB; CompressionRatio= 1.00)
  Phase 1 completed in    28.695 sec
Second Phase: sorting and transformation of aux index

IA-Transformation
Memory available                       ... 158 MB 
Max. # MO pairs treated in a batch     ... 11    
# of internal orbitals                 ... 53
# batches for internal orbitals        ... 5
Closing buffer IAV ( 0.63 GB; CompressionRatio= 1.00)
(ia|v) transformation done in    38.928 sec

  Phase 2 completed in    38.937 sec
RI-Integral transformation completed in    67.639 sec
Opening buffers                              ... done

Starting loop over batches of integrals:

Operator 0  - window                       ... ( 24- 76)x( 77-827)
Operator 0  - Memory available             ...   256 MB
Operator 0  - Memory needed per MO         ...  12.3 MB
Operator 0  - Number of orbitals per batch ... 13
Operator 0  - Number of batches            ... 5

OPERATOR  0   PASS   0:  MOs    24 ...   36
  Reading integrals       ... ok
  Internal MO  26
  Internal MO  29
  Internal MO  32
  Internal MO  35
OPERATOR  0   PASS   1:  MOs    37 ...   49
  Reading integrals       ... ok
  Internal MO  38
  Internal MO  41
  Internal MO  44
  Internal MO  47
OPERATOR  0   PASS   2:  MOs    50 ...   62
  Reading integrals       ... ok
  Internal MO  50
  Internal MO  53
  Internal MO  56
  Internal MO  59
  Internal MO  62
OPERATOR  0   PASS   3:  MOs    63 ...   75
  Reading integrals       ... ok
  Internal MO  65
  Internal MO  68
  Internal MO  71
  Internal MO  74
OPERATOR  0   PASS   4:  MOs    76 ...   76
  Reading integrals       ... ok
Time spent in pair loops =   136.538 sec
Deleting buffer (Ka|jb)[aa] ...done

-----------------------------------------------
 RI-MP2 CORRELATION ENERGY:     -3.531373396 Eh
-----------------------------------------------


-------
TIMINGS
-------

Total time                :  204.977 sec
Integral trafo            :   67.650 sec ( 33.0%)
I/O of integrals          :    3.452 sec (  1.7%)
K(i,j) Operators          :   81.739 sec ( 39.9%)
T(i,j) pair energies      :    3.175 sec (  1.5%)
V-calculation             :    0.038 sec (  0.0%)
V**(-1/2)                 :    0.504 sec (  0.2%)
Gamma(ia|P)               :    0.000 sec (  0.0%)
Gamma-Trafo               :    0.000 sec (  0.0%)
D(virtual)                :    0.000 sec (  0.0%)
D(internal)               :    0.000 sec (  0.0%)
W(virtual)                :    0.000 sec (  0.0%)
W(internal)               :    0.000 sec (  0.0%)
L(virtual)                :    0.000 sec (  0.0%)
L(internal)               :    0.000 sec (  0.0%)
G(D)                      :    0.000 sec (  0.0%)
G(Z)                      :    0.000 sec (  0.0%)
Z-Vector Solution         :    0.000 sec (  0.0%)
3-Index Derivative        :    0.000 sec (  0.0%)
2-Index Derivative        :    0.000 sec (  0.0%)
Separable Gradient        :    0.000 sec (  0.0%)


---------------------------------------
MP2 TOTAL ENERGY:    -1274.340401051 Eh
---------------------------------------

Maximum memory used throughout the entire MP2-calculation: 303.2 MB

-------------------------   --------------------
FINAL SINGLE POINT ENERGY     -1274.340401050594
-------------------------   --------------------


                            ***************************************
                            *     ORCA property calculations      *
                            ***************************************


  WARNING: The energy has been calculated at the MP2 level but the densities
           used in the property calculations are still SCF densities
           MP2 response densities have not been calculated 
           use %mp2 Density relaxed end
           or  %mp2 Density unrelaxed end

                                    ---------------------
                                    Active property flags
                                    ---------------------
   (+) Dipole Moment


------------------------------------------------------------------------------
                       ORCA ELECTRIC PROPERTIES CALCULATION
------------------------------------------------------------------------------

Dipole Moment Calculation                       ... on
Quadrupole Moment Calculation                   ... off
Polarizability Calculation                      ... off
GBWName                                         ... CONFS/Conf283.orca.gbw
Electron density file                           ... CONFS/Conf283.orca.scfp
The origin for moment calculation is the CENTER OF MASS  = (32.903835, 31.503308 35.478265)

-------------
DIPOLE MOMENT
-------------
                                X             Y             Z
Electronic contribution:     10.23091      10.02921      11.01240
Nuclear contribution   :    -11.89110     -11.19354     -11.86174
                        -----------------------------------------
Total Dipole Moment    :     -1.66020      -1.16433      -0.84933
                        -----------------------------------------
Magnitude (a.u.)       :      2.19848
Magnitude (Debye)      :      5.58808



--------------------
Rotational spectrum 
--------------------
 
Rotational constants in cm-1:     0.010695     0.008936     0.005880 
Rotational constants in MHz :   320.614046   267.883625   176.292854 

 Dipole components along the rotational axes: 
x,y,z [a.u.] :    -2.028359     0.264991     0.805502 
x,y,z [Debye]:    -5.155678     0.673553     2.047423 

 

Timings for individual modules:

Sum of individual times         ...     5059.193 sec (=  84.320 min)
GTO integral calculation        ...        3.477 sec (=   0.058 min)   0.1 %
SCF iterations                  ...     4849.746 sec (=  80.829 min)  95.9 %
MP2 module                      ...      205.969 sec (=   3.433 min)   4.1 %
                             ****ORCA TERMINATED NORMALLY****
TOTAL RUN TIME: 0 days 1 hours 24 minutes 21 seconds 592 msec
