
                                        *****************
                                        * O   R   C   A *
                                        *****************

                                            #,                                       
                                            ###                                      
                                            ####                                     
                                            #####                                    
                                            ######                                   
                                           ########,                                 
                                     ,,################,,,,,                         
                               ,,#################################,,                 
                          ,,##########################################,,             
                       ,#########################################, ''#####,          
                    ,#############################################,,   '####,        
                  ,##################################################,,,,####,       
                ,###########''''           ''''###############################       
              ,#####''   ,,,,##########,,,,          '''####'''          '####       
            ,##' ,,,,###########################,,,                        '##       
           ' ,,###''''                  '''############,,,                           
         ,,##''                                '''############,,,,        ,,,,,,###''
      ,#''                                            '''#######################'''  
     '                                                          ''''####''''         
             ,#######,   #######,   ,#######,      ##                                
            ,#'     '#,  ##    ##  ,#'     '#,    #''#        ######   ,####,        
            ##       ##  ##   ,#'  ##            #'  '#       #        #'  '#        
            ##       ##  #######   ##           ,######,      #####,   #    #        
            '#,     ,#'  ##    ##  '#,     ,#' ,#      #,         ##   #,  ,#        
             '#######'   ##     ##  '#######'  #'      '#     #####' # '####'        



                  #######################################################
                  #                        -***-                        #
                  #          Department of theory and spectroscopy      #
                  #    Directorship and core code : Frank Neese         #
                  #        Max Planck Institute fuer Kohlenforschung    #
                  #                Kaiser Wilhelm Platz 1               #
                  #                 D-45470 Muelheim/Ruhr               #
                  #                      Germany                        #
                  #                                                     #
                  #                  All rights reserved                #
                  #                        -***-                        #
                  #######################################################


                         Program Version 5.0.0 -  RELEASE  -
                                (SVN: $Rev: 19529$)
                ($Date: 2021-06-28 11:36:33 +0200 (Mo, 28 Jun 2021) $)


 With contributions from (in alphabetic order):
   Daniel Aravena         : Magnetic Suceptibility
   Michael Atanasov       : Ab Initio Ligand Field Theory (pilot matlab implementation)
   Alexander A. Auer      : GIAO ZORA, VPT2 properties, NMR spectrum
   Ute Becker             : Parallelization
   Giovanni Bistoni       : ED, misc. LED, open-shell LED, HFLD
   Martin Brehm           : Molecular dynamics
   Dmytro Bykov           : SCF Hessian
   Vijay G. Chilkuri      : MRCI spin determinant printing, contributions to CSF-ICE
   Dipayan Datta          : RHF DLPNO-CCSD density
   Achintya Kumar Dutta   : EOM-CC, STEOM-CC
   Dmitry Ganyushin       : Spin-Orbit,Spin-Spin,Magnetic field MRCI
   Miquel Garcia          : C-PCM Hessian, Gaussian charge scheme
   Yang Guo               : DLPNO-NEVPT2, F12-NEVPT2, CIM, IAO-localization
   Andreas Hansen         : Spin unrestricted coupled pair/coupled cluster methods
   Benjamin Helmich-Paris : MC-RPA, TRAH-SCF, COSX integrals
   Lee Huntington         : MR-EOM, pCC
   Robert Izsak           : Overlap fitted RIJCOSX, COSX-SCS-MP3, EOM
   Marcus Kettner         : VPT2
   Christian Kollmar      : KDIIS, OOCD, Brueckner-CCSD(T), CCSD density, CASPT2, CASPT2-K
   Simone Kossmann        : Meta GGA functionals, TD-DFT gradient, OOMP2, MP2 Hessian
   Martin Krupicka        : Initial AUTO-CI
   Lucas Lang             : DCDCAS
   Marvin Lechner         : AUTO-CI (C++ implementation), FIC-MRCC
   Dagmar Lenk            : GEPOL surface, SMD
   Dimitrios Liakos       : Extrapolation schemes; Compound Job, initial MDCI parallelization
   Dimitrios Manganas     : Further ROCIS development; embedding schemes
   Dimitrios Pantazis     : SARC Basis sets
   Anastasios Papadopoulos: AUTO-CI, single reference methods and gradients
   Taras Petrenko         : DFT Hessian,TD-DFT gradient, ASA, ECA, R-Raman, ABS, FL, XAS/XES, NRVS
   Peter Pinski           : DLPNO-MP2, DLPNO-MP2 Gradient
   Christoph Reimann      : Effective Core Potentials
   Marius Retegan         : Local ZFS, SOC
   Christoph Riplinger    : Optimizer, TS searches, QM/MM, DLPNO-CCSD(T), (RO)-DLPNO pert. Triples
   Tobias Risthaus        : Range-separated hybrids, TD-DFT gradient, RPA, STAB
   Michael Roemelt        : Original ROCIS implementation
   Masaaki Saitow         : Open-shell DLPNO-CCSD energy and density
   Barbara Sandhoefer     : DKH picture change effects
   Avijit Sen             : IP-ROCIS
   Kantharuban Sivalingam : CASSCF convergence, NEVPT2, FIC-MRCI
   Bernardo de Souza      : ESD, SOC TD-DFT
   Georgi Stoychev        : AutoAux, RI-MP2 NMR
   Willem Van den Heuvel  : Paramagnetic NMR
   Boris Wezisla          : Elementary symmetry handling
   Frank Wennmohs         : Technical directorship


 We gratefully acknowledge several colleagues who have allowed us to
 interface, adapt or use parts of their codes:
   Stefan Grimme, W. Hujo, H. Kruse, P. Pracht,  : VdW corrections, initial TS optimization,
                  C. Bannwarth, S. Ehlert          DFT functionals, gCP, sTDA/sTD-DF
   Ed Valeev, F. Pavosevic, A. Kumar             : LibInt (2-el integral package), F12 methods
   Garnet Chan, S. Sharma, J. Yang, R. Olivares  : DMRG
   Ulf Ekstrom                                   : XCFun DFT Library
   Mihaly Kallay                                 : mrcc  (arbitrary order and MRCC methods)
   Jiri Pittner, Ondrej Demel                    : Mk-CCSD
   Frank Weinhold                                : gennbo (NPA and NBO analysis)
   Christopher J. Cramer and Donald G. Truhlar   : smd solvation model
   Lars Goerigk                                  : TD-DFT with DH, B97 family of functionals
   V. Asgeirsson, H. Jonsson                     : NEB implementation
   FAccTs GmbH                                   : IRC, NEB, NEB-TS, DLPNO-Multilevel, CI-OPT
                                                   MM, QMMM, 2- and 3-layer-ONIOM, Crystal-QMMM,
                                                   LR-CPCM, SF, NACMEs, symmetry and pop. for TD-DFT,
                                                   nearIR, NL-DFT gradient (VV10), updates on ESD,
                                                   ML-optimized integration grids
   S Lehtola, MJT Oliveira, MAL Marques          : LibXC Library
   Liviu Ungur et al                             : ANISO software


 Your calculation uses the libint2 library for the computation of 2-el integrals
 For citations please refer to: http://libint.valeyev.net

 Your ORCA version has been built with support for libXC version: 5.1.0
 For citations please refer to: https://tddft.org/programs/libxc/

 This ORCA versions uses:
   CBLAS   interface :  Fast vector & matrix operations
   LAPACKE interface :  Fast linear algebra routines
   SCALAPACK package :  Parallel linear algebra routines
   Shared memory     :  Shared parallel matrices
   BLAS/LAPACK       :  OpenBLAS 0.3.15  USE64BITINT DYNAMIC_ARCH NO_AFFINITY SkylakeX SINGLE_THREADED
        Core in use  :  SkylakeX
   Copyright (c) 2011-2014, The OpenBLAS Project


================================================================================

----- Orbital basis set information -----
Your calculation utilizes the basis: cc-pVTZ 
       H, B-Ne : Obtained from the ccRepo (grant-hill.group.shef.ac.uk/ccrepo) Feb. 2017
                 T. H. Dunning, Jr., J. Chem. Phys. 90, 1007 (1989)
            He : Obtained from the ccRepo (grant-hill.group.shef.ac.uk/ccrepo) Feb. 2017
                 D. E. Woon, T. H. Dunning, Jr., J. Chem. Phys. 100, 2975 (1994)
  Li-Be, Na-Mg : Obtained from the ccRepo (grant-hill.group.shef.ac.uk/ccrepo) Feb. 2017
                 B. P. Prascher, D. E. Woon, K. A. Peterson, T. H. Dunning, Jr., A. K. Wilson, Theor. Chem. Acc. 128, 69 (2011)
         Al-Ar : Obtained from the ccRepo (grant-hill.group.shef.ac.uk/ccrepo) Feb. 2017
                 D. E. Woon, T. H. Dunning, Jr., J. Chem. Phys. 98, 1358 (1993)
            Ca : Obtained from the Peterson Research Group Website (tyr0.chem.wsu.edu/~kipeters) Feb. 2017
                 J. Koput, K. A. Peterson, J. Phys. Chem. 106, 9595 (2002)
         Sc-Zn : Obtained from the ccRepo (grant-hill.group.shef.ac.uk/ccrepo) Feb. 2017
                 N. B. Balabanov, K. A. Peterson, J. Chem. Phys. 123, 064107 (2005)
                 N. B. Balabanov, K. A. Peterson, J. Chem. Phys. 125, 074110 (2006)
         Ga-Kr : Obtained from the ccRepo (grant-hill.group.shef.ac.uk/ccrepo) Feb. 2017
                 A. K. Wilson, D. E. Woon, K. A. Peterson, T. H. Dunning, Jr., J. Chem. Phys. 110, 7667 (1999)
             Y : Obtained from the ccRepo (grant-hill.group.shef.ac.uk/ccrepo) Feb. 2017
                 K. A. Peterson, D. Figgen, M. Dolg, H. Stoll, J. Chem. Phys. 126, 124101 (2007)
        Ag, Au : Obtained from the Peterson Research Group Website (tyr0.chem.wsu.edu/~kipeters) Feb. 2017
                 K. A. Peterson, C. Puzzarini, Theor. Chem. Acc. 114, 283 (2005)

----- AuxC basis set information -----
Your calculation utilizes the auxiliary basis: cc-pVTZ/C 
  Obtained from the EMSL Basis Set Exchange (bse.pnl.gov) Feb. 2017
  H-He, B-F, Al-Ar, Ga-Kr : F. Weigend, A. Kohn, C. Hattig, J. Chem. Phys. 116, 3175 (2002)
             Li-Be, Na-Mg : C. Haettig, Phys. Chem. Chem. Phys. 7, 59 (2005)
                       Ne : C. Haettig, Phys. Chem. Chem. Phys. 7, 59 (2005)
                            F. Weigend, A. Kohn, C. Hattig, J. Chem. Phys. 116, 3175 (2002)
                    Sc-Zn : J. G. Hill, J. A. Platts, J. Chem. Phys. 128, 044104 (2008)

================================================================================
                                        WARNINGS
                       Please study these warnings very carefully!
================================================================================


WARNING: No MP2 level density has been requested!
         To caclulate MP2 level properties use
         %mp2 Density relaxed end
         or
         %mp2 Density unrelaxed end

WARNING: Post HF methods need fully converged wavefunctions
  ===> : Setting SCFConvForced true
         You can overwrite this default with %scf ConvForced false 


INFO   : the flag for use of the SHARK integral package has been found!

================================================================================
                                       INPUT FILE
================================================================================
NAME = CONFS/Conf495.orca
|  1> ! ri-mp2 cc-pvtz cc-pvtz/c TightSCF NoKeepInts
|  2> 
|  3> %scf
|  4>   MaxCore 4096
|  5> end
|  6> *xyz  0  1
|  7>     C       15.0259473   14.1307876   15.5995361
|  8>     C       16.4110796   13.8890027   16.2368403
|  9>     O       17.1163304   15.0676484   16.7096542
| 10>     C       16.7273713   16.3827145   16.6248411
| 11>     O       15.8835453   16.8007820   15.8525488
| 12>     C       17.5256258   17.2619704   17.5505674
| 13>     C       17.4057940   18.6147177   17.5583198
| 14>     C       16.5015799   19.4633442   16.6896911
| 15>     N       18.1938288   19.3846316   18.4191954
| 16>     C       19.1812512   18.8933683   19.2302276
| 17>     S       20.1262498   19.8847076   20.1577438
| 18>     N       19.3490935   17.5325898   19.2340305
| 19>     C       18.4844387   16.5665023   18.5324412
| 20>     C       17.7354684   15.7120897   19.5512910
| 21>     C       18.0337597   14.3435559   19.6913300
| 22>     C       17.3435098   13.5533542   20.6258737
| 23>     C       16.3488506   14.1365959   21.4292950
| 24>     C       16.0528950   15.5001892   21.2960242
| 25>     O       15.0943837   16.0665276   22.0715993
| 26>     C       16.7414187   16.2839520   20.3650499
| 27>     H       14.3656344   14.6778342   16.2842493
| 28>     H       14.5453914   13.1736276   15.3644754
| 29>     H       15.1140786   14.6950075   14.6626114
| 30>     H       16.2834090   13.2051766   17.0860569
| 31>     H       17.0437710   13.3724596   15.5037130
| 32>     H       15.4495212   19.1978446   16.8549492
| 33>     H       16.7181299   19.2947257   15.6271120
| 34>     H       16.6054591   20.5376301   16.8815946
| 35>     H       18.0852988   20.3861711   18.4291092
| 36>     H       20.0585934   17.1969926   19.8725675
| 37>     H       19.1428315   15.9107313   17.9456399
| 38>     H       18.7999411   13.8897785   19.0685388
| 39>     H       17.5803890   12.4956046   20.7262754
| 40>     H       15.8133850   13.5308907   22.1529634
| 41>     H       14.7561350   15.3796646   22.6653701
| 42>     H       16.5026102   17.3388290   20.2826735
| 43> *
| 44> 
| 45>                          ****END OF INPUT****
================================================================================

                       ****************************
                       * Single Point Calculation *
                       ****************************

---------------------------------
CARTESIAN COORDINATES (ANGSTROEM)
---------------------------------
  C     15.025947   14.130788   15.599536
  C     16.411080   13.889003   16.236840
  O     17.116330   15.067648   16.709654
  C     16.727371   16.382714   16.624841
  O     15.883545   16.800782   15.852549
  C     17.525626   17.261970   17.550567
  C     17.405794   18.614718   17.558320
  C     16.501580   19.463344   16.689691
  N     18.193829   19.384632   18.419195
  C     19.181251   18.893368   19.230228
  S     20.126250   19.884708   20.157744
  N     19.349093   17.532590   19.234030
  C     18.484439   16.566502   18.532441
  C     17.735468   15.712090   19.551291
  C     18.033760   14.343556   19.691330
  C     17.343510   13.553354   20.625874
  C     16.348851   14.136596   21.429295
  C     16.052895   15.500189   21.296024
  O     15.094384   16.066528   22.071599
  C     16.741419   16.283952   20.365050
  H     14.365634   14.677834   16.284249
  H     14.545391   13.173628   15.364475
  H     15.114079   14.695007   14.662611
  H     16.283409   13.205177   17.086057
  H     17.043771   13.372460   15.503713
  H     15.449521   19.197845   16.854949
  H     16.718130   19.294726   15.627112
  H     16.605459   20.537630   16.881595
  H     18.085299   20.386171   18.429109
  H     20.058593   17.196993   19.872567
  H     19.142831   15.910731   17.945640
  H     18.799941   13.889778   19.068539
  H     17.580389   12.495605   20.726275
  H     15.813385   13.530891   22.152963
  H     14.756135   15.379665   22.665370
  H     16.502610   17.338829   20.282673

----------------------------
CARTESIAN COORDINATES (A.U.)
----------------------------
  NO LB      ZA    FRAG     MASS         X           Y           Z
   0 C     6.0000    0    12.011   28.394925   26.703319   29.478851
   1 C     6.0000    0    12.011   31.012446   26.246411   30.683181
   2 O     8.0000    0    15.999   32.345177   28.473729   31.576670
   3 C     6.0000    0    12.011   31.610151   30.958844   31.416397
   4 O     8.0000    0    15.999   30.015551   31.748877   29.956976
   5 C     6.0000    0    12.011   33.118633   32.620397   33.165766
   6 C     6.0000    0    12.011   32.892184   35.176719   33.180416
   7 C     6.0000    0    12.011   31.183467   36.780390   31.538945
   8 N     7.0000    0    14.007   34.381354   36.631645   34.807235
   9 C     6.0000    0    12.011   36.247312   35.703292   36.339864
  10 S    16.0000    0    32.060   38.033100   37.576652   38.092615
  11 N     7.0000    0    14.007   36.564488   33.131793   36.347050
  12 C     6.0000    0    12.011   34.930527   31.306152   35.021238
  13 C     6.0000    0    12.011   33.515178   29.691547   36.946586
  14 C     6.0000    0    12.011   34.078867   27.105392   37.211221
  15 C     6.0000    0    12.011   32.774484   25.612128   38.977253
  16 C     6.0000    0    12.011   30.894850   26.714295   40.495499
  17 C     6.0000    0    12.011   30.335575   29.291113   40.243653
  18 O     8.0000    0    15.999   28.524251   30.361337   41.709278
  19 C     6.0000    0    12.011   31.636696   30.772210   38.484367
  20 H     1.0000    0     1.008   27.147115   27.737087   30.772771
  21 H     1.0000    0     1.008   27.486806   24.894548   29.034651
  22 H     1.0000    0     1.008   28.561469   27.769540   27.708320
  23 H     1.0000    0     1.008   30.771184   24.954167   32.287968
  24 H     1.0000    0     1.008   32.208059   25.270286   29.297772
  25 H     1.0000    0     1.008   29.195364   36.278669   31.851238
  26 H     1.0000    0     1.008   31.592687   36.461747   29.530962
  27 H     1.0000    0     1.008   31.379770   38.810496   31.901590
  28 H     1.0000    0     1.008   34.176262   38.524280   34.825969
  29 H     1.0000    0     1.008   37.905248   32.497606   37.553710
  30 H     1.0000    0     1.008   36.174709   30.066925   33.912345
  31 H     1.0000    0     1.008   35.526740   26.247877   36.034316
  32 H     1.0000    0     1.008   33.222121   23.613271   39.166984
  33 H     1.0000    0     1.008   29.882967   25.569678   41.863034
  34 H     1.0000    0     1.008   27.885054   29.063354   42.831342
  35 H     1.0000    0     1.008   31.185414   32.765638   38.328698

--------------------------------
INTERNAL COORDINATES (ANGSTROEM)
--------------------------------
 C      0   0   0     0.000000000000     0.00000000     0.00000000
 C      1   0   0     1.543764253281     0.00000000     0.00000000
 O      2   1   0     1.452631185491   116.28908975     0.00000000
 C      3   2   1     1.374001925317   128.24713750   357.71572738
 O      4   3   2     1.217890861067   124.32093385   341.00542967
 C      4   3   2     1.505745784310   111.76885013   164.17561152
 C      6   4   3     1.358066646985   122.57330753   173.99884325
 C      7   6   4     1.514029687161   127.42592847   359.92453209
 N      7   6   4     1.398167750343   120.15128671   181.41168114
 C      9   7   6     1.368983511729   125.00825751     4.70241412
 S     10   9   7     1.654104671110   121.95162541   176.49190188
 N     10   9   7     1.371095775568   116.49315839   356.55510970
 C     12  10   9     1.474171132092   125.26021667   354.44684574
 C     13  12  10     1.526116743988   109.69571193   246.79910924
 C     14  13  12     1.407648174410   120.44578331   248.70942466
 C     15  14  13     1.405074936914   120.58608784   180.17393556
 C     16  15  14     1.405348209540   119.63904789   359.85618701
 C     17  16  15     1.401690947074   119.92194045   359.89756660
 O     18  17  16     1.356834489274   120.05703908   180.09115427
 C     18  17  16     1.398235373385   120.30719044     0.10876571
 H      1   2   3     1.097317308135   111.12477832   304.61455980
 H      1   2   3     1.096513917517   110.18215582   185.23274483
 H      1   2   3     1.097241593755   111.16020251    66.14322742
 H      2   1   3     1.097764433228   108.21412089   121.78104269
 H      2   1   3     1.097538527705   108.37190121   237.35334600
 H      8   7   6     1.097555367834   110.51758844    60.29834123
 H      8   7   6     1.097451796116   110.58061934   301.60498640
 H      8   7   6     1.096224446199   113.09539241   180.93545323
 H      9   7   6     1.007451445178   119.52277756   181.10611828
 H     12  10   9     1.011802890447   114.63127259   182.52423882
 H     13  12  10     1.099023407037   107.08350490   129.30955694
 H     15  14  13     1.086653921566   119.89308200   359.80458616
 H     16  15  14     1.088589212263   120.05991459   179.93371630
 H     17  16  15     1.085033709729   119.92708241   180.04190452
 H     19  18  17     0.968894590115   107.51898462     1.80460200
 H     20  18  17     1.084703118866   119.16175510   180.45681611

---------------------------
INTERNAL COORDINATES (A.U.)
---------------------------
 C      0   0   0     0.000000000000     0.00000000     0.00000000
 C      1   0   0     2.917291654039     0.00000000     0.00000000
 O      2   1   0     2.745075114172   116.28908975     0.00000000
 C      3   2   1     2.596487346329   128.24713750   357.71572738
 O      4   3   2     2.301480188423   124.32093385   341.00542967
 C      4   3   2     2.845447159652   111.76885013   164.17561152
 C      6   4   3     2.566374034415   122.57330753   173.99884325
 C      7   6   4     2.861101467361   127.42592847   359.92453209
 N      7   6   4     2.642154137429   120.15128671   181.41168114
 C      9   7   6     2.587003919021   125.00825751     4.70241412
 S     10   9   7     3.125804825238   121.95162541   176.49190188
 N     10   9   7     2.590995519200   116.49315839   356.55510970
 C     12  10   9     2.785779714187   125.26021667   354.44684574
 C     13  12  10     2.883942694529   109.69571193   246.79910924
 C     14  13  12     2.660069542549   120.44578331   248.70942466
 C     15  14  13     2.655206828403   120.58608784   180.17393556
 C     16  15  14     2.655723238827   119.63904789   359.85618701
 C     17  16  15     2.648812014366   119.92194045   359.89756660
 O     18  17  16     2.564045593786   120.05703908   180.09115427
 C     18  17  16     2.642281926459   120.30719044     0.10876571
 H      1   2   3     2.073629194386   111.12477832   304.61455980
 H      1   2   3     2.072111006141   110.18215582   185.23274483
 H      1   2   3     2.073486114944   111.16020251    66.14322742
 H      2   1   3     2.074474138361   108.21412089   121.78104269
 H      2   1   3     2.074047238790   108.37190121   237.35334600
 H      8   7   6     2.074079062022   110.51758844    60.29834123
 H      8   7   6     2.073883339840   110.58061934   301.60498640
 H      8   7   6     2.071563984625   113.09539241   180.93545323
 H      9   7   6     1.903807324609   119.52277756   181.10611828
 H     12  10   9     1.912030364455   114.63127259   182.52423882
 H     13  12  10     2.076853254068   107.08350490   129.30955694
 H     15  14  13     2.053478314111   119.89308200   359.80458616
 H     16  15  14     2.057135483518   120.05991459   179.93371630
 H     17  16  15     2.050416557461   119.92708241   180.04190452
 H     19  18  17     1.830945427954   107.51898462     1.80460200
 H     20  18  17     2.049791831267   119.16175510   180.45681611

---------------------
BASIS SET INFORMATION
---------------------
There are 5 groups of distinct atoms

 Group   1 Type C   : 18s5p2d1f contracted to 4s3p2d1f pattern {8811/311/11/1}
 Group   2 Type O   : 18s5p2d1f contracted to 4s3p2d1f pattern {8811/311/11/1}
 Group   3 Type N   : 18s5p2d1f contracted to 4s3p2d1f pattern {8811/311/11/1}
 Group   4 Type S   : 41s16p2d1f contracted to 5s4p2d1f pattern {13131311/7711/11/1}
 Group   5 Type H   : 5s2p1d contracted to 3s2p1d pattern {311/11/1}

Atom   0C    basis set group =>   1
Atom   1C    basis set group =>   1
Atom   2O    basis set group =>   2
Atom   3C    basis set group =>   1
Atom   4O    basis set group =>   2
Atom   5C    basis set group =>   1
Atom   6C    basis set group =>   1
Atom   7C    basis set group =>   1
Atom   8N    basis set group =>   3
Atom   9C    basis set group =>   1
Atom  10S    basis set group =>   4
Atom  11N    basis set group =>   3
Atom  12C    basis set group =>   1
Atom  13C    basis set group =>   1
Atom  14C    basis set group =>   1
Atom  15C    basis set group =>   1
Atom  16C    basis set group =>   1
Atom  17C    basis set group =>   1
Atom  18O    basis set group =>   2
Atom  19C    basis set group =>   1
Atom  20H    basis set group =>   5
Atom  21H    basis set group =>   5
Atom  22H    basis set group =>   5
Atom  23H    basis set group =>   5
Atom  24H    basis set group =>   5
Atom  25H    basis set group =>   5
Atom  26H    basis set group =>   5
Atom  27H    basis set group =>   5
Atom  28H    basis set group =>   5
Atom  29H    basis set group =>   5
Atom  30H    basis set group =>   5
Atom  31H    basis set group =>   5
Atom  32H    basis set group =>   5
Atom  33H    basis set group =>   5
Atom  34H    basis set group =>   5
Atom  35H    basis set group =>   5
---------------------------------
AUXILIARY/C BASIS SET INFORMATION
---------------------------------
There are 5 groups of distinct atoms

 Group   1 Type C   : 8s6p5d3f1g contracted to 8s6p5d3f1g pattern {11111111/111111/11111/111/1}
 Group   2 Type O   : 8s6p5d3f1g contracted to 8s6p5d3f1g pattern {11111111/111111/11111/111/1}
 Group   3 Type N   : 8s6p5d3f1g contracted to 8s6p5d3f1g pattern {11111111/111111/11111/111/1}
 Group   4 Type S   : 10s8p7d5f2g contracted to 10s8p7d5f2g pattern {1111111111/11111111/1111111/11111/11}
 Group   5 Type H   : 4s3p2d1f contracted to 4s3p2d1f pattern {1111/111/11/1}

Atom   0C    basis set group =>   1
Atom   1C    basis set group =>   1
Atom   2O    basis set group =>   2
Atom   3C    basis set group =>   1
Atom   4O    basis set group =>   2
Atom   5C    basis set group =>   1
Atom   6C    basis set group =>   1
Atom   7C    basis set group =>   1
Atom   8N    basis set group =>   3
Atom   9C    basis set group =>   1
Atom  10S    basis set group =>   4
Atom  11N    basis set group =>   3
Atom  12C    basis set group =>   1
Atom  13C    basis set group =>   1
Atom  14C    basis set group =>   1
Atom  15C    basis set group =>   1
Atom  16C    basis set group =>   1
Atom  17C    basis set group =>   1
Atom  18O    basis set group =>   2
Atom  19C    basis set group =>   1
Atom  20H    basis set group =>   5
Atom  21H    basis set group =>   5
Atom  22H    basis set group =>   5
Atom  23H    basis set group =>   5
Atom  24H    basis set group =>   5
Atom  25H    basis set group =>   5
Atom  26H    basis set group =>   5
Atom  27H    basis set group =>   5
Atom  28H    basis set group =>   5
Atom  29H    basis set group =>   5
Atom  30H    basis set group =>   5
Atom  31H    basis set group =>   5
Atom  32H    basis set group =>   5
Atom  33H    basis set group =>   5
Atom  34H    basis set group =>   5
Atom  35H    basis set group =>   5
------------------------------------------------------------------------------
                           ORCA GTO INTEGRAL CALCULATION
------------------------------------------------------------------------------
------------------------------------------------------------------------------
                   ___                                                        
                  /   \      - P O W E R E D   B Y -                         
                 /     \                                                     
                 |  |  |   _    _      __       _____    __    __             
                 |  |  |  | |  | |    /  \     |  _  \  |  |  /  |          
                  \  \/   | |  | |   /    \    | | | |  |  | /  /          
                 / \  \   | |__| |  /  /\  \   | |_| |  |  |/  /          
                |  |  |   |  __  | /  /__\  \  |    /   |      \           
                |  |  |   | |  | | |   __   |  |    \   |  |\   \          
                \     /   | |  | | |  |  |  |  | |\  \  |  | \   \       
                 \___/    |_|  |_| |__|  |__|  |_| \__\ |__|  \__/        
                                                                              
                      - O R C A' S   B I G   F R I E N D -                    
                                      &                                       
                       - I N T E G R A L  F E E D E R -                       
                                                                              
 v1 FN, 2020, v2 2021                                                         
------------------------------------------------------------------------------


Reading SHARK input file CONFS/Conf495.orca.SHARKINP.tmp ... ok
----------------------
SHARK INTEGRAL PACKAGE
----------------------

Number of atoms                             ...     36
Number of basis functions                   ...    828
Number of shells                            ...    298
Maximum angular momentum                    ...      3
Integral batch strategy                     ... SHARK/LIBINT Hybrid
RI-J (if used) integral strategy            ... SPLIT-RIJ (Revised 2003 algorithm where possible)
Printlevel                                  ...      1
Contraction scheme used                     ... SEGMENTED contraction
Coulomb Range Separation                    ... NOT USED
Exchange Range Separation                   ... NOT USED
Finite Nucleus Model                        ... NOT USED
Auxiliary Coulomb fitting basis             ... NOT available
Auxiliary J/K fitting basis                 ... NOT available
Auxiliary Correlation fitting basis         ... AVAILABLE
   # of basis functions in Aux-C            ...   2141
   # of shells in Aux-C                     ...    629
   Maximum angular momentum in Aux-C        ...      4
Auxiliary 'external' fitting basis          ... NOT available
Integral threshold                          ...     2.500000e-11
Primitive cut-off                           ...     2.500000e-12
Primitive pair pre-selection threshold      ...     2.500000e-12

Calculating pre-screening integrals         ... done (  0.7 sec) Dimension = 298
Organizing shell pair data                  ... done (  1.3 sec)
Shell pair information
Total number of shell pairs                 ...     44551
Shell pairs after pre-screening             ...     32887
Total number of primitive shell pairs       ...    234348
Primitive shell pairs kept                  ...     94278
          la=0 lb=0:   6585 shell pairs
          la=1 lb=0:   9142 shell pairs
          la=1 lb=1:   3215 shell pairs
          la=2 lb=0:   5247 shell pairs
          la=2 lb=1:   3596 shell pairs
          la=2 lb=2:   1026 shell pairs
          la=3 lb=0:   1906 shell pairs
          la=3 lb=1:   1301 shell pairs
          la=3 lb=2:    722 shell pairs
          la=3 lb=3:    147 shell pairs

Calculating one electron integrals          ... done (  0.4 sec)
Calculating RI/C V-Matrix + Cholesky decomp.... done (  1.2 sec)
Calculating Nuclear repulsion               ... done (  0.0 sec) ENN=   1698.595098006080 Eh

SHARK setup successfully completed in   4.1 seconds

Maximum memory used throughout the entire GTOINT-calculation: 487.5 MB
-------------------------------------------------------------------------------
                                 ORCA SCF
-------------------------------------------------------------------------------

------------
SCF SETTINGS
------------
Hamiltonian:
 Ab initio Hamiltonian  Method          .... Hartree-Fock(GTOs)


General Settings:
 Integral files         IntName         .... CONFS/Conf495.orca
 Hartree-Fock type      HFTyp           .... RHF
 Total Charge           Charge          ....    0
 Multiplicity           Mult            ....    1
 Number of Electrons    NEL             ....  154
 Basis Dimension        Dim             ....  828
 Nuclear Repulsion      ENuc            ....   1698.5950980061 Eh

Convergence Acceleration:
 DIIS                   CNVDIIS         .... on
   Start iteration      DIISMaxIt       ....    12
   Startup error        DIISStart       ....  0.200000
   # of expansion vecs  DIISMaxEq       ....     5
   Bias factor          DIISBfac        ....   1.050
   Max. coefficient     DIISMaxC        ....  10.000
 Trust-Rad. Augm. Hess. CNVTRAH         .... auto
   Auto Start mean grad. ratio tolernc. ....  1.125000
   Auto Start start iteration           ....    20
   Auto Start num. interpolation iter.  ....    10
   Max. Number of Micro iterations      ....    16
   Max. Number of Macro iterations      .... Maxiter - #DIIS iter
   Number of Davidson start vectors     ....     2
   Converg. threshold I  (grad. norm)   ....   1.000e-05
   Converg. threshold II (energy diff.) ....   1.000e-08
   Grad. Scal. Fac. for Micro threshold ....   0.100
   Minimum threshold for Micro iter.    ....   0.010
   NR start threshold (gradient norm)   ....   0.001
   Initial trust radius                 ....   0.400
   Minimum AH scaling param. (alpha)    ....   1.000
   Maximum AH scaling param. (alpha)    .... 1000.000
   Orbital update algorithm             .... Taylor
   White noise on init. David. guess    .... on
   Maximum white noise                  ....   0.010
   Quad. conv. algorithm                .... NR
 SOSCF                  CNVSOSCF        .... on
   Start iteration      SOSCFMaxIt      ....   150
   Startup grad/error   SOSCFStart      ....  0.003300
 Level Shifting         CNVShift        .... on
   Level shift para.    LevelShift      ....    0.2500
   Turn off err/grad.   ShiftErr        ....    0.0010
 Zerner damping         CNVZerner       .... off
 Static damping         CNVDamp         .... on
   Fraction old density DampFac         ....    0.7000
   Max. Damping (<1)    DampMax         ....    0.9800
   Min. Damping (>=0)   DampMin         ....    0.0000
   Turn off err/grad.   DampErr         ....    0.1000
 Fernandez-Rico         CNVRico         .... off

SCF Procedure:
 Maximum # iterations   MaxIter         ....   125
 SCF integral mode      SCFMode         .... Direct
   Integral package                     .... SHARK and LIBINT hybrid scheme
 Reset frequency        DirectResetFreq ....    20
 Integral Threshold     Thresh          ....  2.500e-11 Eh
 Primitive CutOff       TCut            ....  2.500e-12 Eh

Convergence Tolerance:
 Convergence Check Mode ConvCheckMode   .... Total+1el-Energy
 Convergence forced     ConvForced      .... 1
 Energy Change          TolE            ....  1.000e-08 Eh
 1-El. energy change                    ....  1.000e-05 Eh
 Orbital Gradient       TolG            ....  1.000e-05
 Orbital Rotation angle TolX            ....  1.000e-05
 DIIS Error             TolErr          ....  5.000e-07


Diagonalization of the overlap matrix:
Smallest eigenvalue                        ... 3.469e-05
Time for diagonalization                   ...    0.148 sec
Threshold for overlap eigenvalues          ... 1.000e-08
Number of eigenvalues below threshold      ... 0
Time for construction of square roots      ...    0.067 sec
Total time needed                          ...    0.218 sec

Time for model grid setup =    1.627 sec

------------------------------
INITIAL GUESS: MODEL POTENTIAL
------------------------------
Loading Hartree-Fock densities                     ... done
Calculating cut-offs                               ... done
Initializing the effective Hamiltonian             ... done
Setting up the integral package (SHARK)            ... done
Starting the Coulomb interaction                   ... done (   4.7 sec)
Reading the grid                                   ... done
Mapping shells                                     ... done
Starting the XC term evaluation                    ... done (   1.7 sec)
Transforming the Hamiltonian                       ... done (   0.1 sec)
Diagonalizing the Hamiltonian                      ... done (   0.1 sec)
Back transforming the eigenvectors                 ... done (   0.0 sec)
Now organizing SCF variables                       ... done
                      ------------------
                      INITIAL GUESS DONE (   8.4 sec)
                      ------------------
--------------
SCF ITERATIONS
--------------
ITER       Energy         Delta-E        Max-DP      RMS-DP      [F,P]     Damp
               ***  Starting incremental Fock matrix formation  ***
  0  -1270.0090467463   0.000000000000 0.04930269  0.00042792  0.3026832 0.7000
  1  -1270.2771477054  -0.268100959066 0.03607189  0.00034317  0.1771570 0.7000
                               ***Turning on DIIS***
  2  -1270.4444098106  -0.167262105287 0.02583174  0.00023185  0.1096361 0.7000
  3  -1272.5919947723  -2.147584961655 0.06312611  0.00050933  0.0829165 0.0000
  4  -1270.7526387911   1.839355981184 0.00649934  0.00009146  0.0069533 0.0000
  5  -1270.8135041718  -0.060865380701 0.00322381  0.00004857  0.0048820 0.0000
                      *** Initiating the SOSCF procedure ***
                           *** Shutting down DIIS ***
                      *** Re-Reading the Fockian *** 
                      *** Removing any level shift *** 
ITER      Energy       Delta-E        Grad      Rot      Max-DP    RMS-DP
  6  -1270.79286734   0.0206368361  0.001581  0.001581  0.001699  0.000025
               *** Restarting incremental Fock matrix formation ***
  7  -1270.80783794  -0.0149706062  0.000864  0.002203  0.001274  0.000015
  8  -1270.80788190  -0.0000439615  0.000375  0.002438  0.001385  0.000015
  9  -1270.80789816  -0.0000162519  0.000170  0.000350  0.000354  0.000004
 10  -1270.80790019  -0.0000020350  0.000059  0.000156  0.000113  0.000001
 11  -1270.80790039  -0.0000001961  0.000024  0.000119  0.000052  0.000001
 12  -1270.80790045  -0.0000000612  0.000010  0.000040  0.000033  0.000000
 13  -1270.80790045   0.0000000011  0.000003  0.000011  0.000007  0.000000
                  ***Gradient check signals convergence***
              ***Rediagonalizing the Fockian in SOSCF/NRSCF***

               *****************************************************
               *                     SUCCESS                       *
               *           SCF CONVERGED AFTER  14 CYCLES          *
               *****************************************************


----------------
TOTAL SCF ENERGY
----------------

Total Energy       :        -1270.80790043 Eh          -34580.44101 eV

Components:
Nuclear Repulsion  :         1698.59509801 Eh           46221.12245 eV
Electronic Energy  :        -2969.40299844 Eh          -80801.56346 eV
One Electron Energy:        -5118.61374582 Eh         -139284.56111 eV
Two Electron Energy:         2149.21074738 Eh           58482.99765 eV

Virial components:
Potential Energy   :        -2539.69108608 Eh          -69108.50786 eV
Kinetic Energy     :         1268.88318565 Eh           34528.06685 eV
Virial Ratio       :            2.00151686


---------------
SCF CONVERGENCE
---------------

  Last Energy change         ...    1.5300e-08  Tolerance :   1.0000e-08
  Last MAX-Density change    ...    1.6981e-06  Tolerance :   1.0000e-07
  Last RMS-Density change    ...    2.6527e-08  Tolerance :   5.0000e-09
  Last Orbital Gradient      ...    1.3202e-06  Tolerance :   1.0000e-05
  Last Orbital Rotation      ...    2.9978e-06  Tolerance :   1.0000e-05

             **** THE GBW FILE WAS UPDATED (CONFS/Conf495.orca.gbw) ****
             **** DENSITY CONFS/Conf495.orca.scfp WAS UPDATED ****
             **** ENERGY FILE WAS UPDATED (CONFS/Conf495.orca.en.tmp) ****
             **** THE GBW FILE WAS UPDATED (CONFS/Conf495.orca.gbw) ****
             **** DENSITY CONFS/Conf495.orca.scfp WAS UPDATED ****
----------------
ORBITAL ENERGIES
----------------

  NO   OCC          E(Eh)            E(eV) 
   0   2.0000     -91.887733     -2500.3923 
   1   2.0000     -20.597892      -560.4971 
   2   2.0000     -20.596330      -560.4546 
   3   2.0000     -20.539740      -558.9147 
   4   2.0000     -15.627700      -425.2513 
   5   2.0000     -15.606995      -424.6879 
   6   2.0000     -11.397773      -310.1492 
   7   2.0000     -11.382743      -309.7402 
   8   2.0000     -11.334549      -308.4288 
   9   2.0000     -11.313455      -307.8548 
  10   2.0000     -11.307239      -307.6856 
  11   2.0000     -11.303060      -307.5719 
  12   2.0000     -11.259226      -306.3791 
  13   2.0000     -11.257737      -306.3386 
  14   2.0000     -11.255076      -306.2662 
  15   2.0000     -11.250910      -306.1528 
  16   2.0000     -11.242731      -305.9303 
  17   2.0000     -11.237968      -305.8006 
  18   2.0000     -11.237917      -305.7993 
  19   2.0000     -11.222968      -305.3925 
  20   2.0000      -8.892809      -241.9856 
  21   2.0000      -6.574388      -178.8982 
  22   2.0000      -6.572380      -178.8436 
  23   2.0000      -6.571796      -178.8277 
  24   2.0000      -1.441951       -39.2375 
  25   2.0000      -1.415973       -38.5306 
  26   2.0000      -1.353754       -36.8375 
  27   2.0000      -1.338833       -36.4315 
  28   2.0000      -1.237341       -33.6698 
  29   2.0000      -1.157016       -31.4840 
  30   2.0000      -1.118752       -30.4428 
  31   2.0000      -1.041864       -28.3506 
  32   2.0000      -1.036345       -28.2004 
  33   2.0000      -1.014719       -27.6119 
  34   2.0000      -0.994494       -27.0615 
  35   2.0000      -0.982727       -26.7414 
  36   2.0000      -0.921445       -25.0738 
  37   2.0000      -0.898211       -24.4416 
  38   2.0000      -0.846318       -23.0295 
  39   2.0000      -0.837418       -22.7873 
  40   2.0000      -0.833687       -22.6858 
  41   2.0000      -0.817859       -22.2551 
  42   2.0000      -0.743919       -20.2431 
  43   2.0000      -0.730018       -19.8648 
  44   2.0000      -0.717688       -19.5293 
  45   2.0000      -0.695235       -18.9183 
  46   2.0000      -0.686935       -18.6924 
  47   2.0000      -0.673792       -18.3348 
  48   2.0000      -0.670356       -18.2413 
  49   2.0000      -0.661776       -18.0078 
  50   2.0000      -0.650597       -17.7036 
  51   2.0000      -0.643259       -17.5040 
  52   2.0000      -0.635115       -17.2823 
  53   2.0000      -0.606595       -16.5063 
  54   2.0000      -0.602861       -16.4047 
  55   2.0000      -0.599721       -16.3192 
  56   2.0000      -0.597821       -16.2675 
  57   2.0000      -0.577956       -15.7270 
  58   2.0000      -0.574797       -15.6410 
  59   2.0000      -0.569830       -15.5059 
  60   2.0000      -0.560604       -15.2548 
  61   2.0000      -0.539113       -14.6700 
  62   2.0000      -0.535199       -14.5635 
  63   2.0000      -0.525351       -14.2955 
  64   2.0000      -0.522473       -14.2172 
  65   2.0000      -0.512376       -13.9425 
  66   2.0000      -0.501251       -13.6397 
  67   2.0000      -0.498118       -13.5545 
  68   2.0000      -0.484850       -13.1934 
  69   2.0000      -0.462571       -12.5872 
  70   2.0000      -0.450956       -12.2711 
  71   2.0000      -0.440076       -11.9751 
  72   2.0000      -0.352769        -9.5993 
  73   2.0000      -0.348927        -9.4948 
  74   2.0000      -0.327264        -8.9053 
  75   2.0000      -0.321108        -8.7378 
  76   2.0000      -0.315027        -8.5723 
  77   0.0000       0.077889         2.1195 
  78   0.0000       0.106508         2.8982 
  79   0.0000       0.125497         3.4149 
  80   0.0000       0.133288         3.6269 
  81   0.0000       0.138190         3.7603 
  82   0.0000       0.141306         3.8451 
  83   0.0000       0.149074         4.0565 
  84   0.0000       0.158124         4.3028 
  85   0.0000       0.167603         4.5607 
  86   0.0000       0.170161         4.6303 
  87   0.0000       0.178911         4.8684 
  88   0.0000       0.193093         5.2543 
  89   0.0000       0.195988         5.3331 
  90   0.0000       0.198919         5.4129 
  91   0.0000       0.211960         5.7677 
  92   0.0000       0.212570         5.7843 
  93   0.0000       0.214348         5.8327 
  94   0.0000       0.225693         6.1414 
  95   0.0000       0.235389         6.4053 
  96   0.0000       0.246777         6.7152 
  97   0.0000       0.248185         6.7535 
  98   0.0000       0.261246         7.1089 
  99   0.0000       0.269696         7.3388 
 100   0.0000       0.294271         8.0075 
 101   0.0000       0.307118         8.3571 
 102   0.0000       0.315829         8.5942 
 103   0.0000       0.319959         8.7065 
 104   0.0000       0.327394         8.9089 
 105   0.0000       0.337964         9.1965 
 106   0.0000       0.341793         9.3007 
 107   0.0000       0.346891         9.4394 
 108   0.0000       0.361986         9.8502 
 109   0.0000       0.369016        10.0414 
 110   0.0000       0.376171        10.2361 
 111   0.0000       0.380818        10.3626 
 112   0.0000       0.384990        10.4761 
 113   0.0000       0.386190        10.5088 
 114   0.0000       0.397623        10.8199 
 115   0.0000       0.404460        11.0059 
 116   0.0000       0.411605        11.2003 
 117   0.0000       0.430290        11.7088 
 118   0.0000       0.433329        11.7915 
 119   0.0000       0.434699        11.8288 
 120   0.0000       0.446437        12.1482 
 121   0.0000       0.450024        12.2458 
 122   0.0000       0.455866        12.4048 
 123   0.0000       0.458822        12.4852 
 124   0.0000       0.465847        12.6763 
 125   0.0000       0.471619        12.8334 
 126   0.0000       0.473793        12.8925 
 127   0.0000       0.478807        13.0290 
 128   0.0000       0.485300        13.2057 
 129   0.0000       0.495222        13.4757 
 130   0.0000       0.503078        13.6895 
 131   0.0000       0.507951        13.8220 
 132   0.0000       0.510585        13.8937 
 133   0.0000       0.513532        13.9739 
 134   0.0000       0.521708        14.1964 
 135   0.0000       0.527851        14.3636 
 136   0.0000       0.535124        14.5615 
 137   0.0000       0.536420        14.5967 
 138   0.0000       0.542581        14.7644 
 139   0.0000       0.547159        14.8890 
 140   0.0000       0.559338        15.2204 
 141   0.0000       0.565785        15.3958 
 142   0.0000       0.566002        15.4017 
 143   0.0000       0.568476        15.4690 
 144   0.0000       0.577024        15.7016 
 145   0.0000       0.580696        15.8016 
 146   0.0000       0.586521        15.9600 
 147   0.0000       0.592617        16.1259 
 148   0.0000       0.598139        16.2762 
 149   0.0000       0.604139        16.4395 
 150   0.0000       0.605225        16.4690 
 151   0.0000       0.606580        16.5059 
 152   0.0000       0.611965        16.6524 
 153   0.0000       0.616980        16.7889 
 154   0.0000       0.617893        16.8137 
 155   0.0000       0.622554        16.9405 
 156   0.0000       0.625457        17.0196 
 157   0.0000       0.630199        17.1486 
 158   0.0000       0.639339        17.3973 
 159   0.0000       0.641285        17.4503 
 160   0.0000       0.645834        17.5740 
 161   0.0000       0.651029        17.7154 
 162   0.0000       0.658467        17.9178 
 163   0.0000       0.663162        18.0456 
 164   0.0000       0.665338        18.1048 
 165   0.0000       0.670690        18.2504 
 166   0.0000       0.676141        18.3987 
 167   0.0000       0.679981        18.5032 
 168   0.0000       0.684526        18.6269 
 169   0.0000       0.693632        18.8747 
 170   0.0000       0.697723        18.9860 
 171   0.0000       0.707816        19.2607 
 172   0.0000       0.711513        19.3613 
 173   0.0000       0.717877        19.5344 
 174   0.0000       0.723391        19.6845 
 175   0.0000       0.729336        19.8462 
 176   0.0000       0.741665        20.1817 
 177   0.0000       0.747025        20.3276 
 178   0.0000       0.752869        20.4866 
 179   0.0000       0.759078        20.6556 
 180   0.0000       0.763250        20.7691 
 181   0.0000       0.768067        20.9002 
 182   0.0000       0.776174        21.1208 
 183   0.0000       0.779985        21.2245 
 184   0.0000       0.799189        21.7470 
 185   0.0000       0.802455        21.8359 
 186   0.0000       0.816066        22.2063 
 187   0.0000       0.823046        22.3962 
 188   0.0000       0.831744        22.6329 
 189   0.0000       0.834278        22.7019 
 190   0.0000       0.846269        23.0281 
 191   0.0000       0.851951        23.1828 
 192   0.0000       0.856074        23.2950 
 193   0.0000       0.864443        23.5227 
 194   0.0000       0.868778        23.6406 
 195   0.0000       0.872951        23.7542 
 196   0.0000       0.884797        24.0766 
 197   0.0000       0.887195        24.1418 
 198   0.0000       0.896023        24.3820 
 199   0.0000       0.904873        24.6228 
 200   0.0000       0.914044        24.8724 
 201   0.0000       0.921846        25.0847 
 202   0.0000       0.926642        25.2152 
 203   0.0000       0.935674        25.4610 
 204   0.0000       0.939152        25.5556 
 205   0.0000       0.948921        25.8214 
 206   0.0000       0.960060        26.1246 
 207   0.0000       0.962779        26.1985 
 208   0.0000       0.963302        26.2128 
 209   0.0000       0.969692        26.3867 
 210   0.0000       0.983608        26.7653 
 211   0.0000       0.991709        26.9858 
 212   0.0000       0.993855        27.0442 
 213   0.0000       0.999216        27.1900 
 214   0.0000       1.005809        27.3695 
 215   0.0000       1.018794        27.7228 
 216   0.0000       1.019895        27.7528 
 217   0.0000       1.029463        28.0131 
 218   0.0000       1.038118        28.2486 
 219   0.0000       1.044187        28.4138 
 220   0.0000       1.050630        28.5891 
 221   0.0000       1.062999        28.9257 
 222   0.0000       1.069244        29.0956 
 223   0.0000       1.079530        29.3755 
 224   0.0000       1.081482        29.4286 
 225   0.0000       1.083791        29.4915 
 226   0.0000       1.094112        29.7723 
 227   0.0000       1.113084        30.2886 
 228   0.0000       1.117090        30.3976 
 229   0.0000       1.117604        30.4116 
 230   0.0000       1.130678        30.7673 
 231   0.0000       1.137207        30.9450 
 232   0.0000       1.143179        31.1075 
 233   0.0000       1.147103        31.2143 
 234   0.0000       1.151632        31.3375 
 235   0.0000       1.165891        31.7255 
 236   0.0000       1.167162        31.7601 
 237   0.0000       1.173608        31.9355 
 238   0.0000       1.181106        32.1395 
 239   0.0000       1.188432        32.3389 
 240   0.0000       1.194579        32.5061 
 241   0.0000       1.195946        32.5433 
 242   0.0000       1.215256        33.0688 
 243   0.0000       1.216613        33.1057 
 244   0.0000       1.225970        33.3604 
 245   0.0000       1.229012        33.4431 
 246   0.0000       1.234197        33.5842 
 247   0.0000       1.239618        33.7317 
 248   0.0000       1.248859        33.9832 
 249   0.0000       1.253529        34.1103 
 250   0.0000       1.260708        34.3056 
 251   0.0000       1.262910        34.3655 
 252   0.0000       1.277201        34.7544 
 253   0.0000       1.281048        34.8591 
 254   0.0000       1.288149        35.0523 
 255   0.0000       1.294544        35.2263 
 256   0.0000       1.301451        35.4143 
 257   0.0000       1.309112        35.6227 
 258   0.0000       1.323759        36.0213 
 259   0.0000       1.329847        36.1870 
 260   0.0000       1.350021        36.7359 
 261   0.0000       1.355340        36.8807 
 262   0.0000       1.356453        36.9110 
 263   0.0000       1.363512        37.1030 
 264   0.0000       1.372757        37.3546 
 265   0.0000       1.382739        37.6262 
 266   0.0000       1.391954        37.8770 
 267   0.0000       1.394969        37.9590 
 268   0.0000       1.409729        38.3607 
 269   0.0000       1.416504        38.5450 
 270   0.0000       1.423313        38.7303 
 271   0.0000       1.429070        38.8870 
 272   0.0000       1.438691        39.1488 
 273   0.0000       1.442963        39.2650 
 274   0.0000       1.458109        39.6771 
 275   0.0000       1.464574        39.8531 
 276   0.0000       1.474014        40.1100 
 277   0.0000       1.481097        40.3027 
 278   0.0000       1.484457        40.3941 
 279   0.0000       1.489067        40.5196 
 280   0.0000       1.498202        40.7681 
 281   0.0000       1.499970        40.8162 
 282   0.0000       1.509780        41.0832 
 283   0.0000       1.513513        41.1848 
 284   0.0000       1.515300        41.2334 
 285   0.0000       1.521554        41.4036 
 286   0.0000       1.527110        41.5548 
 287   0.0000       1.536412        41.8079 
 288   0.0000       1.540682        41.9241 
 289   0.0000       1.547096        42.0986 
 290   0.0000       1.554606        42.3030 
 291   0.0000       1.558893        42.4196 
 292   0.0000       1.563935        42.5568 
 293   0.0000       1.572338        42.7855 
 294   0.0000       1.585767        43.1509 
 295   0.0000       1.593286        43.3555 
 296   0.0000       1.601100        43.5682 
 297   0.0000       1.605238        43.6808 
 298   0.0000       1.610867        43.8339 
 299   0.0000       1.618925        44.0532 
 300   0.0000       1.635631        44.5078 
 301   0.0000       1.644865        44.7591 
 302   0.0000       1.651482        44.9391 
 303   0.0000       1.653707        44.9997 
 304   0.0000       1.666444        45.3462 
 305   0.0000       1.672033        45.4983 
 306   0.0000       1.686838        45.9012 
 307   0.0000       1.690879        46.0112 
 308   0.0000       1.695608        46.1398 
 309   0.0000       1.707347        46.4593 
 310   0.0000       1.717106        46.7248 
 311   0.0000       1.731649        47.1206 
 312   0.0000       1.735855        47.2350 
 313   0.0000       1.738242        47.3000 
 314   0.0000       1.747561        47.5536 
 315   0.0000       1.761679        47.9377 
 316   0.0000       1.779579        48.4248 
 317   0.0000       1.782160        48.4950 
 318   0.0000       1.785796        48.5940 
 319   0.0000       1.796245        48.8783 
 320   0.0000       1.808543        49.2130 
 321   0.0000       1.813910        49.3590 
 322   0.0000       1.825932        49.6861 
 323   0.0000       1.834555        49.9208 
 324   0.0000       1.846083        50.2345 
 325   0.0000       1.859763        50.6067 
 326   0.0000       1.874329        51.0031 
 327   0.0000       1.885704        51.3126 
 328   0.0000       1.896026        51.5935 
 329   0.0000       1.910592        51.9899 
 330   0.0000       1.918188        52.1966 
 331   0.0000       1.929544        52.5056 
 332   0.0000       1.935209        52.6597 
 333   0.0000       1.940167        52.7946 
 334   0.0000       1.951263        53.0966 
 335   0.0000       1.963707        53.4352 
 336   0.0000       1.980578        53.8943 
 337   0.0000       1.995849        54.3098 
 338   0.0000       2.011551        54.7371 
 339   0.0000       2.024433        55.0876 
 340   0.0000       2.029220        55.2179 
 341   0.0000       2.040661        55.5292 
 342   0.0000       2.042988        55.5925 
 343   0.0000       2.074346        56.4458 
 344   0.0000       2.097432        57.0740 
 345   0.0000       2.120033        57.6890 
 346   0.0000       2.125302        57.8324 
 347   0.0000       2.133810        58.0639 
 348   0.0000       2.153501        58.5997 
 349   0.0000       2.158534        58.7367 
 350   0.0000       2.174966        59.1838 
 351   0.0000       2.186021        59.4847 
 352   0.0000       2.212541        60.2063 
 353   0.0000       2.213085        60.2211 
 354   0.0000       2.232215        60.7417 
 355   0.0000       2.258513        61.4573 
 356   0.0000       2.278121        61.9908 
 357   0.0000       2.285478        62.1910 
 358   0.0000       2.296678        62.4958 
 359   0.0000       2.301697        62.6324 
 360   0.0000       2.311695        62.9044 
 361   0.0000       2.333078        63.4863 
 362   0.0000       2.343726        63.7760 
 363   0.0000       2.351583        63.9898 
 364   0.0000       2.360114        64.2220 
 365   0.0000       2.380550        64.7780 
 366   0.0000       2.394613        65.1607 
 367   0.0000       2.403290        65.3969 
 368   0.0000       2.419527        65.8387 
 369   0.0000       2.429928        66.1217 
 370   0.0000       2.455813        66.8261 
 371   0.0000       2.461907        66.9919 
 372   0.0000       2.470797        67.2338 
 373   0.0000       2.471984        67.2661 
 374   0.0000       2.483738        67.5859 
 375   0.0000       2.493691        67.8568 
 376   0.0000       2.508340        68.2554 
 377   0.0000       2.517584        68.5069 
 378   0.0000       2.527328        68.7721 
 379   0.0000       2.552437        69.4553 
 380   0.0000       2.567908        69.8763 
 381   0.0000       2.574532        70.0566 
 382   0.0000       2.583104        70.2898 
 383   0.0000       2.607980        70.9668 
 384   0.0000       2.622653        71.3660 
 385   0.0000       2.624165        71.4072 
 386   0.0000       2.638484        71.7968 
 387   0.0000       2.641528        71.8796 
 388   0.0000       2.658715        72.3473 
 389   0.0000       2.672741        72.7290 
 390   0.0000       2.690410        73.2098 
 391   0.0000       2.697473        73.4020 
 392   0.0000       2.700548        73.4856 
 393   0.0000       2.707186        73.6663 
 394   0.0000       2.722011        74.0697 
 395   0.0000       2.729813        74.2820 
 396   0.0000       2.743286        74.6486 
 397   0.0000       2.746183        74.7274 
 398   0.0000       2.754017        74.9406 
 399   0.0000       2.771200        75.4082 
 400   0.0000       2.780642        75.6651 
 401   0.0000       2.786826        75.8334 
 402   0.0000       2.794847        76.0517 
 403   0.0000       2.812264        76.5256 
 404   0.0000       2.830315        77.0168 
 405   0.0000       2.835086        77.1466 
 406   0.0000       2.843351        77.3715 
 407   0.0000       2.854549        77.6762 
 408   0.0000       2.863039        77.9072 
 409   0.0000       2.868800        78.0640 
 410   0.0000       2.877734        78.3071 
 411   0.0000       2.886126        78.5355 
 412   0.0000       2.889975        78.6402 
 413   0.0000       2.895904        78.8015 
 414   0.0000       2.903020        78.9952 
 415   0.0000       2.912777        79.2607 
 416   0.0000       2.928496        79.6884 
 417   0.0000       2.942809        80.0779 
 418   0.0000       2.946787        80.1862 
 419   0.0000       2.954582        80.3983 
 420   0.0000       2.971513        80.8590 
 421   0.0000       2.978515        81.0495 
 422   0.0000       2.980654        81.1077 
 423   0.0000       2.995910        81.5228 
 424   0.0000       3.003119        81.7190 
 425   0.0000       3.006084        81.7997 
 426   0.0000       3.012373        81.9708 
 427   0.0000       3.024740        82.3074 
 428   0.0000       3.029695        82.4422 
 429   0.0000       3.031538        82.4923 
 430   0.0000       3.050210        83.0004 
 431   0.0000       3.055294        83.1388 
 432   0.0000       3.056088        83.1604 
 433   0.0000       3.064942        83.4013 
 434   0.0000       3.077620        83.7463 
 435   0.0000       3.087718        84.0211 
 436   0.0000       3.090504        84.0969 
 437   0.0000       3.096825        84.2689 
 438   0.0000       3.100112        84.3583 
 439   0.0000       3.107284        84.5535 
 440   0.0000       3.112482        84.6949 
 441   0.0000       3.116702        84.8098 
 442   0.0000       3.121813        84.9488 
 443   0.0000       3.130849        85.1947 
 444   0.0000       3.145989        85.6067 
 445   0.0000       3.150885        85.7399 
 446   0.0000       3.159744        85.9810 
 447   0.0000       3.169259        86.2399 
 448   0.0000       3.178461        86.4903 
 449   0.0000       3.184508        86.6549 
 450   0.0000       3.195841        86.9633 
 451   0.0000       3.203773        87.1791 
 452   0.0000       3.208455        87.3065 
 453   0.0000       3.218616        87.5830 
 454   0.0000       3.223052        87.7037 
 455   0.0000       3.235707        88.0481 
 456   0.0000       3.241435        88.2039 
 457   0.0000       3.243219        88.2525 
 458   0.0000       3.256719        88.6198 
 459   0.0000       3.266353        88.8820 
 460   0.0000       3.269059        88.9556 
 461   0.0000       3.274271        89.0974 
 462   0.0000       3.279845        89.2491 
 463   0.0000       3.293445        89.6192 
 464   0.0000       3.300311        89.8060 
 465   0.0000       3.302078        89.8541 
 466   0.0000       3.311147        90.1009 
 467   0.0000       3.317226        90.2663 
 468   0.0000       3.326853        90.5283 
 469   0.0000       3.329025        90.5874 
 470   0.0000       3.341343        90.9226 
 471   0.0000       3.348593        91.1199 
 472   0.0000       3.353642        91.2572 
 473   0.0000       3.360272        91.4376 
 474   0.0000       3.366342        91.6028 
 475   0.0000       3.373013        91.7844 
 476   0.0000       3.375632        91.8556 
 477   0.0000       3.378909        91.9448 
 478   0.0000       3.385717        92.1300 
 479   0.0000       3.387222        92.1710 
 480   0.0000       3.399716        92.5110 
 481   0.0000       3.405359        92.6645 
 482   0.0000       3.407275        92.7167 
 483   0.0000       3.412378        92.8555 
 484   0.0000       3.416271        92.9615 
 485   0.0000       3.419160        93.0401 
 486   0.0000       3.419654        93.0535 
 487   0.0000       3.426266        93.2334 
 488   0.0000       3.429930        93.3331 
 489   0.0000       3.438599        93.5690 
 490   0.0000       3.443751        93.7092 
 491   0.0000       3.446642        93.7879 
 492   0.0000       3.449137        93.8558 
 493   0.0000       3.451233        93.9128 
 494   0.0000       3.457576        94.0854 
 495   0.0000       3.473127        94.5086 
 496   0.0000       3.473993        94.5322 
 497   0.0000       3.479356        94.6781 
 498   0.0000       3.486559        94.8741 
 499   0.0000       3.489545        94.9554 
 500   0.0000       3.492877        95.0460 
 501   0.0000       3.506840        95.4260 
 502   0.0000       3.524999        95.9201 
 503   0.0000       3.539093        96.3036 
 504   0.0000       3.541611        96.3721 
 505   0.0000       3.551842        96.6505 
 506   0.0000       3.560153        96.8767 
 507   0.0000       3.562955        96.9529 
 508   0.0000       3.568156        97.0945 
 509   0.0000       3.576131        97.3115 
 510   0.0000       3.590207        97.6945 
 511   0.0000       3.592281        97.7509 
 512   0.0000       3.604430        98.0815 
 513   0.0000       3.612257        98.2945 
 514   0.0000       3.622186        98.5647 
 515   0.0000       3.626513        98.6824 
 516   0.0000       3.628474        98.7358 
 517   0.0000       3.631792        98.8261 
 518   0.0000       3.641969        99.1030 
 519   0.0000       3.646775        99.2338 
 520   0.0000       3.651131        99.3523 
 521   0.0000       3.655739        99.4777 
 522   0.0000       3.656820        99.5071 
 523   0.0000       3.661308        99.6292 
 524   0.0000       3.665539        99.7444 
 525   0.0000       3.672916        99.9451 
 526   0.0000       3.681855       100.1884 
 527   0.0000       3.685423       100.2855 
 528   0.0000       3.699807       100.6769 
 529   0.0000       3.706388       100.8560 
 530   0.0000       3.712938       101.0342 
 531   0.0000       3.716153       101.1217 
 532   0.0000       3.726384       101.4001 
 533   0.0000       3.731697       101.5446 
 534   0.0000       3.738654       101.7339 
 535   0.0000       3.748750       102.0087 
 536   0.0000       3.753199       102.1297 
 537   0.0000       3.758941       102.2860 
 538   0.0000       3.763595       102.4126 
 539   0.0000       3.770990       102.6139 
 540   0.0000       3.773337       102.6777 
 541   0.0000       3.784944       102.9936 
 542   0.0000       3.787547       103.0644 
 543   0.0000       3.791530       103.1728 
 544   0.0000       3.804258       103.5191 
 545   0.0000       3.816525       103.8529 
 546   0.0000       3.821515       103.9887 
 547   0.0000       3.827501       104.1516 
 548   0.0000       3.832399       104.2849 
 549   0.0000       3.837249       104.4169 
 550   0.0000       3.850679       104.7823 
 551   0.0000       3.852761       104.8390 
 552   0.0000       3.862767       105.1112 
 553   0.0000       3.885373       105.7264 
 554   0.0000       3.890830       105.8749 
 555   0.0000       3.897293       106.0507 
 556   0.0000       3.906427       106.2993 
 557   0.0000       3.915953       106.5585 
 558   0.0000       3.916511       106.5737 
 559   0.0000       3.927253       106.8660 
 560   0.0000       3.946904       107.4007 
 561   0.0000       3.952231       107.5457 
 562   0.0000       3.953839       107.5894 
 563   0.0000       3.971075       108.0584 
 564   0.0000       3.978134       108.2505 
 565   0.0000       3.989101       108.5490 
 566   0.0000       3.990917       108.5984 
 567   0.0000       3.997133       108.7675 
 568   0.0000       4.014329       109.2355 
 569   0.0000       4.026154       109.5572 
 570   0.0000       4.035339       109.8072 
 571   0.0000       4.040073       109.9360 
 572   0.0000       4.045167       110.0746 
 573   0.0000       4.057101       110.3993 
 574   0.0000       4.073635       110.8492 
 575   0.0000       4.073965       110.8582 
 576   0.0000       4.076170       110.9182 
 577   0.0000       4.089764       111.2881 
 578   0.0000       4.104219       111.6815 
 579   0.0000       4.112275       111.9007 
 580   0.0000       4.114891       111.9719 
 581   0.0000       4.118635       112.0738 
 582   0.0000       4.135639       112.5365 
 583   0.0000       4.136543       112.5610 
 584   0.0000       4.142980       112.7362 
 585   0.0000       4.147140       112.8494 
 586   0.0000       4.150349       112.9367 
 587   0.0000       4.154549       113.0510 
 588   0.0000       4.166396       113.3734 
 589   0.0000       4.176470       113.6475 
 590   0.0000       4.179793       113.7380 
 591   0.0000       4.187785       113.9554 
 592   0.0000       4.199844       114.2836 
 593   0.0000       4.203805       114.3913 
 594   0.0000       4.211502       114.6008 
 595   0.0000       4.214826       114.6912 
 596   0.0000       4.215333       114.7050 
 597   0.0000       4.227160       115.0269 
 598   0.0000       4.233887       115.2099 
 599   0.0000       4.238494       115.3353 
 600   0.0000       4.246891       115.5638 
 601   0.0000       4.252147       115.7068 
 602   0.0000       4.258104       115.8689 
 603   0.0000       4.269682       116.1840 
 604   0.0000       4.286767       116.6489 
 605   0.0000       4.296455       116.9125 
 606   0.0000       4.313454       117.3750 
 607   0.0000       4.316834       117.4670 
 608   0.0000       4.324830       117.6846 
 609   0.0000       4.330917       117.8502 
 610   0.0000       4.341340       118.1339 
 611   0.0000       4.342918       118.1768 
 612   0.0000       4.346565       118.2760 
 613   0.0000       4.355776       118.5267 
 614   0.0000       4.366112       118.8079 
 615   0.0000       4.369937       118.9120 
 616   0.0000       4.379628       119.1757 
 617   0.0000       4.389029       119.4316 
 618   0.0000       4.396863       119.6447 
 619   0.0000       4.404949       119.8648 
 620   0.0000       4.415486       120.1515 
 621   0.0000       4.416420       120.1769 
 622   0.0000       4.425858       120.4337 
 623   0.0000       4.430278       120.5540 
 624   0.0000       4.441460       120.8583 
 625   0.0000       4.447521       121.0232 
 626   0.0000       4.454356       121.2092 
 627   0.0000       4.461485       121.4032 
 628   0.0000       4.467155       121.5575 
 629   0.0000       4.492082       122.2358 
 630   0.0000       4.496166       122.3469 
 631   0.0000       4.507625       122.6587 
 632   0.0000       4.511877       122.7744 
 633   0.0000       4.525824       123.1539 
 634   0.0000       4.535975       123.4302 
 635   0.0000       4.540600       123.5560 
 636   0.0000       4.547107       123.7331 
 637   0.0000       4.555502       123.9615 
 638   0.0000       4.572824       124.4329 
 639   0.0000       4.581553       124.6704 
 640   0.0000       4.587531       124.8331 
 641   0.0000       4.590450       124.9125 
 642   0.0000       4.594665       125.0272 
 643   0.0000       4.608054       125.3915 
 644   0.0000       4.621282       125.7515 
 645   0.0000       4.625626       125.8697 
 646   0.0000       4.634108       126.1005 
 647   0.0000       4.638870       126.2301 
 648   0.0000       4.644930       126.3950 
 649   0.0000       4.649862       126.5292 
 650   0.0000       4.654402       126.6527 
 651   0.0000       4.655964       126.6952 
 652   0.0000       4.664589       126.9299 
 653   0.0000       4.670247       127.0839 
 654   0.0000       4.683320       127.4396 
 655   0.0000       4.692421       127.6873 
 656   0.0000       4.707854       128.1072 
 657   0.0000       4.716101       128.3316 
 658   0.0000       4.730835       128.7326 
 659   0.0000       4.738264       128.9347 
 660   0.0000       4.757075       129.4466 
 661   0.0000       4.763565       129.6232 
 662   0.0000       4.775604       129.9508 
 663   0.0000       4.798429       130.5719 
 664   0.0000       4.808069       130.8342 
 665   0.0000       4.816812       131.0721 
 666   0.0000       4.823539       131.2552 
 667   0.0000       4.836237       131.6007 
 668   0.0000       4.859570       132.2356 
 669   0.0000       4.880573       132.8071 
 670   0.0000       4.909256       133.5876 
 671   0.0000       4.924637       134.0062 
 672   0.0000       4.940604       134.4407 
 673   0.0000       4.957725       134.9066 
 674   0.0000       4.981245       135.5466 
 675   0.0000       4.988715       135.7498 
 676   0.0000       5.005850       136.2161 
 677   0.0000       5.020791       136.6227 
 678   0.0000       5.032398       136.9385 
 679   0.0000       5.039083       137.1204 
 680   0.0000       5.054322       137.5351 
 681   0.0000       5.077117       138.1554 
 682   0.0000       5.092490       138.5737 
 683   0.0000       5.102846       138.8555 
 684   0.0000       5.111499       139.0909 
 685   0.0000       5.116721       139.2331 
 686   0.0000       5.133632       139.6932 
 687   0.0000       5.136800       139.7794 
 688   0.0000       5.147003       140.0571 
 689   0.0000       5.152125       140.1965 
 690   0.0000       5.170117       140.6860 
 691   0.0000       5.173311       140.7729 
 692   0.0000       5.187420       141.1569 
 693   0.0000       5.197515       141.4316 
 694   0.0000       5.198083       141.4470 
 695   0.0000       5.205838       141.6580 
 696   0.0000       5.211549       141.8134 
 697   0.0000       5.223107       142.1280 
 698   0.0000       5.226133       142.2103 
 699   0.0000       5.254852       142.9918 
 700   0.0000       5.267199       143.3278 
 701   0.0000       5.278751       143.6421 
 702   0.0000       5.290760       143.9689 
 703   0.0000       5.317033       144.6838 
 704   0.0000       5.330603       145.0531 
 705   0.0000       5.331506       145.0776 
 706   0.0000       5.344815       145.4398 
 707   0.0000       5.355842       145.7399 
 708   0.0000       5.369050       146.0993 
 709   0.0000       5.387726       146.6075 
 710   0.0000       5.395231       146.8117 
 711   0.0000       5.399783       146.9356 
 712   0.0000       5.432588       147.8282 
 713   0.0000       5.443434       148.1234 
 714   0.0000       5.467464       148.7773 
 715   0.0000       5.484433       149.2390 
 716   0.0000       5.488539       149.3507 
 717   0.0000       5.511352       149.9715 
 718   0.0000       5.519797       150.2013 
 719   0.0000       5.532519       150.5475 
 720   0.0000       5.539608       150.7404 
 721   0.0000       5.550394       151.0339 
 722   0.0000       5.555095       151.1618 
 723   0.0000       5.575266       151.7107 
 724   0.0000       5.588477       152.0702 
 725   0.0000       5.601948       152.4368 
 726   0.0000       5.611641       152.7005 
 727   0.0000       5.619677       152.9192 
 728   0.0000       5.629148       153.1769 
 729   0.0000       5.638574       153.4334 
 730   0.0000       5.648221       153.6959 
 731   0.0000       5.661211       154.0494 
 732   0.0000       5.681471       154.6007 
 733   0.0000       5.683908       154.6670 
 734   0.0000       5.703746       155.2068 
 735   0.0000       5.711739       155.4243 
 736   0.0000       5.724779       155.7792 
 737   0.0000       5.739156       156.1704 
 738   0.0000       5.748663       156.4291 
 739   0.0000       5.759681       156.7289 
 740   0.0000       5.763203       156.8247 
 741   0.0000       5.780828       157.3043 
 742   0.0000       5.793927       157.6608 
 743   0.0000       5.804618       157.9517 
 744   0.0000       5.817478       158.3016 
 745   0.0000       5.847550       159.1199 
 746   0.0000       5.855919       159.3476 
 747   0.0000       5.878310       159.9569 
 748   0.0000       5.901430       160.5861 
 749   0.0000       5.907389       160.7482 
 750   0.0000       5.934235       161.4787 
 751   0.0000       5.973784       162.5549 
 752   0.0000       5.975539       162.6027 
 753   0.0000       5.989440       162.9810 
 754   0.0000       6.011377       163.5779 
 755   0.0000       6.017158       163.7352 
 756   0.0000       6.053088       164.7129 
 757   0.0000       6.065949       165.0629 
 758   0.0000       6.079712       165.4374 
 759   0.0000       6.094080       165.8284 
 760   0.0000       6.123246       166.6220 
 761   0.0000       6.167870       167.8363 
 762   0.0000       6.202394       168.7757 
 763   0.0000       6.220338       169.2640 
 764   0.0000       6.228855       169.4958 
 765   0.0000       6.277757       170.8264 
 766   0.0000       6.295525       171.3099 
 767   0.0000       6.324219       172.0907 
 768   0.0000       6.332981       172.3292 
 769   0.0000       6.350948       172.8181 
 770   0.0000       6.372394       173.4017 
 771   0.0000       6.391223       173.9140 
 772   0.0000       6.401966       174.2064 
 773   0.0000       6.434159       175.0824 
 774   0.0000       6.457995       175.7310 
 775   0.0000       6.470750       176.0781 
 776   0.0000       6.506921       177.0623 
 777   0.0000       6.552102       178.2918 
 778   0.0000       6.557235       178.4314 
 779   0.0000       6.596884       179.5103 
 780   0.0000       6.628143       180.3609 
 781   0.0000       6.685930       181.9334 
 782   0.0000       6.731507       183.1736 
 783   0.0000       6.791702       184.8116 
 784   0.0000       6.834122       185.9659 
 785   0.0000       6.911848       188.0810 
 786   0.0000       6.920986       188.3296 
 787   0.0000       6.923324       188.3932 
 788   0.0000       6.940213       188.8528 
 789   0.0000       7.049404       191.8240 
 790   0.0000       7.066712       192.2950 
 791   0.0000       7.081354       192.6934 
 792   0.0000       7.086580       192.8356 
 793   0.0000       7.147541       194.4945 
 794   0.0000       7.167998       195.0511 
 795   0.0000       7.238336       196.9651 
 796   0.0000       7.261908       197.6066 
 797   0.0000       7.281924       198.1512 
 798   0.0000       7.341180       199.7637 
 799   0.0000       7.372081       200.6045 
 800   0.0000       7.464222       203.1118 
 801   0.0000       7.543125       205.2589 
 802   0.0000       7.582526       206.3310 
 803   0.0000       7.596054       206.6991 
 804   0.0000       7.721384       210.1095 
 805   0.0000       7.816624       212.7011 
 806   0.0000       7.831116       213.0955 
 807   0.0000       7.935438       215.9343 
 808   0.0000       8.006989       217.8812 
 809   0.0000       9.339273       254.1345 
 810   0.0000       9.480597       257.9802 
 811   0.0000      10.820390       294.4378 
 812   0.0000      11.375934       309.5549 
 813   0.0000      11.727134       319.1115 
 814   0.0000      12.566655       341.9561 
 815   0.0000      12.885680       350.6372 
 816   0.0000      12.916456       351.4746 
 817   0.0000      13.065328       355.5256 
 818   0.0000      13.160470       358.1146 
 819   0.0000      13.380366       364.0983 
 820   0.0000      13.542714       368.5160 
 821   0.0000      13.712155       373.1267 
 822   0.0000      13.920182       378.7874 
 823   0.0000      14.009021       381.2048 
 824   0.0000      14.077185       383.0597 
 825   0.0000      14.601927       397.3386 
 826   0.0000      14.874121       404.7454 
 827   0.0000      15.980937       434.8634 

                    ********************************
                    * MULLIKEN POPULATION ANALYSIS *
                    ********************************

-----------------------
MULLIKEN ATOMIC CHARGES
-----------------------
   0 C :   -0.291440
   1 C :    0.053067
   2 O :   -0.364561
   3 C :    0.457722
   4 O :   -0.429546
   5 C :   -0.206825
   6 C :    0.149738
   7 C :   -0.272364
   8 N :   -0.120537
   9 C :    0.212416
  10 S :   -0.442159
  11 N :   -0.205199
  12 C :    0.056595
  13 C :    0.068248
  14 C :   -0.190995
  15 C :   -0.130606
  16 C :   -0.279896
  17 C :    0.316635
  18 O :   -0.356610
  19 C :   -0.270379
  20 H :    0.104875
  21 H :    0.096696
  22 H :    0.116615
  23 H :    0.092996
  24 H :    0.090656
  25 H :    0.130653
  26 H :    0.131163
  27 H :    0.094730
  28 H :    0.197012
  29 H :    0.194701
  30 H :    0.149214
  31 H :    0.150722
  32 H :    0.161019
  33 H :    0.129832
  34 H :    0.240639
  35 H :    0.165174
Sum of atomic charges:    0.0000000

--------------------------------
MULLIKEN REDUCED ORBITAL CHARGES
--------------------------------
  0 C s       :     3.252743  s :     3.252743
      pz      :     1.020881  p :     2.959648
      px      :     0.923696
      py      :     1.015071
      dz2     :     0.013333  d :     0.074650
      dxz     :     0.017103
      dyz     :     0.016826
      dx2y2   :     0.015252
      dxy     :     0.012136
      f0      :     0.000375  f :     0.004400
      f+1     :     0.000427
      f-1     :     0.000817
      f+2     :     0.000941
      f-2     :     0.000705
      f+3     :     0.000825
      f-3     :     0.000312
  1 C s       :     3.178895  s :     3.178895
      pz      :     0.958725  p :     2.611132
      px      :     0.891781
      py      :     0.760626
      dz2     :     0.019589  d :     0.145779
      dxz     :     0.026439
      dyz     :     0.033906
      dx2y2   :     0.030536
      dxy     :     0.035309
      f0      :     0.000945  f :     0.011127
      f+1     :     0.000974
      f-1     :     0.001794
      f+2     :     0.001646
      f-2     :     0.001934
      f+3     :     0.001815
      f-3     :     0.002019
  2 O s       :     3.713120  s :     3.713120
      pz      :     1.774068  p :     4.618237
      px      :     1.670784
      py      :     1.173385
      dz2     :     0.003309  d :     0.030946
      dxz     :     0.002669
      dyz     :     0.007055
      dx2y2   :     0.006537
      dxy     :     0.011376
      f0      :     0.000250  f :     0.002258
      f+1     :     0.000091
      f-1     :     0.000460
      f+2     :     0.000222
      f-2     :     0.000225
[...]
 15 C s       :     2.705910  s :     2.705910
      pz      :     0.915344  p :     2.797452
      px      :     0.915399
      py      :     0.966709
      dz2     :     0.102988  d :     0.417313
      dxz     :     0.069257
      dyz     :     0.066449
      dx2y2   :     0.106999
      dxy     :     0.071619
      f0      :     0.003747  f :     0.041059
      f+1     :     0.005526
      f-1     :     0.006641
      f+2     :     0.007496
      f-2     :     0.006190
      f+3     :     0.005950
      f-3     :     0.005510
 16 C s       :     2.701795  s :     2.701795
      pz      :     0.942490  p :     2.869942
      px      :     0.951185
      py      :     0.976267
      dz2     :     0.050490  d :     0.390156
      dxz     :     0.054519
      dyz     :     0.095440
      dx2y2   :     0.090961
      dxy     :     0.098746
      f0      :     0.004430  f :     0.040260
      f+1     :     0.004571
      f-1     :     0.004818
      f+2     :     0.006471
      f-2     :     0.004924
      f+3     :     0.008843
      f-3     :     0.006203
 17 C s       :     2.701747  s :     2.701747
      pz      :     0.854294  p :     2.680291
      px      :     0.819894
      py      :     1.006103
      dz2     :     0.136346  d :     0.708297
      dxz     :     0.101757
      dyz     :     0.156012
      dx2y2   :     0.152657
      dxy     :     0.161524
      f0      :     0.010936  f :     0.099202
      f+1     :     0.014577
      f-1     :     0.011627
      f+2     :     0.017586
      f-2     :     0.014092
      f+3     :     0.016713
      f-3     :     0.013671
 18 O s       :     3.177168  s :     3.177168
      pz      :     1.401757  p :     4.347105
      px      :     1.438623
      py      :     1.506725
      dz2     :     0.009093  d :     0.075479
      dxz     :     0.016803
      dyz     :     0.020791
      dx2y2   :     0.012340
      dxy     :     0.016452
      f0      :     0.000633  f :     0.005063
      f+1     :     0.000652
      f-1     :     0.000519
      f+2     :     0.000751
      f-2     :     0.001083
      f+3     :     0.000695
      f-3     :     0.000730
 19 C s       :     2.695180  s :     2.695180
      pz      :     0.939436  p :     2.845244
      px      :     0.940920
      py      :     0.964889
      dz2     :     0.083467  d :     0.387528
      dxz     :     0.068578
      dyz     :     0.068606
      dx2y2   :     0.093113
      dxy     :     0.073763
      f0      :     0.003689  f :     0.040770
      f+1     :     0.005908
      f-1     :     0.006168
      f+2     :     0.007412
      f-2     :     0.006769
      f+3     :     0.005743
      f-3     :     0.005080
 20 H s       :     0.847166  s :     0.847166
      pz      :     0.051218  p :     0.150769
      px      :     0.051076
      py      :     0.048474
      dz2     :     0.006481  d :     0.027595
      dxz     :     0.005598
      dyz     :     0.004930
      dx2y2   :     0.005863
      dxy     :     0.004722
 21 H s       :     0.848260  s :     0.848260
      pz      :     0.042120  p :     0.151910
      px      :     0.045162
      py      :     0.064627
      dz2     :     0.002554  d :     0.027528
      dxz     :     0.002206
      dyz     :     0.007787
      dx2y2   :     0.007602
      dxy     :     0.007379
 22 H s       :     0.845036  s :     0.845036
      pz      :     0.064082  p :     0.152092
      px      :     0.037644
      py      :     0.050366
      dz2     :     0.008829  d :     0.027691
      dxz     :     0.006564
      dyz     :     0.007367
      dx2y2   :     0.002545
      dxy     :     0.002386
 23 H s       :     0.854817  s :     0.854817
      pz      :     0.061219  p :     0.146232
      px      :     0.039245
      py      :     0.045768
      dz2     :     0.006045  d :     0.027148
      dxz     :     0.006355
      dyz     :     0.007987
      dx2y2   :     0.003314
      dxy     :     0.003446
 24 H s       :     0.855566  s :     0.855566
      pz      :     0.057963  p :     0.145833
      px      :     0.049531
      py      :     0.038339
      dz2     :     0.007589  d :     0.027087
      dxz     :     0.005652
      dyz     :     0.005156
      dx2y2   :     0.003766
      dxy     :     0.004924
 25 H s       :     0.826213  s :     0.826213
      pz      :     0.039507  p :     0.151148
      px      :     0.071688
      py      :     0.039953
      dz2     :     0.002864  d :     0.027753
      dxz     :     0.008585
      dyz     :     0.000485
      dx2y2   :     0.007818
      dxy     :     0.008000
 26 H s       :     0.825399  s :     0.825399
      pz      :     0.072731  p :     0.151061
      px      :     0.039904
      py      :     0.038426
      dz2     :     0.009514  d :     0.027765
      dxz     :     0.008660
      dyz     :     0.008255
      dx2y2   :     0.001019
      dxy     :     0.000316
 27 H s       :     0.845638  s :     0.845638
      pz      :     0.039975  p :     0.150414
      px      :     0.039310
      py      :     0.071129
      dz2     :     0.003019  d :     0.027710
      dxz     :     0.000228
      dyz     :     0.008651
      dx2y2   :     0.006964
      dxy     :     0.008848
 28 H s       :     0.742039  s :     0.742039
      pz      :     0.068006  p :     0.253920
      px      :     0.064597
      py      :     0.121317
      dz2     :     0.005289  d :     0.061860
      dxz     :     0.000543
      dyz     :     0.020278
      dx2y2   :     0.016115
      dxy     :     0.019635
 29 H s       :     0.749129  s :     0.749129
      pz      :     0.104046  p :     0.254205
      px      :     0.101932
      py      :     0.048227
      dz2     :     0.017332  d :     0.061417
      dxz     :     0.013710
      dyz     :     0.008706
      dx2y2   :     0.011720
      dxy     :     0.009949
 30 H s       :     0.833797  s :     0.833797
      pz      :     0.049526  p :     0.149490
      px      :     0.048932
      py      :     0.051031
      dz2     :     0.005055  d :     0.028530
      dxz     :     0.005966
      dyz     :     0.005690
      dx2y2   :     0.005196
      dxy     :     0.006624
 31 H s       :     0.845415  s :     0.845415
      pz      :     0.054829  p :     0.157253
      px      :     0.062289
      py      :     0.040135
      dz2     :     0.005653  d :     0.027555
      dxz     :     0.006338
      dyz     :     0.004319
      dx2y2   :     0.005652
      dxy     :     0.005593
 32 H s       :     0.843655  s :     0.843655
      pz      :     0.036728  p :     0.151447
      px      :     0.038387
      py      :     0.076331
      dz2     :     0.002698  d :     0.026468
      dxz     :     0.000484
      dyz     :     0.007669
      dx2y2   :     0.007696
      dxy     :     0.007920
 33 H s       :     0.848731  s :     0.848731
      pz      :     0.060256  p :     0.159211
      px      :     0.050938
      py      :     0.048017
      dz2     :     0.006771  d :     0.027772
      dxz     :     0.005402
      dyz     :     0.006045
      dx2y2   :     0.004956
      dxy     :     0.004598
 34 H s       :     0.706542  s :     0.706542
      pz      :     0.114527  p :     0.347851
      px      :     0.091988
      py      :     0.141337
      dz2     :     0.024411  d :     0.099585
      dxz     :     0.013406
      dyz     :     0.023642
      dx2y2   :     0.018983
      dxy     :     0.019142
 35 H s       :     0.838740  s :     0.838740
      pz      :     0.038503  p :     0.156916
      px      :     0.040550
      py      :     0.077863
      dz2     :     0.002756  d :     0.028032
      dxz     :     0.000509
      dyz     :     0.008354
      dx2y2   :     0.007926
      dxy     :     0.008487


                      *****************************
                      * MAYER POPULATION ANALYSIS *
                      *****************************

  NA   - Mulliken gross atomic population
  ZA   - Total nuclear charge
  QA   - Mulliken gross atomic charge
  VA   - Mayer's total valence
  BVA  - Mayer's bonded valence
  FA   - Mayer's free valence

  ATOM       NA         ZA         QA         VA         BVA        FA
  0 C      6.2914     6.0000    -0.2914     3.8807     3.8807     0.0000
  1 C      5.9469     6.0000     0.0531     3.8755     3.8755    -0.0000
  2 O      8.3646     8.0000    -0.3646     2.0532     2.0532    -0.0000
  3 C      5.5423     6.0000     0.4577     4.2139     4.2139     0.0000
  4 O      8.4295     8.0000    -0.4295     2.0792     2.0792     0.0000
  5 C      6.2068     6.0000    -0.2068     3.6452     3.6452    -0.0000
  6 C      5.8503     6.0000     0.1497     3.8831     3.8831     0.0000
  7 C      6.2724     6.0000    -0.2724     3.9044     3.9044    -0.0000
  8 N      7.1205     7.0000    -0.1205     3.3074     3.3074     0.0000
  9 C      5.7876     6.0000     0.2124     4.1520     4.1520     0.0000
 10 S     16.4422    16.0000    -0.4422     1.7525     1.7525     0.0000
 11 N      7.2052     7.0000    -0.2052     3.2526     3.2526     0.0000
 12 C      5.9434     6.0000     0.0566     3.9440     3.9440     0.0000
 13 C      5.9318     6.0000     0.0682     3.7098     3.7098    -0.0000
 14 C      6.1910     6.0000    -0.1910     3.8486     3.8486    -0.0000
 15 C      6.1306     6.0000    -0.1306     3.7999     3.7999     0.0000
 16 C      6.2799     6.0000    -0.2799     3.7971     3.7971     0.0000
 17 C      5.6834     6.0000     0.3166     3.8725     3.8725     0.0000
 18 O      8.3566     8.0000    -0.3566     2.1191     2.1191    -0.0000
 19 C      6.2704     6.0000    -0.2704     3.8627     3.8627    -0.0000
 20 H      0.8951     1.0000     0.1049     0.9839     0.9839     0.0000
 21 H      0.9033     1.0000     0.0967     0.9788     0.9788     0.0000
 22 H      0.8834     1.0000     0.1166     0.9836     0.9836     0.0000
 23 H      0.9070     1.0000     0.0930     0.9713     0.9713     0.0000
 24 H      0.9093     1.0000     0.0907     0.9706     0.9706     0.0000
 25 H      0.8693     1.0000     0.1307     0.9812     0.9812    -0.0000
 26 H      0.8688     1.0000     0.1312     0.9807     0.9807    -0.0000
 27 H      0.9053     1.0000     0.0947     0.9859     0.9859    -0.0000
 28 H      0.8030     1.0000     0.1970     1.0231     1.0231     0.0000
 29 H      0.8053     1.0000     0.1947     1.0189     1.0189     0.0000
 30 H      0.8508     1.0000     0.1492     0.9945     0.9945     0.0000
 31 H      0.8493     1.0000     0.1507     0.9847     0.9847    -0.0000
 32 H      0.8390     1.0000     0.1610     0.9766     0.9766     0.0000
 33 H      0.8702     1.0000     0.1298     0.9920     0.9920     0.0000
 34 H      0.7594     1.0000     0.2406     1.0107     1.0107     0.0000
 35 H      0.8348     1.0000     0.1652     0.9873     0.9873    -0.0000

  Mayer bond orders larger than 0.100000
B(  0-C ,  1-C ) :   0.9812 B(  0-C , 20-H ) :   0.9750 B(  0-C , 21-H ) :   0.9731 
B(  0-C , 22-H ) :   0.9729 B(  1-C ,  2-O ) :   0.9002 B(  1-C , 23-H ) :   0.9748 
B(  1-C , 24-H ) :   0.9795 B(  2-O ,  3-C ) :   1.1492 B(  3-C ,  4-O ) :   1.9782 
B(  3-C ,  5-C ) :   1.0589 B(  5-C ,  6-C ) :   1.6554 B(  5-C , 12-C ) :   0.9752 
B(  6-C ,  7-C ) :   0.9672 B(  6-C ,  8-N ) :   1.1613 B(  7-C , 25-H ) :   0.9607 
B(  7-C , 26-H ) :   0.9601 B(  7-C , 27-H ) :   0.9909 B(  8-N ,  9-C ) :   1.1844 
B(  8-N , 28-H ) :   0.9479 B(  9-C , 10-S ) :   1.6048 B(  9-C , 11-N ) :   1.3063 
B( 11-N , 12-C ) :   0.9854 B( 11-N , 29-H ) :   0.9515 B( 12-C , 13-C ) :   0.9361 
B( 12-C , 30-H ) :   1.0029 B( 13-C , 14-C ) :   1.3524 B( 13-C , 19-C ) :   1.3828 
B( 14-C , 15-C ) :   1.3898 B( 14-C , 31-H ) :   0.9717 B( 15-C , 16-C ) :   1.3639 
B( 15-C , 32-H ) :   0.9704 B( 16-C , 17-C ) :   1.3314 B( 16-C , 33-H ) :   0.9851 
B( 17-C , 18-O ) :   1.1098 B( 17-C , 19-C ) :   1.3712 B( 18-O , 34-H ) :   0.9799 
B( 19-C , 35-H ) :   0.9585 

-------
TIMINGS
-------

Total SCF time: 0 days 1 hours 54 min 15 sec 

Total time                  ....    6855.864 sec
Sum of individual times     ....    6849.873 sec  ( 99.9%)

Fock matrix formation       ....    6833.419 sec  ( 99.7%)
Diagonalization             ....       1.529 sec  (  0.0%)
Density matrix formation    ....       0.211 sec  (  0.0%)
Population analysis         ....       0.387 sec  (  0.0%)
Initial guess               ....       6.791 sec  (  0.1%)
Orbital Transformation      ....       0.000 sec  (  0.0%)
Orbital Orthonormalization  ....       0.000 sec  (  0.0%)
DIIS solution               ....       3.208 sec  (  0.0%)
SOSCF solution              ....       2.703 sec  (  0.0%)

Maximum memory used throughout the entire SCF-calculation: 729.8 MB

------------------------------------------------------------------------------
                                ORCA  MP2 
------------------------------------------------------------------------------

Freezing NCore=48 chemical core electrons

-------------
RI-MP2 ENERGY
-------------
Dimension of the basis                    ...  828
Memory devoted to MP2                     ...  256 MB   
Data format for buffers                   ... DOUBLE
Compression type for matrix containers    ... UNCOMPRESSED
Overall scaling of the MP2 energy         ...   1.000e+00
Calculating two index integrals           ... done (    0.050 sec)
Cholesky decomposition of V**-1           ... done (    0.642 sec)

-----------------
RI-TRANSFORMATION (AUX index driven)
-----------------

Dimension of the orbital-basis         ... 828
Dimension of the aux-basis             ... 2141
Transformation of internal/external MOs...   24-  76 to   77- 827
Number Format for Storage              ... Double (8 Byte)
Integral mode                          ... Direct

First Phase: integral generation and transformation of MO indices
  Aux angular momentum 0               ... done (    5.618 sec)
  Aux angular momentum 1               ... done (    8.867 sec)
  Aux angular momentum 2               ... done (   11.542 sec)
  Aux angular momentum 3               ... done (    9.082 sec)
  Aux angular momentum 4               ... done (    3.154 sec)
Closing buffer VIA ( 0.63 GB; CompressionRatio= 1.00)
  Phase 1 completed in    38.830 sec
Second Phase: sorting and transformation of aux index

IA-Transformation
Memory available                       ... 157 MB 
Max. # MO pairs treated in a batch     ... 11    
# of internal orbitals                 ... 53
# batches for internal orbitals        ... 5
Closing buffer IAV ( 0.63 GB; CompressionRatio= 1.00)
(ia|v) transformation done in    38.091 sec

  Phase 2 completed in    38.103 sec
RI-Integral transformation completed in    76.977 sec
Opening buffers                              ... done

Starting loop over batches of integrals:

Operator 0  - window                       ... ( 24- 76)x( 77-827)
Operator 0  - Memory available             ...   256 MB
Operator 0  - Memory needed per MO         ...  12.3 MB
Operator 0  - Number of orbitals per batch ... 13
Operator 0  - Number of batches            ... 5

OPERATOR  0   PASS   0:  MOs    24 ...   36
  Reading integrals       ... ok
  Internal MO  26
  Internal MO  29
  Internal MO  32
  Internal MO  35
OPERATOR  0   PASS   1:  MOs    37 ...   49
  Reading integrals       ... ok
  Internal MO  38
  Internal MO  41
  Internal MO  44
  Internal MO  47
OPERATOR  0   PASS   2:  MOs    50 ...   62
  Reading integrals       ... ok
  Internal MO  50
  Internal MO  53
  Internal MO  56
  Internal MO  59
  Internal MO  62
OPERATOR  0   PASS   3:  MOs    63 ...   75
  Reading integrals       ... ok
  Internal MO  65
  Internal MO  68
  Internal MO  71
  Internal MO  74
OPERATOR  0   PASS   4:  MOs    76 ...   76
  Reading integrals       ... ok
Time spent in pair loops =   115.920 sec
Deleting buffer (Ka|jb)[aa] ...done

-----------------------------------------------
 RI-MP2 CORRELATION ENERGY:     -3.530971536 Eh
-----------------------------------------------


-------
TIMINGS
-------

Total time                :  193.775 sec
Integral trafo            :   77.000 sec ( 39.7%)
I/O of integrals          :    5.612 sec (  2.9%)
K(i,j) Operators          :   65.235 sec ( 33.7%)
T(i,j) pair energies      :    9.227 sec (  4.8%)
V-calculation             :    0.050 sec (  0.0%)
V**(-1/2)                 :    0.642 sec (  0.3%)
Gamma(ia|P)               :    0.000 sec (  0.0%)
Gamma-Trafo               :    0.000 sec (  0.0%)
D(virtual)                :    0.000 sec (  0.0%)
D(internal)               :    0.000 sec (  0.0%)
W(virtual)                :    0.000 sec (  0.0%)
W(internal)               :    0.000 sec (  0.0%)
L(virtual)                :    0.000 sec (  0.0%)
L(internal)               :    0.000 sec (  0.0%)
G(D)                      :    0.000 sec (  0.0%)
G(Z)                      :    0.000 sec (  0.0%)
Z-Vector Solution         :    0.000 sec (  0.0%)
3-Index Derivative        :    0.000 sec (  0.0%)
2-Index Derivative        :    0.000 sec (  0.0%)
Separable Gradient        :    0.000 sec (  0.0%)


---------------------------------------
MP2 TOTAL ENERGY:    -1274.338871968 Eh
---------------------------------------

Maximum memory used throughout the entire MP2-calculation: 303.8 MB

-------------------------   --------------------
FINAL SINGLE POINT ENERGY     -1274.338871967629
-------------------------   --------------------


                            ***************************************
                            *     ORCA property calculations      *
                            ***************************************


  WARNING: The energy has been calculated at the MP2 level but the densities
           used in the property calculations are still SCF densities
           MP2 response densities have not been calculated 
           use %mp2 Density relaxed end
           or  %mp2 Density unrelaxed end

                                    ---------------------
                                    Active property flags
                                    ---------------------
   (+) Dipole Moment


------------------------------------------------------------------------------
                       ORCA ELECTRIC PROPERTIES CALCULATION
------------------------------------------------------------------------------

Dipole Moment Calculation                       ... on
Quadrupole Moment Calculation                   ... off
Polarizability Calculation                      ... off
GBWName                                         ... CONFS/Conf495.orca.gbw
Electron density file                           ... CONFS/Conf495.orca.scfp
The origin for moment calculation is the CENTER OF MASS  = (32.877946, 31.524779 35.383908)

-------------
DIPOLE MOMENT
-------------
                                X             Y             Z
Electronic contribution:      9.91357      10.12786       9.20749
Nuclear contribution   :    -10.92063     -11.95556      -9.61548
                        -----------------------------------------
Total Dipole Moment    :     -1.00706      -1.82770      -0.40799
                        -----------------------------------------
Magnitude (a.u.)       :      2.12629
Magnitude (Debye)      :      5.40460



--------------------
Rotational spectrum 
--------------------
 
Rotational constants in cm-1:     0.011510     0.008682     0.006089 
Rotational constants in MHz :   345.055135   260.275971   182.545648 

 Dipole components along the rotational axes: 
x,y,z [a.u.] :     2.120834     0.117089    -0.097252 
x,y,z [Debye]:     5.390731     0.297617    -0.247194 

 

Timings for individual modules:

Sum of individual times         ...     7054.640 sec (= 117.577 min)
GTO integral calculation        ...        4.213 sec (=   0.070 min)   0.1 %
SCF iterations                  ...     6856.108 sec (= 114.268 min)  97.2 %
MP2 module                      ...      194.319 sec (=   3.239 min)   2.8 %
                             ****ORCA TERMINATED NORMALLY****
TOTAL RUN TIME: 0 days 1 hours 57 minutes 36 seconds 278 msec
