
                                        *****************
                                        * O   R   C   A *
                                        *****************

                                            #,                                       
                                            ###                                      
                                            ####                                     
                                            #####                                    
                                            ######                                   
                                           ########,                                 
                                     ,,################,,,,,                         
                               ,,#################################,,                 
                          ,,##########################################,,             
                       ,#########################################, ''#####,          
                    ,#############################################,,   '####,        
                  ,##################################################,,,,####,       
                ,###########''''           ''''###############################       
              ,#####''   ,,,,##########,,,,          '''####'''          '####       
            ,##' ,,,,###########################,,,                        '##       
           ' ,,###''''                  '''############,,,                           
         ,,##''                                '''############,,,,        ,,,,,,###''
      ,#''                                            '''#######################'''  
     '                                                          ''''####''''         
             ,#######,   #######,   ,#######,      ##                                
            ,#'     '#,  ##    ##  ,#'     '#,    #''#        ######   ,####,        
            ##       ##  ##   ,#'  ##            #'  '#       #        #'  '#        
            ##       ##  #######   ##           ,######,      #####,   #    #        
            '#,     ,#'  ##    ##  '#,     ,#' ,#      #,         ##   #,  ,#        
             '#######'   ##     ##  '#######'  #'      '#     #####' # '####'        



                  #######################################################
                  #                        -***-                        #
                  #          Department of theory and spectroscopy      #
                  #    Directorship and core code : Frank Neese         #
                  #        Max Planck Institute fuer Kohlenforschung    #
                  #                Kaiser Wilhelm Platz 1               #
                  #                 D-45470 Muelheim/Ruhr               #
                  #                      Germany                        #
                  #                                                     #
                  #                  All rights reserved                #
                  #                        -***-                        #
                  #######################################################


                         Program Version 5.0.0 -  RELEASE  -
                                (SVN: $Rev: 19529$)
                ($Date: 2021-06-28 11:36:33 +0200 (Mo, 28 Jun 2021) $)


 With contributions from (in alphabetic order):
   Daniel Aravena         : Magnetic Suceptibility
   Michael Atanasov       : Ab Initio Ligand Field Theory (pilot matlab implementation)
   Alexander A. Auer      : GIAO ZORA, VPT2 properties, NMR spectrum
   Ute Becker             : Parallelization
   Giovanni Bistoni       : ED, misc. LED, open-shell LED, HFLD
   Martin Brehm           : Molecular dynamics
   Dmytro Bykov           : SCF Hessian
   Vijay G. Chilkuri      : MRCI spin determinant printing, contributions to CSF-ICE
   Dipayan Datta          : RHF DLPNO-CCSD density
   Achintya Kumar Dutta   : EOM-CC, STEOM-CC
   Dmitry Ganyushin       : Spin-Orbit,Spin-Spin,Magnetic field MRCI
   Miquel Garcia          : C-PCM Hessian, Gaussian charge scheme
   Yang Guo               : DLPNO-NEVPT2, F12-NEVPT2, CIM, IAO-localization
   Andreas Hansen         : Spin unrestricted coupled pair/coupled cluster methods
   Benjamin Helmich-Paris : MC-RPA, TRAH-SCF, COSX integrals
   Lee Huntington         : MR-EOM, pCC
   Robert Izsak           : Overlap fitted RIJCOSX, COSX-SCS-MP3, EOM
   Marcus Kettner         : VPT2
   Christian Kollmar      : KDIIS, OOCD, Brueckner-CCSD(T), CCSD density, CASPT2, CASPT2-K
   Simone Kossmann        : Meta GGA functionals, TD-DFT gradient, OOMP2, MP2 Hessian
   Martin Krupicka        : Initial AUTO-CI
   Lucas Lang             : DCDCAS
   Marvin Lechner         : AUTO-CI (C++ implementation), FIC-MRCC
   Dagmar Lenk            : GEPOL surface, SMD
   Dimitrios Liakos       : Extrapolation schemes; Compound Job, initial MDCI parallelization
   Dimitrios Manganas     : Further ROCIS development; embedding schemes
   Dimitrios Pantazis     : SARC Basis sets
   Anastasios Papadopoulos: AUTO-CI, single reference methods and gradients
   Taras Petrenko         : DFT Hessian,TD-DFT gradient, ASA, ECA, R-Raman, ABS, FL, XAS/XES, NRVS
   Peter Pinski           : DLPNO-MP2, DLPNO-MP2 Gradient
   Christoph Reimann      : Effective Core Potentials
   Marius Retegan         : Local ZFS, SOC
   Christoph Riplinger    : Optimizer, TS searches, QM/MM, DLPNO-CCSD(T), (RO)-DLPNO pert. Triples
   Tobias Risthaus        : Range-separated hybrids, TD-DFT gradient, RPA, STAB
   Michael Roemelt        : Original ROCIS implementation
   Masaaki Saitow         : Open-shell DLPNO-CCSD energy and density
   Barbara Sandhoefer     : DKH picture change effects
   Avijit Sen             : IP-ROCIS
   Kantharuban Sivalingam : CASSCF convergence, NEVPT2, FIC-MRCI
   Bernardo de Souza      : ESD, SOC TD-DFT
   Georgi Stoychev        : AutoAux, RI-MP2 NMR
   Willem Van den Heuvel  : Paramagnetic NMR
   Boris Wezisla          : Elementary symmetry handling
   Frank Wennmohs         : Technical directorship


 We gratefully acknowledge several colleagues who have allowed us to
 interface, adapt or use parts of their codes:
   Stefan Grimme, W. Hujo, H. Kruse, P. Pracht,  : VdW corrections, initial TS optimization,
                  C. Bannwarth, S. Ehlert          DFT functionals, gCP, sTDA/sTD-DF
   Ed Valeev, F. Pavosevic, A. Kumar             : LibInt (2-el integral package), F12 methods
   Garnet Chan, S. Sharma, J. Yang, R. Olivares  : DMRG
   Ulf Ekstrom                                   : XCFun DFT Library
   Mihaly Kallay                                 : mrcc  (arbitrary order and MRCC methods)
   Jiri Pittner, Ondrej Demel                    : Mk-CCSD
   Frank Weinhold                                : gennbo (NPA and NBO analysis)
   Christopher J. Cramer and Donald G. Truhlar   : smd solvation model
   Lars Goerigk                                  : TD-DFT with DH, B97 family of functionals
   V. Asgeirsson, H. Jonsson                     : NEB implementation
   FAccTs GmbH                                   : IRC, NEB, NEB-TS, DLPNO-Multilevel, CI-OPT
                                                   MM, QMMM, 2- and 3-layer-ONIOM, Crystal-QMMM,
                                                   LR-CPCM, SF, NACMEs, symmetry and pop. for TD-DFT,
                                                   nearIR, NL-DFT gradient (VV10), updates on ESD,
                                                   ML-optimized integration grids
   S Lehtola, MJT Oliveira, MAL Marques          : LibXC Library
   Liviu Ungur et al                             : ANISO software


 Your calculation uses the libint2 library for the computation of 2-el integrals
 For citations please refer to: http://libint.valeyev.net

 Your ORCA version has been built with support for libXC version: 5.1.0
 For citations please refer to: https://tddft.org/programs/libxc/

 This ORCA versions uses:
   CBLAS   interface :  Fast vector & matrix operations
   LAPACKE interface :  Fast linear algebra routines
   SCALAPACK package :  Parallel linear algebra routines
   Shared memory     :  Shared parallel matrices
   BLAS/LAPACK       :  OpenBLAS 0.3.15  USE64BITINT DYNAMIC_ARCH NO_AFFINITY Zen SINGLE_THREADED
        Core in use  :  Zen
   Copyright (c) 2011-2014, The OpenBLAS Project


================================================================================

----- Orbital basis set information -----
Your calculation utilizes the basis: cc-pVTZ 
       H, B-Ne : Obtained from the ccRepo (grant-hill.group.shef.ac.uk/ccrepo) Feb. 2017
                 T. H. Dunning, Jr., J. Chem. Phys. 90, 1007 (1989)
            He : Obtained from the ccRepo (grant-hill.group.shef.ac.uk/ccrepo) Feb. 2017
                 D. E. Woon, T. H. Dunning, Jr., J. Chem. Phys. 100, 2975 (1994)
  Li-Be, Na-Mg : Obtained from the ccRepo (grant-hill.group.shef.ac.uk/ccrepo) Feb. 2017
                 B. P. Prascher, D. E. Woon, K. A. Peterson, T. H. Dunning, Jr., A. K. Wilson, Theor. Chem. Acc. 128, 69 (2011)
         Al-Ar : Obtained from the ccRepo (grant-hill.group.shef.ac.uk/ccrepo) Feb. 2017
                 D. E. Woon, T. H. Dunning, Jr., J. Chem. Phys. 98, 1358 (1993)
            Ca : Obtained from the Peterson Research Group Website (tyr0.chem.wsu.edu/~kipeters) Feb. 2017
                 J. Koput, K. A. Peterson, J. Phys. Chem. 106, 9595 (2002)
         Sc-Zn : Obtained from the ccRepo (grant-hill.group.shef.ac.uk/ccrepo) Feb. 2017
                 N. B. Balabanov, K. A. Peterson, J. Chem. Phys. 123, 064107 (2005)
                 N. B. Balabanov, K. A. Peterson, J. Chem. Phys. 125, 074110 (2006)
         Ga-Kr : Obtained from the ccRepo (grant-hill.group.shef.ac.uk/ccrepo) Feb. 2017
                 A. K. Wilson, D. E. Woon, K. A. Peterson, T. H. Dunning, Jr., J. Chem. Phys. 110, 7667 (1999)
             Y : Obtained from the ccRepo (grant-hill.group.shef.ac.uk/ccrepo) Feb. 2017
                 K. A. Peterson, D. Figgen, M. Dolg, H. Stoll, J. Chem. Phys. 126, 124101 (2007)
        Ag, Au : Obtained from the Peterson Research Group Website (tyr0.chem.wsu.edu/~kipeters) Feb. 2017
                 K. A. Peterson, C. Puzzarini, Theor. Chem. Acc. 114, 283 (2005)

----- AuxC basis set information -----
Your calculation utilizes the auxiliary basis: cc-pVTZ/C 
  Obtained from the EMSL Basis Set Exchange (bse.pnl.gov) Feb. 2017
  H-He, B-F, Al-Ar, Ga-Kr : F. Weigend, A. Kohn, C. Hattig, J. Chem. Phys. 116, 3175 (2002)
             Li-Be, Na-Mg : C. Haettig, Phys. Chem. Chem. Phys. 7, 59 (2005)
                       Ne : C. Haettig, Phys. Chem. Chem. Phys. 7, 59 (2005)
                            F. Weigend, A. Kohn, C. Hattig, J. Chem. Phys. 116, 3175 (2002)
                    Sc-Zn : J. G. Hill, J. A. Platts, J. Chem. Phys. 128, 044104 (2008)

================================================================================
                                        WARNINGS
                       Please study these warnings very carefully!
================================================================================


WARNING: No MP2 level density has been requested!
         To caclulate MP2 level properties use
         %mp2 Density relaxed end
         or
         %mp2 Density unrelaxed end

WARNING: Post HF methods need fully converged wavefunctions
  ===> : Setting SCFConvForced true
         You can overwrite this default with %scf ConvForced false 


INFO   : the flag for use of the SHARK integral package has been found!

================================================================================
                                       INPUT FILE
================================================================================
NAME = CONFS/Conf279.orca
|  1> ! ri-mp2 cc-pvtz cc-pvtz/c TightSCF NoKeepInts
|  2> 
|  3> %scf
|  4>   MaxCore 4096
|  5> end
|  6> *xyz  0  1
|  7>     C       15.3305341   13.6664507   16.5939393
|  8>     C       16.6122344   14.0755091   15.8427890
|  9>     O       17.2691647   15.1080453   16.5985825
| 10>     C       16.8318753   16.4021701   16.5181405
| 11>     O       15.9913004   16.7600614   15.7100374
| 12>     C       17.5424388   17.3127608   17.4806477
| 13>     C       17.3669734   18.6584860   17.4765661
| 14>     C       16.4805574   19.4641528   16.5511022
| 15>     N       18.0714262   19.4602659   18.3796009
| 16>     C       19.0242503   19.0079280   19.2528005
| 17>     S       19.8698456   20.0363474   20.2342615
| 18>     N       19.2436496   17.6542427   19.2728024
| 19>     C       18.4660741   16.6542581   18.5182956
| 20>     C       17.6862001   15.7667388   19.4844463
| 21>     C       18.0012702   14.4008132   19.6121716
| 22>     C       17.2781069   13.5794511   20.4933765
| 23>     C       16.2328260   14.1284729   21.2554897
| 24>     C       15.9193238   15.4892076   21.1341088
| 25>     O       14.9109341   16.0222958   21.8689326
| 26>     C       16.6407512   16.3040777   20.2562753
| 27>     H       15.5635396   13.3690412   17.6242781
| 28>     H       14.8444911   12.8210162   16.0924926
| 29>     H       14.6152083   14.4978862   16.6278954
| 30>     H       17.2746798   13.2036091   15.7702051
| 31>     H       16.3778028   14.4128533   14.8237316
| 32>     H       15.4311645   19.1635923   16.6657782
| 33>     H       16.7574417   19.2910134   15.5034011
| 34>     H       16.5376502   20.5435464   16.7339183
| 35>     H       17.9233964   20.4568185   18.3797689
| 36>     H       19.9234013   17.3468790   19.9564039
| 37>     H       19.1858536   16.0272351   17.9736498
| 38>     H       18.8038989   13.9722605   19.0180975
| 39>     H       17.5274949   12.5236206   20.5827091
| 40>     H       15.6712472   13.4983353   21.9372381
| 41>     H       14.5539720   15.3167984   22.4289252
| 42>     H       16.3860213   17.3557592   20.1811407
| 43> *
| 44> 
| 45>                          ****END OF INPUT****
================================================================================

                       ****************************
                       * Single Point Calculation *
                       ****************************

---------------------------------
CARTESIAN COORDINATES (ANGSTROEM)
---------------------------------
  C     15.330534   13.666451   16.593939
  C     16.612234   14.075509   15.842789
  O     17.269165   15.108045   16.598582
  C     16.831875   16.402170   16.518141
  O     15.991300   16.760061   15.710037
  C     17.542439   17.312761   17.480648
  C     17.366973   18.658486   17.476566
  C     16.480557   19.464153   16.551102
  N     18.071426   19.460266   18.379601
  C     19.024250   19.007928   19.252800
  S     19.869846   20.036347   20.234261
  N     19.243650   17.654243   19.272802
  C     18.466074   16.654258   18.518296
  C     17.686200   15.766739   19.484446
  C     18.001270   14.400813   19.612172
  C     17.278107   13.579451   20.493377
  C     16.232826   14.128473   21.255490
  C     15.919324   15.489208   21.134109
  O     14.910934   16.022296   21.868933
  C     16.640751   16.304078   20.256275
  H     15.563540   13.369041   17.624278
  H     14.844491   12.821016   16.092493
  H     14.615208   14.497886   16.627895
  H     17.274680   13.203609   15.770205
  H     16.377803   14.412853   14.823732
  H     15.431164   19.163592   16.665778
  H     16.757442   19.291013   15.503401
  H     16.537650   20.543546   16.733918
  H     17.923396   20.456819   18.379769
  H     19.923401   17.346879   19.956404
  H     19.185854   16.027235   17.973650
  H     18.803899   13.972261   19.018097
  H     17.527495   12.523621   20.582709
  H     15.671247   13.498335   21.937238
  H     14.553972   15.316798   22.428925
  H     16.386021   17.355759   20.181141

----------------------------
CARTESIAN COORDINATES (A.U.)
----------------------------
  NO LB      ZA    FRAG     MASS         X           Y           Z
   0 C     6.0000    0    12.011   28.970511   25.825849   31.358001
   1 C     6.0000    0    12.011   31.392573   26.598857   29.938532
   2 O     8.0000    0    15.999   32.633992   28.550068   31.366775
   3 C     6.0000    0    12.011   31.807635   30.995609   31.214762
   4 O     8.0000    0    15.999   30.219178   31.671926   29.687668
   5 C     6.0000    0    12.011   33.150405   32.716377   33.033637
   6 C     6.0000    0    12.011   32.818824   35.259429   33.025924
   7 C     6.0000    0    12.011   31.143740   36.781918   31.277050
   8 N     7.0000    0    14.007   34.150046   36.774573   34.732412
   9 C     6.0000    0    12.011   35.950623   35.919778   36.382520
  10 S    16.0000    0    32.060   37.548567   37.863209   38.237213
  11 N     7.0000    0    14.007   36.365228   33.361684   36.420318
  12 C     6.0000    0    12.011   34.895823   31.471987   34.994507
  13 C     6.0000    0    12.011   33.422075   29.794818   36.820267
  14 C     6.0000    0    12.011   34.017471   27.213593   37.061633
  15 C     6.0000    0    12.011   32.650890   25.661444   38.726869
  16 C     6.0000    0    12.011   30.675596   26.698944   40.167054
  17 C     6.0000    0    12.011   30.083162   29.270360   39.937678
  18 O     8.0000    0    15.999   28.177582   30.277751   41.326293
  19 C     6.0000    0    12.011   31.446462   30.810242   38.278813
  20 H     1.0000    0     1.008   29.410828   25.263827   33.305059
  21 H     1.0000    0     1.008   28.052023   24.228209   30.410404
  22 H     1.0000    0     1.008   27.618741   27.397034   31.422168
  23 H     1.0000    0     1.008   32.644414   24.951205   29.801369
  24 H     1.0000    0     1.008   30.949562   27.236346   28.012793
  25 H     1.0000    0     1.008   29.160675   36.213941   31.493757
  26 H     1.0000    0     1.008   31.666976   36.454732   29.297182
  27 H     1.0000    0     1.008   31.251630   38.821677   31.622523
  28 H     1.0000    0     1.008   33.870311   38.657785   34.732730
  29 H     1.0000    0     1.008   37.649772   32.780851   37.712138
  30 H     1.0000    0     1.008   36.256009   30.287085   33.965276
  31 H     1.0000    0     1.008   35.534219   26.403746   35.938996
  32 H     1.0000    0     1.008   33.122165   23.666213   38.895683
  33 H     1.0000    0     1.008   29.614365   25.508157   41.455372
  34 H     1.0000    0     1.008   27.503021   28.944554   42.384526
  35 H     1.0000    0     1.008   30.965093   32.797632   38.136829

--------------------------------
INTERNAL COORDINATES (ANGSTROEM)
--------------------------------
 C      0   0   0     0.000000000000     0.00000000     0.00000000
 C      1   0   0     1.540880010520     0.00000000     0.00000000
 O      2   1   0     1.438371383896   108.31963966     0.00000000
 C      3   2   1     1.368375654815   120.13617214   280.09446836
 O      4   3   2     1.219706097941   122.45825662   351.48887744
 C      4   3   2     1.503494602754   112.58919799   174.02370616
 C      6   4   3     1.357122352616   122.51587662   173.03885296
 C      7   6   4     1.513709267951   127.25246107   359.58252112
 N      7   6   4     1.398061731642   120.10508578   181.11164145
 C      9   7   6     1.369292110091   124.96511198     4.35963104
 S     10   9   7     1.654068791858   121.91967170   176.69028601
 N     10   9   7     1.371495541473   116.53027927   356.70946335
 C     12  10   9     1.474406107449   125.28137749   354.71414234
 C     13  12  10     1.526217919846   109.87306110   246.58266567
 C     14  13  12     1.407599255793   120.48842255   246.65073839
 C     15  14  13     1.405034851371   120.59596445   180.48882269
 C     16  15  14     1.405294853899   119.64201133   359.87135394
 C     17  16  15     1.401647557724   119.91273743   359.91434518
 O     18  17  16     1.356834121436   120.04971758   180.02198199
 C     18  17  16     1.398235469106   120.31405689     0.08875819
 H      1   2   3     1.097425175812   110.67203233   304.78518957
 H      1   2   3     1.096561026382   110.51437869   184.77965426
 H      1   2   3     1.097328122092   110.86528996    65.03518450
 H      2   1   3     1.097411472749   108.87071326   118.67640413
 H      2   1   3     1.098743495474   110.86446289   237.52173658
 H      8   7   6     1.097594031373   110.50259935    61.10543941
 H      8   7   6     1.097415036511   110.60789883   302.40357927
 H      8   7   6     1.096253555503   113.05444121   181.73918611
 H      9   7   6     1.007486940103   119.56052902   181.01651770
 H     12  10   9     1.011852671357   114.65403993   182.58051345
 H     13  12  10     1.099035676676   107.16656872   128.93691014
 H     15  14  13     1.086643586017   119.89614809   359.87304393
 H     16  15  14     1.088555342046   120.03730025   179.81106441
 H     17  16  15     1.085000011265   119.92389194   179.98704618
 H     19  18  17     0.968886079112   107.50216120     1.72933591
 H     20  18  17     1.084696504795   119.16765840   180.33924008

---------------------------
INTERNAL COORDINATES (A.U.)
---------------------------
 C      0   0   0     0.000000000000     0.00000000     0.00000000
 C      1   0   0     2.911841225117     0.00000000     0.00000000
 O      2   1   0     2.718127994433   108.31963966     0.00000000
 C      3   2   1     2.585855235926   120.13617214   280.09446836
 O      4   3   2     2.304910488983   122.45825662   351.48887744
 C      4   3   2     2.841193043034   112.58919799   174.02370616
 C      6   4   3     2.564589576668   122.51587662   173.03885296
 C      7   6   4     2.860495962806   127.25246107   359.58252112
 N      7   6   4     2.641953791120   120.10508578   181.11164145
 C      9   7   6     2.587587085411   124.96511198     4.35963104
 S     10   9   7     3.125737023278   121.91967170   176.69028601
 N     10   9   7     2.591750967278   116.53027927   356.70946335
 C     12  10   9     2.786223753260   125.28137749   354.71414234
 C     13  12  10     2.884133889192   109.87306110   246.58266567
 C     14  13  12     2.659977099760   120.48842255   246.65073839
 C     15  14  13     2.655131077706   120.59596445   180.48882269
 C     16  15  14     2.655622411278   119.64201133   359.87135394
 C     17  16  15     2.648730020378   119.91273743   359.91434518
 O     18  17  16     2.564044898673   120.04971758   180.02198199
 C     18  17  16     2.642282107346   120.31405689     0.08875819
 H      1   2   3     2.073833034755   110.67203233   304.78518957
 H      1   2   3     2.072200028994   110.51437869   184.77965426
 H      1   2   3     2.073649629803   110.86528996    65.03518450
 H      2   1   3     2.073807139718   108.87071326   118.67640413
 H      2   1   3     2.076324297874   110.86446289   237.52173658
 H      8   7   6     2.074152125522   110.50259935    61.10543941
 H      8   7   6     2.073813874253   110.60789883   302.40357927
 H      8   7   6     2.071618993237   113.05444121   181.73918611
 H      9   7   6     1.903874400298   119.56052902   181.01651770
 H     12  10   9     1.912124436742   114.65403993   182.58051345
 H     13  12  10     2.076876440327   107.16656872   128.93691014
 H     15  14  13     2.053458782754   119.89614809   359.87304393
 H     16  15  14     2.057071478084   120.03730025   179.81106441
 H     17  16  15     2.050352876593   119.92389194   179.98704618
 H     19  18  17     1.830929344491   107.50216120     1.72933591
 H     20  18  17     2.049779332483   119.16765840   180.33924008

---------------------
BASIS SET INFORMATION
---------------------
There are 5 groups of distinct atoms

 Group   1 Type C   : 18s5p2d1f contracted to 4s3p2d1f pattern {8811/311/11/1}
 Group   2 Type O   : 18s5p2d1f contracted to 4s3p2d1f pattern {8811/311/11/1}
 Group   3 Type N   : 18s5p2d1f contracted to 4s3p2d1f pattern {8811/311/11/1}
 Group   4 Type S   : 41s16p2d1f contracted to 5s4p2d1f pattern {13131311/7711/11/1}
 Group   5 Type H   : 5s2p1d contracted to 3s2p1d pattern {311/11/1}

Atom   0C    basis set group =>   1
Atom   1C    basis set group =>   1
Atom   2O    basis set group =>   2
Atom   3C    basis set group =>   1
Atom   4O    basis set group =>   2
Atom   5C    basis set group =>   1
Atom   6C    basis set group =>   1
Atom   7C    basis set group =>   1
Atom   8N    basis set group =>   3
Atom   9C    basis set group =>   1
Atom  10S    basis set group =>   4
Atom  11N    basis set group =>   3
Atom  12C    basis set group =>   1
Atom  13C    basis set group =>   1
Atom  14C    basis set group =>   1
Atom  15C    basis set group =>   1
Atom  16C    basis set group =>   1
Atom  17C    basis set group =>   1
Atom  18O    basis set group =>   2
Atom  19C    basis set group =>   1
Atom  20H    basis set group =>   5
Atom  21H    basis set group =>   5
Atom  22H    basis set group =>   5
Atom  23H    basis set group =>   5
Atom  24H    basis set group =>   5
Atom  25H    basis set group =>   5
Atom  26H    basis set group =>   5
Atom  27H    basis set group =>   5
Atom  28H    basis set group =>   5
Atom  29H    basis set group =>   5
Atom  30H    basis set group =>   5
Atom  31H    basis set group =>   5
Atom  32H    basis set group =>   5
Atom  33H    basis set group =>   5
Atom  34H    basis set group =>   5
Atom  35H    basis set group =>   5
---------------------------------
AUXILIARY/C BASIS SET INFORMATION
---------------------------------
There are 5 groups of distinct atoms

 Group   1 Type C   : 8s6p5d3f1g contracted to 8s6p5d3f1g pattern {11111111/111111/11111/111/1}
 Group   2 Type O   : 8s6p5d3f1g contracted to 8s6p5d3f1g pattern {11111111/111111/11111/111/1}
 Group   3 Type N   : 8s6p5d3f1g contracted to 8s6p5d3f1g pattern {11111111/111111/11111/111/1}
 Group   4 Type S   : 10s8p7d5f2g contracted to 10s8p7d5f2g pattern {1111111111/11111111/1111111/11111/11}
 Group   5 Type H   : 4s3p2d1f contracted to 4s3p2d1f pattern {1111/111/11/1}

Atom   0C    basis set group =>   1
Atom   1C    basis set group =>   1
Atom   2O    basis set group =>   2
Atom   3C    basis set group =>   1
Atom   4O    basis set group =>   2
Atom   5C    basis set group =>   1
Atom   6C    basis set group =>   1
Atom   7C    basis set group =>   1
Atom   8N    basis set group =>   3
Atom   9C    basis set group =>   1
Atom  10S    basis set group =>   4
Atom  11N    basis set group =>   3
Atom  12C    basis set group =>   1
Atom  13C    basis set group =>   1
Atom  14C    basis set group =>   1
Atom  15C    basis set group =>   1
Atom  16C    basis set group =>   1
Atom  17C    basis set group =>   1
Atom  18O    basis set group =>   2
Atom  19C    basis set group =>   1
Atom  20H    basis set group =>   5
Atom  21H    basis set group =>   5
Atom  22H    basis set group =>   5
Atom  23H    basis set group =>   5
Atom  24H    basis set group =>   5
Atom  25H    basis set group =>   5
Atom  26H    basis set group =>   5
Atom  27H    basis set group =>   5
Atom  28H    basis set group =>   5
Atom  29H    basis set group =>   5
Atom  30H    basis set group =>   5
Atom  31H    basis set group =>   5
Atom  32H    basis set group =>   5
Atom  33H    basis set group =>   5
Atom  34H    basis set group =>   5
Atom  35H    basis set group =>   5
------------------------------------------------------------------------------
                           ORCA GTO INTEGRAL CALCULATION
------------------------------------------------------------------------------
------------------------------------------------------------------------------
                   ___                                                        
                  /   \      - P O W E R E D   B Y -                         
                 /     \                                                     
                 |  |  |   _    _      __       _____    __    __             
                 |  |  |  | |  | |    /  \     |  _  \  |  |  /  |          
                  \  \/   | |  | |   /    \    | | | |  |  | /  /          
                 / \  \   | |__| |  /  /\  \   | |_| |  |  |/  /          
                |  |  |   |  __  | /  /__\  \  |    /   |      \           
                |  |  |   | |  | | |   __   |  |    \   |  |\   \          
                \     /   | |  | | |  |  |  |  | |\  \  |  | \   \       
                 \___/    |_|  |_| |__|  |__|  |_| \__\ |__|  \__/        
                                                                              
                      - O R C A' S   B I G   F R I E N D -                    
                                      &                                       
                       - I N T E G R A L  F E E D E R -                       
                                                                              
 v1 FN, 2020, v2 2021                                                         
------------------------------------------------------------------------------


Reading SHARK input file CONFS/Conf279.orca.SHARKINP.tmp ... ok
----------------------
SHARK INTEGRAL PACKAGE
----------------------

Number of atoms                             ...     36
Number of basis functions                   ...    828
Number of shells                            ...    298
Maximum angular momentum                    ...      3
Integral batch strategy                     ... SHARK/LIBINT Hybrid
RI-J (if used) integral strategy            ... SPLIT-RIJ (Revised 2003 algorithm where possible)
Printlevel                                  ...      1
Contraction scheme used                     ... SEGMENTED contraction
Coulomb Range Separation                    ... NOT USED
Exchange Range Separation                   ... NOT USED
Finite Nucleus Model                        ... NOT USED
Auxiliary Coulomb fitting basis             ... NOT available
Auxiliary J/K fitting basis                 ... NOT available
Auxiliary Correlation fitting basis         ... AVAILABLE
   # of basis functions in Aux-C            ...   2141
   # of shells in Aux-C                     ...    629
   Maximum angular momentum in Aux-C        ...      4
Auxiliary 'external' fitting basis          ... NOT available
Integral threshold                          ...     2.500000e-11
Primitive cut-off                           ...     2.500000e-12
Primitive pair pre-selection threshold      ...     2.500000e-12

Calculating pre-screening integrals         ... done (  0.5 sec) Dimension = 298
Organizing shell pair data                  ... done (  1.3 sec)
Shell pair information
Total number of shell pairs                 ...     44551
Shell pairs after pre-screening             ...     33379
Total number of primitive shell pairs       ...    234348
Primitive shell pairs kept                  ...     95662
          la=0 lb=0:   6664 shell pairs
          la=1 lb=0:   9274 shell pairs
          la=1 lb=1:   3272 shell pairs
          la=2 lb=0:   5331 shell pairs
          la=2 lb=1:   3670 shell pairs
          la=2 lb=2:   1038 shell pairs
          la=3 lb=0:   1926 shell pairs
          la=3 lb=1:   1321 shell pairs
          la=3 lb=2:    733 shell pairs
          la=3 lb=3:    150 shell pairs

Calculating one electron integrals          ... done (  0.3 sec)
Calculating RI/C V-Matrix + Cholesky decomp.... done (  1.1 sec)
Calculating Nuclear repulsion               ... done (  0.1 sec) ENN=   1707.271353378359 Eh

SHARK setup successfully completed in   4.1 seconds

Maximum memory used throughout the entire GTOINT-calculation: 496.0 MB
-------------------------------------------------------------------------------
                                 ORCA SCF
-------------------------------------------------------------------------------

------------
SCF SETTINGS
------------
Hamiltonian:
 Ab initio Hamiltonian  Method          .... Hartree-Fock(GTOs)


General Settings:
 Integral files         IntName         .... CONFS/Conf279.orca
 Hartree-Fock type      HFTyp           .... RHF
 Total Charge           Charge          ....    0
 Multiplicity           Mult            ....    1
 Number of Electrons    NEL             ....  154
 Basis Dimension        Dim             ....  828
 Nuclear Repulsion      ENuc            ....   1707.2713533784 Eh

Convergence Acceleration:
 DIIS                   CNVDIIS         .... on
   Start iteration      DIISMaxIt       ....    12
   Startup error        DIISStart       ....  0.200000
   # of expansion vecs  DIISMaxEq       ....     5
   Bias factor          DIISBfac        ....   1.050
   Max. coefficient     DIISMaxC        ....  10.000
 Trust-Rad. Augm. Hess. CNVTRAH         .... auto
   Auto Start mean grad. ratio tolernc. ....  1.125000
   Auto Start start iteration           ....    20
   Auto Start num. interpolation iter.  ....    10
   Max. Number of Micro iterations      ....    16
   Max. Number of Macro iterations      .... Maxiter - #DIIS iter
   Number of Davidson start vectors     ....     2
   Converg. threshold I  (grad. norm)   ....   1.000e-05
   Converg. threshold II (energy diff.) ....   1.000e-08
   Grad. Scal. Fac. for Micro threshold ....   0.100
   Minimum threshold for Micro iter.    ....   0.010
   NR start threshold (gradient norm)   ....   0.001
   Initial trust radius                 ....   0.400
   Minimum AH scaling param. (alpha)    ....   1.000
   Maximum AH scaling param. (alpha)    .... 1000.000
   Orbital update algorithm             .... Taylor
   White noise on init. David. guess    .... on
   Maximum white noise                  ....   0.010
   Quad. conv. algorithm                .... NR
 SOSCF                  CNVSOSCF        .... on
   Start iteration      SOSCFMaxIt      ....   150
   Startup grad/error   SOSCFStart      ....  0.003300
 Level Shifting         CNVShift        .... on
   Level shift para.    LevelShift      ....    0.2500
   Turn off err/grad.   ShiftErr        ....    0.0010
 Zerner damping         CNVZerner       .... off
 Static damping         CNVDamp         .... on
   Fraction old density DampFac         ....    0.7000
   Max. Damping (<1)    DampMax         ....    0.9800
   Min. Damping (>=0)   DampMin         ....    0.0000
   Turn off err/grad.   DampErr         ....    0.1000
 Fernandez-Rico         CNVRico         .... off

SCF Procedure:
 Maximum # iterations   MaxIter         ....   125
 SCF integral mode      SCFMode         .... Direct
   Integral package                     .... SHARK and LIBINT hybrid scheme
 Reset frequency        DirectResetFreq ....    20
 Integral Threshold     Thresh          ....  2.500e-11 Eh
 Primitive CutOff       TCut            ....  2.500e-12 Eh

Convergence Tolerance:
 Convergence Check Mode ConvCheckMode   .... Total+1el-Energy
 Convergence forced     ConvForced      .... 1
 Energy Change          TolE            ....  1.000e-08 Eh
 1-El. energy change                    ....  1.000e-05 Eh
 Orbital Gradient       TolG            ....  1.000e-05
 Orbital Rotation angle TolX            ....  1.000e-05
 DIIS Error             TolErr          ....  5.000e-07


Diagonalization of the overlap matrix:
Smallest eigenvalue                        ... 3.475e-05
Time for diagonalization                   ...    0.118 sec
Threshold for overlap eigenvalues          ... 1.000e-08
Number of eigenvalues below threshold      ... 0
Time for construction of square roots      ...    0.205 sec
Total time needed                          ...    0.324 sec

Time for model grid setup =    1.542 sec

------------------------------
INITIAL GUESS: MODEL POTENTIAL
------------------------------
Loading Hartree-Fock densities                     ... done
Calculating cut-offs                               ... done
Initializing the effective Hamiltonian             ... done
Setting up the integral package (SHARK)            ... done
Starting the Coulomb interaction                   ... done (   4.6 sec)
Reading the grid                                   ... done
Mapping shells                                     ... done
Starting the XC term evaluation                    ... done (   1.2 sec)
Transforming the Hamiltonian                       ... done (   0.1 sec)
Diagonalizing the Hamiltonian                      ... done (   0.1 sec)
Back transforming the eigenvectors                 ... done (   0.0 sec)
Now organizing SCF variables                       ... done
                      ------------------
                      INITIAL GUESS DONE (   7.7 sec)
                      ------------------
--------------
SCF ITERATIONS
--------------
ITER       Energy         Delta-E        Max-DP      RMS-DP      [F,P]     Damp
               ***  Starting incremental Fock matrix formation  ***
  0  -1270.0232288276   0.000000000000 0.04930676  0.00042997  0.3004363 0.7000
  1  -1270.2909204810  -0.267691653462 0.03607591  0.00034555  0.1758064 0.7000
                               ***Turning on DIIS***
  2  -1270.4578230901  -0.166902609084 0.02583522  0.00023307  0.1096534 0.7000
  3  -1272.6040245106  -2.146201420489 0.06313453  0.00051045  0.0829250 0.0000
  4  -1270.7660791339   1.837945376675 0.00711776  0.00009258  0.0069772 0.0000
  5  -1270.8259145962  -0.059835462296 0.00355137  0.00004981  0.0047049 0.0000
                      *** Initiating the SOSCF procedure ***
                           *** Shutting down DIIS ***
                      *** Re-Reading the Fockian *** 
                      *** Removing any level shift *** 
ITER      Energy       Delta-E        Grad      Rot      Max-DP    RMS-DP
  6  -1270.80575762   0.0201569736  0.001580  0.001580  0.001661  0.000025
               *** Restarting incremental Fock matrix formation ***
  7  -1270.82028973  -0.0145321065  0.000849  0.002168  0.001263  0.000015
  8  -1270.82033289  -0.0000431589  0.000379  0.002377  0.001368  0.000015
  9  -1270.82034876  -0.0000158720  0.000160  0.000311  0.000345  0.000004
 10  -1270.82035071  -0.0000019549  0.000054  0.000141  0.000112  0.000001
 11  -1270.82035090  -0.0000001892  0.000024  0.000116  0.000051  0.000001
 12  -1270.82035096  -0.0000000590  0.000010  0.000041  0.000033  0.000000
 13  -1270.82035096  -0.0000000012  0.000003  0.000012  0.000006  0.000000
                  ***Gradient check signals convergence***
              ***Rediagonalizing the Fockian in SOSCF/NRSCF***

               *****************************************************
               *                     SUCCESS                       *
               *           SCF CONVERGED AFTER  14 CYCLES          *
               *****************************************************


----------------
TOTAL SCF ENERGY
----------------

Total Energy       :        -1270.82035095 Eh          -34580.77980 eV

Components:
Nuclear Repulsion  :         1707.27135338 Eh           46457.21536 eV
Electronic Energy  :        -2978.09170433 Eh          -81037.99517 eV
One Electron Energy:        -5135.85887125 Eh         -139753.82483 eV
Two Electron Energy:         2157.76716693 Eh           58715.82967 eV

Virial components:
Potential Energy   :        -2539.75258215 Eh          -69110.18125 eV
Kinetic Energy     :         1268.93223120 Eh           34529.40145 eV
Virial Ratio       :            2.00148796


---------------
SCF CONVERGENCE
---------------

  Last Energy change         ...    1.5837e-08  Tolerance :   1.0000e-08
  Last MAX-Density change    ...    1.9183e-06  Tolerance :   1.0000e-07
  Last RMS-Density change    ...    2.6028e-08  Tolerance :   5.0000e-09
  Last Orbital Gradient      ...    1.3055e-06  Tolerance :   1.0000e-05
  Last Orbital Rotation      ...    2.9546e-06  Tolerance :   1.0000e-05

             **** THE GBW FILE WAS UPDATED (CONFS/Conf279.orca.gbw) ****
             **** DENSITY CONFS/Conf279.orca.scfp WAS UPDATED ****
             **** ENERGY FILE WAS UPDATED (CONFS/Conf279.orca.en.tmp) ****
             **** THE GBW FILE WAS UPDATED (CONFS/Conf279.orca.gbw) ****
             **** DENSITY CONFS/Conf279.orca.scfp WAS UPDATED ****
----------------
ORBITAL ENERGIES
----------------

  NO   OCC          E(Eh)            E(eV) 
   0   2.0000     -91.888655     -2500.4174 
   1   2.0000     -20.601667      -560.5999 
   2   2.0000     -20.596251      -560.4525 
   3   2.0000     -20.541761      -558.9697 
   4   2.0000     -15.628796      -425.2812 
   5   2.0000     -15.608103      -424.7181 
   6   2.0000     -11.395507      -310.0875 
   7   2.0000     -11.383842      -309.7701 
   8   2.0000     -11.335779      -308.4622 
   9   2.0000     -11.313459      -307.8549 
  10   2.0000     -11.308558      -307.7215 
  11   2.0000     -11.296740      -307.3999 
  12   2.0000     -11.259255      -306.3799 
  13   2.0000     -11.258875      -306.3696 
  14   2.0000     -11.254762      -306.2576 
  15   2.0000     -11.251926      -306.1805 
  16   2.0000     -11.243012      -305.9379 
  17   2.0000     -11.238412      -305.8127 
  18   2.0000     -11.237865      -305.7978 
  19   2.0000     -11.222482      -305.3793 
  20   2.0000      -8.893720      -242.0104 
  21   2.0000      -6.575296      -178.9229 
  22   2.0000      -6.573290      -178.8683 
  23   2.0000      -6.572704      -178.8524 
  24   2.0000      -1.451433       -39.4955 
  25   2.0000      -1.415929       -38.5294 
  26   2.0000      -1.354807       -36.8662 
  27   2.0000      -1.339759       -36.4567 
  28   2.0000      -1.238255       -33.6946 
  29   2.0000      -1.157505       -31.4973 
  30   2.0000      -1.120393       -30.4875 
  31   2.0000      -1.042648       -28.3719 
  32   2.0000      -1.035861       -28.1872 
  33   2.0000      -1.014807       -27.6143 
  34   2.0000      -0.995046       -27.0766 
  35   2.0000      -0.983967       -26.7751 
  36   2.0000      -0.922302       -25.0971 
  37   2.0000      -0.893881       -24.3237 
  38   2.0000      -0.846770       -23.0418 
  39   2.0000      -0.837427       -22.7876 
  40   2.0000      -0.833799       -22.6888 
  41   2.0000      -0.815943       -22.2029 
  42   2.0000      -0.756932       -20.5972 
  43   2.0000      -0.732322       -19.9275 
  44   2.0000      -0.723103       -19.6766 
  45   2.0000      -0.695589       -18.9279 
  46   2.0000      -0.688629       -18.7386 
  47   2.0000      -0.679390       -18.4871 
  48   2.0000      -0.670657       -18.2495 
  49   2.0000      -0.659612       -17.9490 
  50   2.0000      -0.648158       -17.6373 
  51   2.0000      -0.641107       -17.4454 
  52   2.0000      -0.631142       -17.1742 
  53   2.0000      -0.611066       -16.6279 
  54   2.0000      -0.606331       -16.4991 
  55   2.0000      -0.599510       -16.3135 
  56   2.0000      -0.598547       -16.2873 
  57   2.0000      -0.577337       -15.7101 
  58   2.0000      -0.570497       -15.5240 
  59   2.0000      -0.569059       -15.4849 
  60   2.0000      -0.560871       -15.2621 
  61   2.0000      -0.543482       -14.7889 
  62   2.0000      -0.533805       -14.5256 
  63   2.0000      -0.529009       -14.3951 
  64   2.0000      -0.524453       -14.2711 
  65   2.0000      -0.513055       -13.9609 
  66   2.0000      -0.500840       -13.6285 
  67   2.0000      -0.499340       -13.5877 
  68   2.0000      -0.482342       -13.1252 
  69   2.0000      -0.463966       -12.6252 
  70   2.0000      -0.454959       -12.3801 
  71   2.0000      -0.447640       -12.1809 
  72   2.0000      -0.354074        -9.6348 
  73   2.0000      -0.349348        -9.5062 
  74   2.0000      -0.328039        -8.9264 
  75   2.0000      -0.320920        -8.7327 
  76   2.0000      -0.315900        -8.5961 
  77   0.0000       0.076648         2.0857 
  78   0.0000       0.106745         2.9047 
  79   0.0000       0.125176         3.4062 
  80   0.0000       0.132871         3.6156 
  81   0.0000       0.138661         3.7732 
  82   0.0000       0.141603         3.8532 
  83   0.0000       0.152725         4.1559 
  84   0.0000       0.160369         4.3638 
  85   0.0000       0.167105         4.5472 
  86   0.0000       0.170482         4.6391 
  87   0.0000       0.174786         4.7562 
  88   0.0000       0.193028         5.2526 
  89   0.0000       0.194869         5.3027 
  90   0.0000       0.202490         5.5100 
  91   0.0000       0.208287         5.6678 
  92   0.0000       0.212055         5.7703 
  93   0.0000       0.225291         6.1305 
  94   0.0000       0.227784         6.1983 
  95   0.0000       0.235178         6.3995 
  96   0.0000       0.246421         6.7055 
  97   0.0000       0.249413         6.7869 
  98   0.0000       0.258740         7.0407 
  99   0.0000       0.276987         7.5372 
 100   0.0000       0.292908         7.9704 
 101   0.0000       0.302352         8.2274 
 102   0.0000       0.308807         8.4031 
 103   0.0000       0.317784         8.6474 
 104   0.0000       0.322868         8.7857 
 105   0.0000       0.335964         9.1420 
 106   0.0000       0.342235         9.3127 
 107   0.0000       0.346706         9.4343 
 108   0.0000       0.358198         9.7471 
 109   0.0000       0.368233        10.0201 
 110   0.0000       0.373453        10.1622 
 111   0.0000       0.376808        10.2535 
 112   0.0000       0.380606        10.3568 
 113   0.0000       0.389314        10.5938 
 114   0.0000       0.398098        10.8328 
 115   0.0000       0.406866        11.0714 
 116   0.0000       0.416865        11.3435 
 117   0.0000       0.424814        11.5598 
 118   0.0000       0.432219        11.7613 
 119   0.0000       0.437040        11.8925 
 120   0.0000       0.446107        12.1392 
 121   0.0000       0.451758        12.2930 
 122   0.0000       0.456056        12.4099 
 123   0.0000       0.460008        12.5175 
 124   0.0000       0.469304        12.7704 
 125   0.0000       0.470552        12.8044 
 126   0.0000       0.480171        13.0661 
 127   0.0000       0.484161        13.1747 
 128   0.0000       0.492888        13.4122 
 129   0.0000       0.495410        13.4808 
 130   0.0000       0.504727        13.7343 
 131   0.0000       0.508317        13.8320 
 132   0.0000       0.515768        14.0348 
 133   0.0000       0.517649        14.0860 
 134   0.0000       0.524772        14.2798 
 135   0.0000       0.529199        14.4002 
 136   0.0000       0.535668        14.5763 
 137   0.0000       0.541700        14.7404 
 138   0.0000       0.542783        14.7699 
 139   0.0000       0.546751        14.8778 
 140   0.0000       0.558854        15.2072 
 141   0.0000       0.563740        15.3401 
 142   0.0000       0.565552        15.3895 
 143   0.0000       0.570868        15.5341 
 144   0.0000       0.575844        15.6695 
 145   0.0000       0.580036        15.7836 
 146   0.0000       0.590531        16.0692 
 147   0.0000       0.595172        16.1955 
 148   0.0000       0.600489        16.3401 
 149   0.0000       0.602544        16.3960 
 150   0.0000       0.603372        16.4186 
 151   0.0000       0.608945        16.5702 
 152   0.0000       0.610786        16.6203 
 153   0.0000       0.617771        16.8104 
 154   0.0000       0.622638        16.9428 
 155   0.0000       0.624379        16.9902 
 156   0.0000       0.628948        17.1145 
 157   0.0000       0.632084        17.1999 
 158   0.0000       0.637283        17.3414 
 159   0.0000       0.641401        17.4534 
 160   0.0000       0.646497        17.5921 
 161   0.0000       0.651103        17.7174 
 162   0.0000       0.656977        17.8772 
 163   0.0000       0.659502        17.9460 
 164   0.0000       0.669006        18.2046 
 165   0.0000       0.673672        18.3315 
 166   0.0000       0.678465        18.4620 
 167   0.0000       0.686604        18.6834 
 168   0.0000       0.693252        18.8643 
 169   0.0000       0.697735        18.9863 
 170   0.0000       0.702313        19.1109 
 171   0.0000       0.708269        19.2730 
 172   0.0000       0.717763        19.5313 
 173   0.0000       0.722855        19.6699 
 174   0.0000       0.728039        19.8110 
 175   0.0000       0.739461        20.1217 
 176   0.0000       0.742596        20.2071 
 177   0.0000       0.746214        20.3055 
 178   0.0000       0.753020        20.4907 
 179   0.0000       0.758436        20.6381 
 180   0.0000       0.763921        20.7874 
 181   0.0000       0.765763        20.8375 
 182   0.0000       0.776820        21.1383 
 183   0.0000       0.787613        21.4320 
 184   0.0000       0.793903        21.6032 
 185   0.0000       0.811192        22.0736 
 186   0.0000       0.821598        22.3568 
 187   0.0000       0.823568        22.4104 
 188   0.0000       0.832145        22.6438 
 189   0.0000       0.836647        22.7663 
 190   0.0000       0.843263        22.9463 
 191   0.0000       0.850167        23.1342 
 192   0.0000       0.855282        23.2734 
 193   0.0000       0.858749        23.3678 
 194   0.0000       0.871032        23.7020 
 195   0.0000       0.871654        23.7189 
 196   0.0000       0.885361        24.0919 
 197   0.0000       0.891091        24.2478 
 198   0.0000       0.895960        24.3803 
 199   0.0000       0.905865        24.6498 
 200   0.0000       0.914865        24.8948 
 201   0.0000       0.922744        25.1091 
 202   0.0000       0.927886        25.2491 
 203   0.0000       0.933175        25.3930 
 204   0.0000       0.942353        25.6427 
 205   0.0000       0.951564        25.8934 
 206   0.0000       0.958690        26.0873 
 207   0.0000       0.964612        26.2484 
 208   0.0000       0.969398        26.3787 
 209   0.0000       0.977079        26.5877 
 210   0.0000       0.985053        26.8047 
 211   0.0000       0.988523        26.8991 
 212   0.0000       0.996275        27.1100 
 213   0.0000       1.002962        27.2920 
 214   0.0000       1.014679        27.6108 
 215   0.0000       1.023398        27.8481 
 216   0.0000       1.027331        27.9551 
 217   0.0000       1.035165        28.1683 
 218   0.0000       1.037905        28.2428 
 219   0.0000       1.045058        28.4375 
 220   0.0000       1.050508        28.5858 
 221   0.0000       1.061274        28.8787 
 222   0.0000       1.065582        28.9960 
 223   0.0000       1.073570        29.2133 
 224   0.0000       1.078535        29.3484 
 225   0.0000       1.084447        29.5093 
 226   0.0000       1.099039        29.9064 
 227   0.0000       1.101880        29.9837 
 228   0.0000       1.111314        30.2404 
 229   0.0000       1.127343        30.6766 
 230   0.0000       1.131118        30.7793 
 231   0.0000       1.139498        31.0073 
 232   0.0000       1.144059        31.1314 
 233   0.0000       1.149242        31.2725 
 234   0.0000       1.156199        31.4618 
 235   0.0000       1.163055        31.6483 
 236   0.0000       1.166859        31.7518 
 237   0.0000       1.172041        31.8929 
 238   0.0000       1.181498        32.1502 
 239   0.0000       1.189221        32.3603 
 240   0.0000       1.197174        32.5768 
 241   0.0000       1.201390        32.6915 
 242   0.0000       1.201832        32.7035 
 243   0.0000       1.208390        32.8820 
 244   0.0000       1.216971        33.1155 
 245   0.0000       1.223530        33.2939 
 246   0.0000       1.231349        33.5067 
 247   0.0000       1.241348        33.7788 
 248   0.0000       1.251787        34.0628 
 249   0.0000       1.253550        34.1108 
 250   0.0000       1.264358        34.4049 
 251   0.0000       1.267530        34.4912 
 252   0.0000       1.273621        34.6570 
 253   0.0000       1.278609        34.7927 
 254   0.0000       1.283689        34.9310 
 255   0.0000       1.296204        35.2715 
 256   0.0000       1.304715        35.5031 
 257   0.0000       1.319917        35.9168 
 258   0.0000       1.327189        36.1147 
 259   0.0000       1.331697        36.2373 
 260   0.0000       1.346077        36.6286 
 261   0.0000       1.351583        36.7784 
 262   0.0000       1.359363        36.9901 
 263   0.0000       1.366205        37.1763 
 264   0.0000       1.372943        37.3597 
 265   0.0000       1.377401        37.4810 
 266   0.0000       1.387231        37.7485 
 267   0.0000       1.396066        37.9889 
 268   0.0000       1.404029        38.2056 
 269   0.0000       1.413953        38.4756 
 270   0.0000       1.422600        38.7109 
 271   0.0000       1.429200        38.8905 
 272   0.0000       1.436382        39.0859 
 273   0.0000       1.451429        39.4954 
 274   0.0000       1.454758        39.5860 
 275   0.0000       1.460839        39.7515 
 276   0.0000       1.464645        39.8550 
 277   0.0000       1.477679        40.2097 
 278   0.0000       1.484869        40.4053 
 279   0.0000       1.495838        40.7038 
 280   0.0000       1.499284        40.7976 
 281   0.0000       1.505236        40.9595 
 282   0.0000       1.513454        41.1832 
 283   0.0000       1.518002        41.3069 
 284   0.0000       1.524882        41.4941 
 285   0.0000       1.531868        41.6842 
 286   0.0000       1.538370        41.8612 
 287   0.0000       1.539010        41.8786 
 288   0.0000       1.547704        42.1152 
 289   0.0000       1.551583        42.2207 
 290   0.0000       1.558452        42.4076 
 291   0.0000       1.560339        42.4590 
 292   0.0000       1.572695        42.7952 
 293   0.0000       1.580825        43.0164 
 294   0.0000       1.584835        43.1256 
 295   0.0000       1.594040        43.3760 
 296   0.0000       1.601361        43.5753 
 297   0.0000       1.608523        43.7701 
 298   0.0000       1.612947        43.8905 
 299   0.0000       1.623309        44.1725 
 300   0.0000       1.637932        44.5704 
 301   0.0000       1.650483        44.9119 
 302   0.0000       1.654250        45.0144 
 303   0.0000       1.657621        45.1062 
 304   0.0000       1.661929        45.2234 
 305   0.0000       1.675846        45.6021 
 306   0.0000       1.690195        45.9926 
 307   0.0000       1.700968        46.2857 
 308   0.0000       1.702922        46.3389 
 309   0.0000       1.706067        46.4244 
 310   0.0000       1.721825        46.8533 
 311   0.0000       1.732600        47.1464 
 312   0.0000       1.740240        47.3543 
 313   0.0000       1.756515        47.7972 
 314   0.0000       1.761391        47.9299 
 315   0.0000       1.779551        48.4241 
 316   0.0000       1.782218        48.4966 
 317   0.0000       1.789516        48.6952 
 318   0.0000       1.799826        48.9758 
 319   0.0000       1.802956        49.0609 
 320   0.0000       1.808606        49.2147 
 321   0.0000       1.820742        49.5449 
 322   0.0000       1.833899        49.9029 
 323   0.0000       1.847592        50.2755 
 324   0.0000       1.863595        50.7110 
 325   0.0000       1.868335        50.8400 
 326   0.0000       1.879938        51.1557 
 327   0.0000       1.889960        51.4284 
 328   0.0000       1.897266        51.6272 
 329   0.0000       1.911310        52.0094 
 330   0.0000       1.924308        52.3631 
 331   0.0000       1.925731        52.4018 
 332   0.0000       1.938565        52.7510 
 333   0.0000       1.942426        52.8561 
 334   0.0000       1.954600        53.1874 
 335   0.0000       1.962302        53.3970 
 336   0.0000       1.981126        53.9092 
 337   0.0000       1.994194        54.2648 
 338   0.0000       2.010003        54.6950 
 339   0.0000       2.021842        55.0171 
 340   0.0000       2.026214        55.1361 
 341   0.0000       2.035424        55.3867 
 342   0.0000       2.041803        55.5603 
 343   0.0000       2.071683        56.3734 
 344   0.0000       2.089012        56.8449 
 345   0.0000       2.115705        57.5713 
 346   0.0000       2.124715        57.8164 
 347   0.0000       2.133716        58.0614 
 348   0.0000       2.145716        58.3879 
 349   0.0000       2.154437        58.6252 
 350   0.0000       2.162476        58.8439 
 351   0.0000       2.201841        59.9151 
 352   0.0000       2.213830        60.2414 
 353   0.0000       2.225327        60.5542 
 354   0.0000       2.241762        61.0014 
 355   0.0000       2.257071        61.4180 
 356   0.0000       2.277215        61.9662 
 357   0.0000       2.290092        62.3166 
 358   0.0000       2.292727        62.3883 
 359   0.0000       2.299959        62.5851 
 360   0.0000       2.309004        62.8312 
 361   0.0000       2.333271        63.4915 
 362   0.0000       2.346951        63.8638 
 363   0.0000       2.359647        64.2093 
 364   0.0000       2.366112        64.3852 
 365   0.0000       2.382118        64.8207 
 366   0.0000       2.393279        65.1244 
 367   0.0000       2.397235        65.2321 
 368   0.0000       2.410694        65.5983 
 369   0.0000       2.447768        66.6072 
 370   0.0000       2.453534        66.7641 
 371   0.0000       2.465056        67.0776 
 372   0.0000       2.474176        67.3258 
 373   0.0000       2.480667        67.5024 
 374   0.0000       2.487258        67.6817 
 375   0.0000       2.500603        68.0449 
 376   0.0000       2.510542        68.3153 
 377   0.0000       2.528017        68.7908 
 378   0.0000       2.542440        69.1833 
 379   0.0000       2.550752        69.4095 
 380   0.0000       2.573879        70.0388 
 381   0.0000       2.580398        70.2162 
 382   0.0000       2.584578        70.3299 
 383   0.0000       2.611518        71.0630 
 384   0.0000       2.620563        71.3091 
 385   0.0000       2.625968        71.4562 
 386   0.0000       2.638126        71.7870 
 387   0.0000       2.650244        72.1168 
 388   0.0000       2.657620        72.3175 
 389   0.0000       2.672489        72.7221 
 390   0.0000       2.693398        73.2911 
 391   0.0000       2.696177        73.3667 
 392   0.0000       2.699753        73.4640 
 393   0.0000       2.706240        73.6405 
 394   0.0000       2.735257        74.4301 
 395   0.0000       2.738116        74.5079 
 396   0.0000       2.745061        74.6969 
 397   0.0000       2.752936        74.9112 
 398   0.0000       2.757786        75.0432 
 399   0.0000       2.767021        75.2945 
 400   0.0000       2.782338        75.7113 
 401   0.0000       2.786112        75.8140 
 402   0.0000       2.809071        76.4387 
 403   0.0000       2.813695        76.5645 
 404   0.0000       2.821808        76.7853 
 405   0.0000       2.839279        77.2607 
 406   0.0000       2.842116        77.3379 
 407   0.0000       2.844989        77.4161 
 408   0.0000       2.852384        77.6173 
 409   0.0000       2.860338        77.8337 
 410   0.0000       2.872879        78.1750 
 411   0.0000       2.885526        78.5191 
 412   0.0000       2.895940        78.8025 
 413   0.0000       2.901233        78.9466 
 414   0.0000       2.908665        79.1488 
 415   0.0000       2.921116        79.4876 
 416   0.0000       2.931066        79.7583 
 417   0.0000       2.938201        79.9525 
 418   0.0000       2.948530        80.2336 
 419   0.0000       2.959815        80.5407 
 420   0.0000       2.967726        80.7559 
 421   0.0000       2.977206        81.0139 
 422   0.0000       2.986746        81.2735 
 423   0.0000       2.995235        81.5045 
 424   0.0000       3.000403        81.6451 
 425   0.0000       3.013294        81.9959 
 426   0.0000       3.017057        82.0983 
 427   0.0000       3.025048        82.3158 
 428   0.0000       3.029111        82.4263 
 429   0.0000       3.036151        82.6179 
 430   0.0000       3.052857        83.0725 
 431   0.0000       3.055941        83.1564 
 432   0.0000       3.061995        83.3211 
 433   0.0000       3.070459        83.5514 
 434   0.0000       3.080288        83.8189 
 435   0.0000       3.087487        84.0148 
 436   0.0000       3.088345        84.0381 
 437   0.0000       3.094187        84.1971 
 438   0.0000       3.105665        84.5094 
 439   0.0000       3.111860        84.6780 
 440   0.0000       3.116157        84.7950 
 441   0.0000       3.121246        84.9334 
 442   0.0000       3.127640        85.1074 
 443   0.0000       3.131973        85.2253 
 444   0.0000       3.140672        85.4620 
 445   0.0000       3.150582        85.7317 
 446   0.0000       3.157245        85.9130 
 447   0.0000       3.159776        85.9819 
 448   0.0000       3.168926        86.2309 
 449   0.0000       3.185899        86.6927 
 450   0.0000       3.192238        86.8652 
 451   0.0000       3.198913        87.0468 
 452   0.0000       3.206162        87.2441 
 453   0.0000       3.220421        87.6321 
 454   0.0000       3.230676        87.9112 
 455   0.0000       3.233762        87.9951 
 456   0.0000       3.244748        88.2941 
 457   0.0000       3.247416        88.3667 
 458   0.0000       3.253689        88.5374 
 459   0.0000       3.260564        88.7244 
 460   0.0000       3.265302        88.8534 
 461   0.0000       3.275913        89.1421 
 462   0.0000       3.279017        89.2266 
 463   0.0000       3.288806        89.4929 
 464   0.0000       3.298275        89.7506 
 465   0.0000       3.306466        89.9735 
 466   0.0000       3.308757        90.0358 
 467   0.0000       3.313932        90.1767 
 468   0.0000       3.324086        90.4530 
 469   0.0000       3.332905        90.6930 
 470   0.0000       3.339166        90.8633 
 471   0.0000       3.343545        90.9825 
 472   0.0000       3.352093        91.2151 
 473   0.0000       3.363289        91.5197 
 474   0.0000       3.365257        91.5733 
 475   0.0000       3.368909        91.6727 
 476   0.0000       3.373561        91.7992 
 477   0.0000       3.381008        92.0019 
 478   0.0000       3.385820        92.1328 
 479   0.0000       3.388362        92.2020 
 480   0.0000       3.396470        92.4226 
 481   0.0000       3.404440        92.6395 
 482   0.0000       3.407693        92.7281 
 483   0.0000       3.415290        92.9348 
 484   0.0000       3.420646        93.0805 
 485   0.0000       3.424335        93.1809 
 486   0.0000       3.425891        93.2232 
 487   0.0000       3.431505        93.3760 
 488   0.0000       3.439101        93.5827 
 489   0.0000       3.440394        93.6179 
 490   0.0000       3.447864        93.8212 
 491   0.0000       3.449333        93.8611 
 492   0.0000       3.455189        94.0205 
 493   0.0000       3.462161        94.2102 
 494   0.0000       3.465253        94.2943 
 495   0.0000       3.474718        94.5519 
 496   0.0000       3.480972        94.7221 
 497   0.0000       3.488634        94.9306 
 498   0.0000       3.491755        95.0155 
 499   0.0000       3.496960        95.1571 
 500   0.0000       3.500144        95.2437 
 501   0.0000       3.521340        95.8205 
 502   0.0000       3.527981        96.0013 
 503   0.0000       3.536524        96.2337 
 504   0.0000       3.541584        96.3714 
 505   0.0000       3.555111        96.7395 
 506   0.0000       3.559951        96.8712 
 507   0.0000       3.568112        97.0933 
 508   0.0000       3.573152        97.2304 
 509   0.0000       3.582258        97.4782 
 510   0.0000       3.586338        97.5892 
 511   0.0000       3.598278        97.9141 
 512   0.0000       3.602112        98.0185 
 513   0.0000       3.615831        98.3918 
 514   0.0000       3.619028        98.4788 
 515   0.0000       3.625281        98.6489 
 516   0.0000       3.627730        98.7156 
 517   0.0000       3.635662        98.9314 
 518   0.0000       3.645134        99.1891 
 519   0.0000       3.648821        99.2895 
 520   0.0000       3.650492        99.3349 
 521   0.0000       3.656706        99.5040 
 522   0.0000       3.659871        99.5902 
 523   0.0000       3.667695        99.8030 
 524   0.0000       3.671352        99.9026 
 525   0.0000       3.680254       100.1448 
 526   0.0000       3.685993       100.3010 
 527   0.0000       3.687791       100.3499 
 528   0.0000       3.696609       100.5899 
 529   0.0000       3.708233       100.9062 
 530   0.0000       3.714298       101.0712 
 531   0.0000       3.716507       101.1313 
 532   0.0000       3.725248       101.3691 
 533   0.0000       3.735182       101.6395 
 534   0.0000       3.736664       101.6798 
 535   0.0000       3.751782       102.0912 
 536   0.0000       3.757804       102.2551 
 537   0.0000       3.759239       102.2941 
 538   0.0000       3.767936       102.5307 
 539   0.0000       3.772686       102.6600 
 540   0.0000       3.781051       102.8876 
 541   0.0000       3.786119       103.0255 
 542   0.0000       3.787478       103.0625 
 543   0.0000       3.796496       103.3079 
 544   0.0000       3.805537       103.5539 
 545   0.0000       3.815114       103.8145 
 546   0.0000       3.824144       104.0602 
 547   0.0000       3.830131       104.2232 
 548   0.0000       3.833739       104.3213 
 549   0.0000       3.845693       104.6466 
 550   0.0000       3.854147       104.8767 
 551   0.0000       3.866530       105.2136 
 552   0.0000       3.872019       105.3630 
 553   0.0000       3.876221       105.4773 
 554   0.0000       3.889976       105.8516 
 555   0.0000       3.907764       106.3357 
 556   0.0000       3.910519       106.4106 
 557   0.0000       3.917511       106.6009 
 558   0.0000       3.919558       106.6566 
 559   0.0000       3.925616       106.8214 
 560   0.0000       3.937454       107.1436 
 561   0.0000       3.949011       107.4580 
 562   0.0000       3.955504       107.6347 
 563   0.0000       3.966253       107.9272 
 564   0.0000       3.974303       108.1463 
 565   0.0000       3.984784       108.4315 
 566   0.0000       3.991953       108.6266 
 567   0.0000       4.001770       108.8937 
 568   0.0000       4.011350       109.1544 
 569   0.0000       4.019228       109.3687 
 570   0.0000       4.023639       109.4888 
 571   0.0000       4.035683       109.8165 
 572   0.0000       4.043823       110.0380 
 573   0.0000       4.046346       110.1067 
 574   0.0000       4.062625       110.5496 
 575   0.0000       4.074265       110.8664 
 576   0.0000       4.082075       111.0789 
 577   0.0000       4.089121       111.2706 
 578   0.0000       4.108210       111.7901 
 579   0.0000       4.109578       111.8273 
 580   0.0000       4.115451       111.9871 
 581   0.0000       4.128879       112.3525 
 582   0.0000       4.130038       112.3841 
 583   0.0000       4.135500       112.5327 
 584   0.0000       4.143434       112.7486 
 585   0.0000       4.147493       112.8590 
 586   0.0000       4.153914       113.0337 
 587   0.0000       4.157193       113.1230 
 588   0.0000       4.171994       113.5257 
 589   0.0000       4.176323       113.6435 
 590   0.0000       4.182144       113.8019 
 591   0.0000       4.188243       113.9679 
 592   0.0000       4.190240       114.0222 
 593   0.0000       4.198199       114.2388 
 594   0.0000       4.204700       114.4157 
 595   0.0000       4.214221       114.6748 
 596   0.0000       4.219135       114.8085 
 597   0.0000       4.223923       114.9388 
 598   0.0000       4.230899       115.1286 
 599   0.0000       4.235782       115.2615 
 600   0.0000       4.249494       115.6346 
 601   0.0000       4.257592       115.8550 
 602   0.0000       4.267774       116.1320 
 603   0.0000       4.270891       116.2168 
 604   0.0000       4.294756       116.8663 
 605   0.0000       4.298653       116.9723 
 606   0.0000       4.300920       117.0340 
 607   0.0000       4.318389       117.5093 
 608   0.0000       4.330154       117.8295 
 609   0.0000       4.333428       117.9186 
 610   0.0000       4.337631       118.0329 
 611   0.0000       4.348919       118.3401 
 612   0.0000       4.355812       118.5277 
 613   0.0000       4.361326       118.6777 
 614   0.0000       4.364437       118.7624 
 615   0.0000       4.369160       118.8909 
 616   0.0000       4.376824       119.0994 
 617   0.0000       4.384176       119.2995 
 618   0.0000       4.393126       119.5430 
 619   0.0000       4.405025       119.8668 
 620   0.0000       4.413679       120.1023 
 621   0.0000       4.420161       120.2787 
 622   0.0000       4.424767       120.4040 
 623   0.0000       4.435538       120.6971 
 624   0.0000       4.436784       120.7310 
 625   0.0000       4.443079       120.9023 
 626   0.0000       4.453941       121.1979 
 627   0.0000       4.464484       121.4848 
 628   0.0000       4.470558       121.6501 
 629   0.0000       4.482978       121.9880 
 630   0.0000       4.501567       122.4939 
 631   0.0000       4.510442       122.7354 
 632   0.0000       4.525901       123.1560 
 633   0.0000       4.527929       123.2112 
 634   0.0000       4.537146       123.4620 
 635   0.0000       4.545101       123.6785 
 636   0.0000       4.552591       123.8823 
 637   0.0000       4.561215       124.1170 
 638   0.0000       4.565511       124.2339 
 639   0.0000       4.573761       124.4584 
 640   0.0000       4.582118       124.6858 
 641   0.0000       4.592823       124.9771 
 642   0.0000       4.598564       125.1333 
 643   0.0000       4.604839       125.3040 
 644   0.0000       4.617415       125.6462 
 645   0.0000       4.620012       125.7169 
 646   0.0000       4.631504       126.0296 
 647   0.0000       4.636605       126.1684 
 648   0.0000       4.642481       126.3283 
 649   0.0000       4.652999       126.6145 
 650   0.0000       4.653435       126.6264 
 651   0.0000       4.664243       126.9205 
 652   0.0000       4.674132       127.1896 
 653   0.0000       4.679606       127.3386 
 654   0.0000       4.691247       127.6553 
 655   0.0000       4.703223       127.9812 
 656   0.0000       4.709051       128.1398 
 657   0.0000       4.713478       128.2602 
 658   0.0000       4.730589       128.7259 
 659   0.0000       4.736648       128.8907 
 660   0.0000       4.756410       129.4285 
 661   0.0000       4.760886       129.5503 
 662   0.0000       4.766557       129.7046 
 663   0.0000       4.793641       130.4416 
 664   0.0000       4.810631       130.9039 
 665   0.0000       4.812979       130.9678 
 666   0.0000       4.832111       131.4884 
 667   0.0000       4.834041       131.5409 
 668   0.0000       4.863810       132.3510 
 669   0.0000       4.880149       132.7956 
 670   0.0000       4.909408       133.5918 
 671   0.0000       4.926724       134.0630 
 672   0.0000       4.934690       134.2797 
 673   0.0000       4.946110       134.5905 
 674   0.0000       4.966341       135.1410 
 675   0.0000       4.980953       135.5386 
 676   0.0000       5.012671       136.4017 
 677   0.0000       5.023809       136.7048 
 678   0.0000       5.027725       136.8113 
 679   0.0000       5.033986       136.9817 
 680   0.0000       5.053730       137.5190 
 681   0.0000       5.077120       138.1555 
 682   0.0000       5.091338       138.5423 
 683   0.0000       5.102905       138.8571 
 684   0.0000       5.113502       139.1455 
 685   0.0000       5.118246       139.2745 
 686   0.0000       5.130815       139.6166 
 687   0.0000       5.145301       140.0108 
 688   0.0000       5.148838       140.1070 
 689   0.0000       5.160271       140.4181 
 690   0.0000       5.169655       140.6735 
 691   0.0000       5.186965       141.1445 
 692   0.0000       5.190978       141.2537 
 693   0.0000       5.191630       141.2714 
 694   0.0000       5.201572       141.5420 
 695   0.0000       5.213154       141.8571 
 696   0.0000       5.221940       142.0962 
 697   0.0000       5.226988       142.2336 
 698   0.0000       5.238488       142.5465 
 699   0.0000       5.249570       142.8481 
 700   0.0000       5.267575       143.3380 
 701   0.0000       5.274546       143.5277 
 702   0.0000       5.310461       144.5050 
 703   0.0000       5.317325       144.6918 
 704   0.0000       5.323772       144.8672 
 705   0.0000       5.337445       145.2393 
 706   0.0000       5.346102       145.4748 
 707   0.0000       5.359510       145.8397 
 708   0.0000       5.370445       146.1372 
 709   0.0000       5.386249       146.5673 
 710   0.0000       5.400158       146.9458 
 711   0.0000       5.414546       147.3373 
 712   0.0000       5.437837       147.9711 
 713   0.0000       5.446692       148.2120 
 714   0.0000       5.468307       148.8002 
 715   0.0000       5.488813       149.3582 
 716   0.0000       5.504348       149.7809 
 717   0.0000       5.516505       150.1117 
 718   0.0000       5.520751       150.2273 
 719   0.0000       5.528250       150.4313 
 720   0.0000       5.543847       150.8557 
 721   0.0000       5.546745       150.9346 
 722   0.0000       5.553784       151.1261 
 723   0.0000       5.577567       151.7733 
 724   0.0000       5.588347       152.0667 
 725   0.0000       5.606667       152.5652 
 726   0.0000       5.612517       152.7244 
 727   0.0000       5.619746       152.9211 
 728   0.0000       5.631656       153.2451 
 729   0.0000       5.637298       153.3987 
 730   0.0000       5.647392       153.6733 
 731   0.0000       5.668377       154.2444 
 732   0.0000       5.681924       154.6130 
 733   0.0000       5.690286       154.8406 
 734   0.0000       5.706670       155.2864 
 735   0.0000       5.712775       155.4525 
 736   0.0000       5.728180       155.8717 
 737   0.0000       5.736861       156.1079 
 738   0.0000       5.746487       156.3699 
 739   0.0000       5.753426       156.5587 
 740   0.0000       5.770618       157.0265 
 741   0.0000       5.790095       157.5565 
 742   0.0000       5.800878       157.8499 
 743   0.0000       5.813451       158.1920 
 744   0.0000       5.820650       158.3879 
 745   0.0000       5.845966       159.0768 
 746   0.0000       5.861645       159.5035 
 747   0.0000       5.884191       160.1170 
 748   0.0000       5.919620       161.0810 
 749   0.0000       5.935132       161.5031 
 750   0.0000       5.961144       162.2110 
 751   0.0000       5.967685       162.3890 
 752   0.0000       5.974619       162.5776 
 753   0.0000       5.989963       162.9952 
 754   0.0000       6.009972       163.5397 
 755   0.0000       6.027368       164.0130 
 756   0.0000       6.057017       164.8198 
 757   0.0000       6.066174       165.0690 
 758   0.0000       6.081033       165.4733 
 759   0.0000       6.106497       166.1662 
 760   0.0000       6.116532       166.4393 
 761   0.0000       6.176169       168.0621 
 762   0.0000       6.205582       168.8625 
 763   0.0000       6.221294       169.2900 
 764   0.0000       6.226751       169.4385 
 765   0.0000       6.276838       170.8014 
 766   0.0000       6.297286       171.3579 
 767   0.0000       6.314331       171.8217 
 768   0.0000       6.349720       172.7847 
 769   0.0000       6.354720       172.9207 
 770   0.0000       6.371049       173.3650 
 771   0.0000       6.388105       173.8292 
 772   0.0000       6.407628       174.3604 
 773   0.0000       6.456336       175.6858 
 774   0.0000       6.459918       175.7833 
 775   0.0000       6.486003       176.4931 
 776   0.0000       6.504433       176.9946 
 777   0.0000       6.549876       178.2312 
 778   0.0000       6.557801       178.4468 
 779   0.0000       6.603448       179.6890 
 780   0.0000       6.679891       181.7691 
 781   0.0000       6.682356       181.8361 
 782   0.0000       6.726412       183.0350 
 783   0.0000       6.743942       183.5120 
 784   0.0000       6.834027       185.9633 
 785   0.0000       6.889626       187.4763 
 786   0.0000       6.909692       188.0223 
 787   0.0000       6.914800       188.1613 
 788   0.0000       6.921071       188.3319 
 789   0.0000       7.049502       191.8267 
 790   0.0000       7.054808       191.9711 
 791   0.0000       7.072996       192.4660 
 792   0.0000       7.081649       192.7015 
 793   0.0000       7.149629       194.5513 
 794   0.0000       7.224970       196.6014 
 795   0.0000       7.260575       197.5703 
 796   0.0000       7.281733       198.1460 
 797   0.0000       7.282706       198.1725 
 798   0.0000       7.342247       199.7927 
 799   0.0000       7.363302       200.3656 
 800   0.0000       7.456255       202.8950 
 801   0.0000       7.490037       203.8143 
 802   0.0000       7.582312       206.3252 
 803   0.0000       7.591434       206.5734 
 804   0.0000       7.703081       209.6115 
 805   0.0000       7.817614       212.7281 
 806   0.0000       7.848996       213.5820 
 807   0.0000       7.935582       215.9382 
 808   0.0000       7.992095       217.4760 
 809   0.0000       9.358912       254.6689 
 810   0.0000       9.507193       258.7039 
 811   0.0000      10.831128       294.7300 
 812   0.0000      11.483034       312.4692 
 813   0.0000      11.947480       325.1074 
 814   0.0000      12.567100       341.9682 
 815   0.0000      12.914613       351.4245 
 816   0.0000      13.036568       354.7431 
 817   0.0000      13.069270       355.6329 
 818   0.0000      13.172268       358.4356 
 819   0.0000      13.384174       364.2019 
 820   0.0000      13.533896       368.2760 
 821   0.0000      13.695166       372.6644 
 822   0.0000      13.914627       378.6363 
 823   0.0000      13.993483       380.7820 
 824   0.0000      14.077376       383.0649 
 825   0.0000      14.605901       397.4468 
 826   0.0000      14.895792       405.3351 
 827   0.0000      15.979000       434.8107 

                    ********************************
                    * MULLIKEN POPULATION ANALYSIS *
                    ********************************

-----------------------
MULLIKEN ATOMIC CHARGES
-----------------------
   0 C :   -0.294972
   1 C :    0.016259
   2 O :   -0.352183
   3 C :    0.471035
   4 O :   -0.438063
   5 C :   -0.222019
   6 C :    0.150360
   7 C :   -0.274016
   8 N :   -0.119980
   9 C :    0.211084
  10 S :   -0.440374
  11 N :   -0.204890
  12 C :    0.055731
  13 C :    0.064158
  14 C :   -0.185161
  15 C :   -0.135966
  16 C :   -0.277180
  17 C :    0.315465
  18 O :   -0.356548
  19 C :   -0.266536
  20 H :    0.104320
  21 H :    0.095839
  22 H :    0.110462
  23 H :    0.110581
  24 H :    0.115670
  25 H :    0.131969
  26 H :    0.130790
  27 H :    0.095186
  28 H :    0.197028
  29 H :    0.194822
  30 H :    0.150492
  31 H :    0.148934
  32 H :    0.161412
  33 H :    0.130276
  34 H :    0.240590
  35 H :    0.165425
Sum of atomic charges:    0.0000000

--------------------------------
MULLIKEN REDUCED ORBITAL CHARGES
--------------------------------
  0 C s       :     3.264924  s :     3.264924
      pz      :     0.990885  p :     2.954073
      px      :     0.949395
      py      :     1.013793
      dz2     :     0.018167  d :     0.071501
      dxz     :     0.012832
      dyz     :     0.012018
      dx2y2   :     0.009476
      dxy     :     0.019009
      f0      :     0.000772  f :     0.004473
      f+1     :     0.000543
      f-1     :     0.000459
      f+2     :     0.000524
      f-2     :     0.000754
      f+3     :     0.000909
      f-3     :     0.000513
  1 C s       :     3.167835  s :     3.167835
      pz      :     0.924931  p :     2.653507
      px      :     0.894591
      py      :     0.833985
      dz2     :     0.036774  d :     0.150897
      dxz     :     0.021137
      dyz     :     0.028217
      dx2y2   :     0.022510
      dxy     :     0.042259
      f0      :     0.001107  f :     0.011502
      f+1     :     0.001366
      f-1     :     0.002167
      f+2     :     0.001733
      f-2     :     0.001880
      f+3     :     0.001696
      f-3     :     0.001554
  2 O s       :     3.720195  s :     3.720195
      pz      :     1.696172  p :     4.595363
      px      :     1.684118
      py      :     1.215073
      dz2     :     0.004934  d :     0.034360
      dxz     :     0.003850
      dyz     :     0.007805
      dx2y2   :     0.006536
      dxy     :     0.011235
      f0      :     0.000248  f :     0.002265
      f+1     :     0.000122
      f-1     :     0.000396
      f+2     :     0.000257
      f-2     :     0.000334
[...]
 15 C s       :     2.705762  s :     2.705762
      pz      :     0.904521  p :     2.797212
      px      :     0.925432
      py      :     0.967259
      dz2     :     0.096671  d :     0.417013
      dxz     :     0.069317
      dyz     :     0.061035
      dx2y2   :     0.111949
      dxy     :     0.078041
      f0      :     0.003341  f :     0.041057
      f+1     :     0.005311
      f-1     :     0.006334
      f+2     :     0.007309
      f-2     :     0.006224
      f+3     :     0.006570
      f-3     :     0.005969
 16 C s       :     2.701771  s :     2.701771
      pz      :     0.938684  p :     2.869211
      px      :     0.955079
      py      :     0.975448
      dz2     :     0.046008  d :     0.390459
      dxz     :     0.055409
      dyz     :     0.091198
      dx2y2   :     0.093727
      dxy     :     0.104117
      f0      :     0.004316  f :     0.040291
      f+1     :     0.004438
      f-1     :     0.004379
      f+2     :     0.006398
      f-2     :     0.004967
      f+3     :     0.009164
      f-3     :     0.006628
 17 C s       :     2.701593  s :     2.701593
      pz      :     0.848691  p :     2.680686
      px      :     0.821502
      py      :     1.010493
      dz2     :     0.129817  d :     0.708068
      dxz     :     0.103209
      dyz     :     0.148060
      dx2y2   :     0.159194
      dxy     :     0.167787
      f0      :     0.009849  f :     0.099202
      f+1     :     0.015033
      f-1     :     0.010643
      f+2     :     0.016890
      f-2     :     0.014125
      f+3     :     0.017668
      f-3     :     0.014993
 18 O s       :     3.177173  s :     3.177173
      pz      :     1.426952  p :     4.347020
      px      :     1.416935
      py      :     1.503132
      dz2     :     0.008364  d :     0.075478
      dxz     :     0.017013
      dyz     :     0.018942
      dx2y2   :     0.013507
      dxy     :     0.017651
      f0      :     0.000608  f :     0.005065
      f+1     :     0.000690
      f-1     :     0.000432
      f+2     :     0.000701
      f-2     :     0.001053
      f+3     :     0.000761
      f-3     :     0.000820
 19 C s       :     2.695137  s :     2.695137
      pz      :     0.933506  p :     2.844366
      px      :     0.946015
      py      :     0.964845
      dz2     :     0.077866  d :     0.387762
      dxz     :     0.068312
      dyz     :     0.063534
      dx2y2   :     0.097544
      dxy     :     0.080507
      f0      :     0.003376  f :     0.040803
      f+1     :     0.005564
      f-1     :     0.005811
      f+2     :     0.007313
      f-2     :     0.006811
      f+3     :     0.006389
      f-3     :     0.005541
 20 H s       :     0.847611  s :     0.847611
      pz      :     0.070814  p :     0.151727
      px      :     0.039311
      py      :     0.041602
      dz2     :     0.009185  d :     0.027523
      dxz     :     0.007875
      dyz     :     0.008316
      dx2y2   :     0.000734
      dxy     :     0.001413
 21 H s       :     0.848763  s :     0.848763
      pz      :     0.045822  p :     0.151836
      px      :     0.046477
      py      :     0.059537
      dz2     :     0.005194  d :     0.027447
      dxz     :     0.003393
      dyz     :     0.005600
      dx2y2   :     0.006695
      dxy     :     0.006565
 22 H s       :     0.845074  s :     0.845074
      pz      :     0.039288  p :     0.152580
      px      :     0.053914
      py      :     0.059379
      dz2     :     0.002300  d :     0.027517
      dxz     :     0.003972
      dyz     :     0.005335
      dx2y2   :     0.008803
      dxy     :     0.007106
 23 H s       :     0.855222  s :     0.855222
      pz      :     0.036559  p :     0.144163
      px      :     0.049954
      py      :     0.057650
      dz2     :     0.002493  d :     0.026887
      dxz     :     0.003603
      dyz     :     0.005748
      dx2y2   :     0.007426
      dxy     :     0.007618
 24 H s       :     0.852952  s :     0.852952
      pz      :     0.073616  p :     0.147797
      px      :     0.039401
      py      :     0.034780
      dz2     :     0.010086  d :     0.026983
      dxz     :     0.007971
      dyz     :     0.006488
      dx2y2   :     0.000665
      dxy     :     0.001774
 25 H s       :     0.825696  s :     0.825696
      pz      :     0.039037  p :     0.151155
      px      :     0.071369
      py      :     0.040749
      dz2     :     0.002633  d :     0.027742
      dxz     :     0.008592
      dyz     :     0.000552
      dx2y2   :     0.008043
      dxy     :     0.007922
 26 H s       :     0.825317  s :     0.825317
      pz      :     0.071732  p :     0.150957
      px      :     0.040635
      py      :     0.038591
      dz2     :     0.009464  d :     0.027757
      dxz     :     0.008427
      dyz     :     0.008077
      dx2y2   :     0.001292
      dxy     :     0.000497
 27 H s       :     0.845338  s :     0.845338
      pz      :     0.039429  p :     0.150382
      px      :     0.039380
      py      :     0.071573
      dz2     :     0.002940  d :     0.027703
      dxz     :     0.000205
      dyz     :     0.008682
      dx2y2   :     0.006865
      dxy     :     0.009011
 28 H s       :     0.741951  s :     0.741951
      pz      :     0.064876  p :     0.253822
      px      :     0.068053
      py      :     0.120893
      dz2     :     0.005365  d :     0.061839
      dxz     :     0.000724
      dyz     :     0.019556
      dx2y2   :     0.016208
      dxy     :     0.019984
 29 H s       :     0.748915  s :     0.748915
      pz      :     0.105716  p :     0.254172
      px      :     0.101390
      py      :     0.047066
      dz2     :     0.018359  d :     0.061408
      dxz     :     0.013884
      dyz     :     0.009259
      dx2y2   :     0.010996
      dxy     :     0.008911
 30 H s       :     0.833741  s :     0.833741
      pz      :     0.047669  p :     0.149308
      px      :     0.052382
      py      :     0.049257
      dz2     :     0.004602  d :     0.028497
      dxz     :     0.006287
      dyz     :     0.005181
      dx2y2   :     0.005590
      dxy     :     0.006838
 31 H s       :     0.845538  s :     0.845538
      pz      :     0.054194  p :     0.157073
      px      :     0.063639
      py      :     0.039241
      dz2     :     0.005387  d :     0.027550
      dxz     :     0.006492
      dyz     :     0.003925
      dx2y2   :     0.005868
      dxy     :     0.005879
 32 H s       :     0.843584  s :     0.843584
      pz      :     0.037144  p :     0.151549
      px      :     0.038251
      py      :     0.076154
      dz2     :     0.002660  d :     0.026483
      dxz     :     0.000509
      dyz     :     0.007565
      dx2y2   :     0.007751
      dxy     :     0.007998
 33 H s       :     0.848634  s :     0.848634
      pz      :     0.058860  p :     0.159109
      px      :     0.051058
      py      :     0.049192
      dz2     :     0.006354  d :     0.027765
      dxz     :     0.005196
      dyz     :     0.005840
      dx2y2   :     0.005407
      dxy     :     0.004968
 34 H s       :     0.706510  s :     0.706510
      pz      :     0.113318  p :     0.347858
      px      :     0.090657
      py      :     0.143883
      dz2     :     0.023348  d :     0.099592
      dxz     :     0.012445
      dyz     :     0.023553
      dx2y2   :     0.020328
      dxy     :     0.019917
 35 H s       :     0.838784  s :     0.838784
      pz      :     0.039165  p :     0.156703
      px      :     0.040003
      py      :     0.077536
      dz2     :     0.002715  d :     0.028020
      dxz     :     0.000558
      dyz     :     0.008288
      dx2y2   :     0.007973
      dxy     :     0.008487


                      *****************************
                      * MAYER POPULATION ANALYSIS *
                      *****************************

  NA   - Mulliken gross atomic population
  ZA   - Total nuclear charge
  QA   - Mulliken gross atomic charge
  VA   - Mayer's total valence
  BVA  - Mayer's bonded valence
  FA   - Mayer's free valence

  ATOM       NA         ZA         QA         VA         BVA        FA
  0 C      6.2950     6.0000    -0.2950     3.8692     3.8692     0.0000
  1 C      5.9837     6.0000     0.0163     3.8564     3.8564    -0.0000
  2 O      8.3522     8.0000    -0.3522     2.0702     2.0702    -0.0000
  3 C      5.5290     6.0000     0.4710     4.2226     4.2226     0.0000
  4 O      8.4381     8.0000    -0.4381     2.0747     2.0747     0.0000
  5 C      6.2220     6.0000    -0.2220     3.6512     3.6512    -0.0000
  6 C      5.8496     6.0000     0.1504     3.8860     3.8860    -0.0000
  7 C      6.2740     6.0000    -0.2740     3.9042     3.9042    -0.0000
  8 N      7.1200     7.0000    -0.1200     3.3090     3.3090     0.0000
  9 C      5.7889     6.0000     0.2111     4.1528     4.1528     0.0000
 10 S     16.4404    16.0000    -0.4404     1.7544     1.7544     0.0000
 11 N      7.2049     7.0000    -0.2049     3.2538     3.2538     0.0000
 12 C      5.9443     6.0000     0.0557     3.9427     3.9427     0.0000
 13 C      5.9358     6.0000     0.0642     3.7104     3.7104    -0.0000
 14 C      6.1852     6.0000    -0.1852     3.8516     3.8516    -0.0000
 15 C      6.1360     6.0000    -0.1360     3.7985     3.7985     0.0000
 16 C      6.2772     6.0000    -0.2772     3.7937     3.7937     0.0000
 17 C      5.6845     6.0000     0.3155     3.8745     3.8745     0.0000
 18 O      8.3565     8.0000    -0.3565     2.1192     2.1192    -0.0000
 19 C      6.2665     6.0000    -0.2665     3.8625     3.8625    -0.0000
 20 H      0.8957     1.0000     0.1043     0.9788     0.9788    -0.0000
 21 H      0.9042     1.0000     0.0958     0.9842     0.9842    -0.0000
 22 H      0.8895     1.0000     0.1105     0.9893     0.9893    -0.0000
 23 H      0.8894     1.0000     0.1106     0.9765     0.9765    -0.0000
 24 H      0.8843     1.0000     0.1157     0.9869     0.9869    -0.0000
 25 H      0.8680     1.0000     0.1320     0.9809     0.9809     0.0000
 26 H      0.8692     1.0000     0.1308     0.9811     0.9811     0.0000
 27 H      0.9048     1.0000     0.0952     0.9859     0.9859     0.0000
 28 H      0.8030     1.0000     0.1970     1.0231     1.0231     0.0000
 29 H      0.8052     1.0000     0.1948     1.0189     1.0189     0.0000
 30 H      0.8495     1.0000     0.1505     0.9940     0.9940     0.0000
 31 H      0.8511     1.0000     0.1489     0.9865     0.9865     0.0000
 32 H      0.8386     1.0000     0.1614     0.9767     0.9767     0.0000
 33 H      0.8697     1.0000     0.1303     0.9918     0.9918     0.0000
 34 H      0.7594     1.0000     0.2406     1.0107     1.0107    -0.0000
 35 H      0.8346     1.0000     0.1654     0.9872     0.9872    -0.0000

  Mayer bond orders larger than 0.100000
B(  0-C ,  1-C ) :   0.9622 B(  0-C , 20-H ) :   0.9720 B(  0-C , 21-H ) :   0.9770 
B(  0-C , 22-H ) :   0.9765 B(  1-C ,  2-O ) :   0.8962 B(  1-C , 23-H ) :   0.9849 
B(  1-C , 24-H ) :   0.9789 B(  2-O ,  3-C ) :   1.1663 B(  3-C ,  4-O ) :   1.9568 
B(  3-C ,  5-C ) :   1.0639 B(  5-C ,  6-C ) :   1.6551 B(  5-C , 12-C ) :   0.9723 
B(  6-C ,  7-C ) :   0.9666 B(  6-C ,  8-N ) :   1.1655 B(  7-C , 25-H ) :   0.9605 
B(  7-C , 26-H ) :   0.9604 B(  7-C , 27-H ) :   0.9904 B(  8-N ,  9-C ) :   1.1833 
B(  8-N , 28-H ) :   0.9478 B(  9-C , 10-S ) :   1.6070 B(  9-C , 11-N ) :   1.3052 
B( 11-N , 12-C ) :   0.9886 B( 11-N , 29-H ) :   0.9513 B( 12-C , 13-C ) :   0.9356 
B( 12-C , 30-H ) :   1.0023 B( 13-C , 14-C ) :   1.3543 B( 13-C , 19-C ) :   1.3827 
B( 14-C , 15-C ) :   1.3923 B( 14-C , 31-H ) :   0.9719 B( 15-C , 16-C ) :   1.3600 
B( 15-C , 32-H ) :   0.9708 B( 16-C , 17-C ) :   1.3319 B( 16-C , 33-H ) :   0.9851 
B( 17-C , 18-O ) :   1.1102 B( 17-C , 19-C ) :   1.3714 B( 18-O , 34-H ) :   0.9799 
B( 19-C , 35-H ) :   0.9580 

-------
TIMINGS
-------

Total SCF time: 0 days 1 hours 37 min 8 sec 

Total time                  ....    5828.528 sec
Sum of individual times     ....    5821.033 sec  ( 99.9%)

Fock matrix formation       ....    5803.556 sec  ( 99.6%)
Diagonalization             ....       1.320 sec  (  0.0%)
Density matrix formation    ....       0.184 sec  (  0.0%)
Population analysis         ....       0.294 sec  (  0.0%)
Initial guess               ....       6.173 sec  (  0.1%)
Orbital Transformation      ....       0.000 sec  (  0.0%)
Orbital Orthonormalization  ....       0.000 sec  (  0.0%)
DIIS solution               ....       5.164 sec  (  0.1%)
SOSCF solution              ....       2.802 sec  (  0.0%)

Maximum memory used throughout the entire SCF-calculation: 738.4 MB

------------------------------------------------------------------------------
                                ORCA  MP2 
------------------------------------------------------------------------------

Freezing NCore=48 chemical core electrons

-------------
RI-MP2 ENERGY
-------------
Dimension of the basis                    ...  828
Memory devoted to MP2                     ...  256 MB   
Data format for buffers                   ... DOUBLE
Compression type for matrix containers    ... UNCOMPRESSED
Overall scaling of the MP2 energy         ...   1.000e+00
Calculating two index integrals           ... done (    0.037 sec)
Cholesky decomposition of V**-1           ... done (    0.665 sec)

-----------------
RI-TRANSFORMATION (AUX index driven)
-----------------

Dimension of the orbital-basis         ... 828
Dimension of the aux-basis             ... 2141
Transformation of internal/external MOs...   24-  76 to   77- 827
Number Format for Storage              ... Double (8 Byte)
Integral mode                          ... Direct

First Phase: integral generation and transformation of MO indices
  Aux angular momentum 0               ... done (    5.344 sec)
  Aux angular momentum 1               ... done (    8.158 sec)
  Aux angular momentum 2               ... done (   10.049 sec)
  Aux angular momentum 3               ... done (    7.966 sec)
  Aux angular momentum 4               ... done (    2.681 sec)
Closing buffer VIA ( 0.63 GB; CompressionRatio= 1.00)
  Phase 1 completed in    34.460 sec
Second Phase: sorting and transformation of aux index

IA-Transformation
Memory available                       ... 157 MB 
Max. # MO pairs treated in a batch     ... 11    
# of internal orbitals                 ... 53
# batches for internal orbitals        ... 5
Closing buffer IAV ( 0.63 GB; CompressionRatio= 1.00)
(ia|v) transformation done in    36.745 sec

  Phase 2 completed in    36.753 sec
RI-Integral transformation completed in    71.268 sec
Opening buffers                              ... done

Starting loop over batches of integrals:

Operator 0  - window                       ... ( 24- 76)x( 77-827)
Operator 0  - Memory available             ...   256 MB
Operator 0  - Memory needed per MO         ...  12.3 MB
Operator 0  - Number of orbitals per batch ... 13
Operator 0  - Number of batches            ... 5

OPERATOR  0   PASS   0:  MOs    24 ...   36
  Reading integrals       ... ok
  Internal MO  26
  Internal MO  29
  Internal MO  32
  Internal MO  35
OPERATOR  0   PASS   1:  MOs    37 ...   49
  Reading integrals       ... ok
  Internal MO  38
  Internal MO  41
  Internal MO  44
  Internal MO  47
OPERATOR  0   PASS   2:  MOs    50 ...   62
  Reading integrals       ... ok
  Internal MO  50
  Internal MO  53
  Internal MO  56
  Internal MO  59
  Internal MO  62
OPERATOR  0   PASS   3:  MOs    63 ...   75
  Reading integrals       ... ok
  Internal MO  65
  Internal MO  68
  Internal MO  71
  Internal MO  74
OPERATOR  0   PASS   4:  MOs    76 ...   76
  Reading integrals       ... ok
Time spent in pair loops =   142.139 sec
Deleting buffer (Ka|jb)[aa] ...done

-----------------------------------------------
 RI-MP2 CORRELATION ENERGY:     -3.531618562 Eh
-----------------------------------------------


-------
TIMINGS
-------

Total time                :  214.273 sec
Integral trafo            :   71.296 sec ( 33.3%)
I/O of integrals          :    4.834 sec (  2.3%)
K(i,j) Operators          :   83.866 sec ( 39.1%)
T(i,j) pair energies      :    3.529 sec (  1.6%)
V-calculation             :    0.037 sec (  0.0%)
V**(-1/2)                 :    0.665 sec (  0.3%)
Gamma(ia|P)               :    0.000 sec (  0.0%)
Gamma-Trafo               :    0.000 sec (  0.0%)
D(virtual)                :    0.000 sec (  0.0%)
D(internal)               :    0.000 sec (  0.0%)
W(virtual)                :    0.000 sec (  0.0%)
W(internal)               :    0.000 sec (  0.0%)
L(virtual)                :    0.000 sec (  0.0%)
L(internal)               :    0.000 sec (  0.0%)
G(D)                      :    0.000 sec (  0.0%)
G(Z)                      :    0.000 sec (  0.0%)
Z-Vector Solution         :    0.000 sec (  0.0%)
3-Index Derivative        :    0.000 sec (  0.0%)
2-Index Derivative        :    0.000 sec (  0.0%)
Separable Gradient        :    0.000 sec (  0.0%)


---------------------------------------
MP2 TOTAL ENERGY:    -1274.351969511 Eh
---------------------------------------

Maximum memory used throughout the entire MP2-calculation: 304.5 MB

-------------------------   --------------------
FINAL SINGLE POINT ENERGY     -1274.351969511006
-------------------------   --------------------


                            ***************************************
                            *     ORCA property calculations      *
                            ***************************************


  WARNING: The energy has been calculated at the MP2 level but the densities
           used in the property calculations are still SCF densities
           MP2 response densities have not been calculated 
           use %mp2 Density relaxed end
           or  %mp2 Density unrelaxed end

                                    ---------------------
                                    Active property flags
                                    ---------------------
   (+) Dipole Moment


------------------------------------------------------------------------------
                       ORCA ELECTRIC PROPERTIES CALCULATION
------------------------------------------------------------------------------

Dipole Moment Calculation                       ... on
Quadrupole Moment Calculation                   ... off
Polarizability Calculation                      ... off
GBWName                                         ... CONFS/Conf279.orca.gbw
Electron density file                           ... CONFS/Conf279.orca.scfp
The origin for moment calculation is the CENTER OF MASS  = (32.807303, 31.580158 35.318631)

-------------
DIPOLE MOMENT
-------------
                                X             Y             Z
Electronic contribution:      9.02782      11.07136       7.77758
Nuclear contribution   :     -9.87020     -12.85305      -8.26841
                        -----------------------------------------
Total Dipole Moment    :     -0.84239      -1.78169      -0.49082
                        -----------------------------------------
Magnitude (a.u.)       :      2.03100
Magnitude (Debye)      :      5.16239



--------------------
Rotational spectrum 
--------------------
 
Rotational constants in cm-1:     0.012074     0.008665     0.006212 
Rotational constants in MHz :   361.966878   259.778743   186.218993 

 Dipole components along the rotational axes: 
x,y,z [a.u.] :     2.020020    -0.172375    -0.121509 
x,y,z [Debye]:     5.134482    -0.438142    -0.308852 

 

Timings for individual modules:

Sum of individual times         ...     6048.227 sec (= 100.804 min)
GTO integral calculation        ...        4.278 sec (=   0.071 min)   0.1 %
SCF iterations                  ...     5828.611 sec (=  97.144 min)  96.4 %
MP2 module                      ...      215.338 sec (=   3.589 min)   3.6 %
                             ****ORCA TERMINATED NORMALLY****
TOTAL RUN TIME: 0 days 1 hours 40 minutes 49 seconds 940 msec
