
                                        *****************
                                        * O   R   C   A *
                                        *****************

                                            #,                                       
                                            ###                                      
                                            ####                                     
                                            #####                                    
                                            ######                                   
                                           ########,                                 
                                     ,,################,,,,,                         
                               ,,#################################,,                 
                          ,,##########################################,,             
                       ,#########################################, ''#####,          
                    ,#############################################,,   '####,        
                  ,##################################################,,,,####,       
                ,###########''''           ''''###############################       
              ,#####''   ,,,,##########,,,,          '''####'''          '####       
            ,##' ,,,,###########################,,,                        '##       
           ' ,,###''''                  '''############,,,                           
         ,,##''                                '''############,,,,        ,,,,,,###''
      ,#''                                            '''#######################'''  
     '                                                          ''''####''''         
             ,#######,   #######,   ,#######,      ##                                
            ,#'     '#,  ##    ##  ,#'     '#,    #''#        ######   ,####,        
            ##       ##  ##   ,#'  ##            #'  '#       #        #'  '#        
            ##       ##  #######   ##           ,######,      #####,   #    #        
            '#,     ,#'  ##    ##  '#,     ,#' ,#      #,         ##   #,  ,#        
             '#######'   ##     ##  '#######'  #'      '#     #####' # '####'        



                  #######################################################
                  #                        -***-                        #
                  #          Department of theory and spectroscopy      #
                  #    Directorship and core code : Frank Neese         #
                  #        Max Planck Institute fuer Kohlenforschung    #
                  #                Kaiser Wilhelm Platz 1               #
                  #                 D-45470 Muelheim/Ruhr               #
                  #                      Germany                        #
                  #                                                     #
                  #                  All rights reserved                #
                  #                        -***-                        #
                  #######################################################


                         Program Version 5.0.0 -  RELEASE  -
                                (SVN: $Rev: 19529$)
                ($Date: 2021-06-28 11:36:33 +0200 (Mo, 28 Jun 2021) $)


 With contributions from (in alphabetic order):
   Daniel Aravena         : Magnetic Suceptibility
   Michael Atanasov       : Ab Initio Ligand Field Theory (pilot matlab implementation)
   Alexander A. Auer      : GIAO ZORA, VPT2 properties, NMR spectrum
   Ute Becker             : Parallelization
   Giovanni Bistoni       : ED, misc. LED, open-shell LED, HFLD
   Martin Brehm           : Molecular dynamics
   Dmytro Bykov           : SCF Hessian
   Vijay G. Chilkuri      : MRCI spin determinant printing, contributions to CSF-ICE
   Dipayan Datta          : RHF DLPNO-CCSD density
   Achintya Kumar Dutta   : EOM-CC, STEOM-CC
   Dmitry Ganyushin       : Spin-Orbit,Spin-Spin,Magnetic field MRCI
   Miquel Garcia          : C-PCM Hessian, Gaussian charge scheme
   Yang Guo               : DLPNO-NEVPT2, F12-NEVPT2, CIM, IAO-localization
   Andreas Hansen         : Spin unrestricted coupled pair/coupled cluster methods
   Benjamin Helmich-Paris : MC-RPA, TRAH-SCF, COSX integrals
   Lee Huntington         : MR-EOM, pCC
   Robert Izsak           : Overlap fitted RIJCOSX, COSX-SCS-MP3, EOM
   Marcus Kettner         : VPT2
   Christian Kollmar      : KDIIS, OOCD, Brueckner-CCSD(T), CCSD density, CASPT2, CASPT2-K
   Simone Kossmann        : Meta GGA functionals, TD-DFT gradient, OOMP2, MP2 Hessian
   Martin Krupicka        : Initial AUTO-CI
   Lucas Lang             : DCDCAS
   Marvin Lechner         : AUTO-CI (C++ implementation), FIC-MRCC
   Dagmar Lenk            : GEPOL surface, SMD
   Dimitrios Liakos       : Extrapolation schemes; Compound Job, initial MDCI parallelization
   Dimitrios Manganas     : Further ROCIS development; embedding schemes
   Dimitrios Pantazis     : SARC Basis sets
   Anastasios Papadopoulos: AUTO-CI, single reference methods and gradients
   Taras Petrenko         : DFT Hessian,TD-DFT gradient, ASA, ECA, R-Raman, ABS, FL, XAS/XES, NRVS
   Peter Pinski           : DLPNO-MP2, DLPNO-MP2 Gradient
   Christoph Reimann      : Effective Core Potentials
   Marius Retegan         : Local ZFS, SOC
   Christoph Riplinger    : Optimizer, TS searches, QM/MM, DLPNO-CCSD(T), (RO)-DLPNO pert. Triples
   Tobias Risthaus        : Range-separated hybrids, TD-DFT gradient, RPA, STAB
   Michael Roemelt        : Original ROCIS implementation
   Masaaki Saitow         : Open-shell DLPNO-CCSD energy and density
   Barbara Sandhoefer     : DKH picture change effects
   Avijit Sen             : IP-ROCIS
   Kantharuban Sivalingam : CASSCF convergence, NEVPT2, FIC-MRCI
   Bernardo de Souza      : ESD, SOC TD-DFT
   Georgi Stoychev        : AutoAux, RI-MP2 NMR
   Willem Van den Heuvel  : Paramagnetic NMR
   Boris Wezisla          : Elementary symmetry handling
   Frank Wennmohs         : Technical directorship


 We gratefully acknowledge several colleagues who have allowed us to
 interface, adapt or use parts of their codes:
   Stefan Grimme, W. Hujo, H. Kruse, P. Pracht,  : VdW corrections, initial TS optimization,
                  C. Bannwarth, S. Ehlert          DFT functionals, gCP, sTDA/sTD-DF
   Ed Valeev, F. Pavosevic, A. Kumar             : LibInt (2-el integral package), F12 methods
   Garnet Chan, S. Sharma, J. Yang, R. Olivares  : DMRG
   Ulf Ekstrom                                   : XCFun DFT Library
   Mihaly Kallay                                 : mrcc  (arbitrary order and MRCC methods)
   Jiri Pittner, Ondrej Demel                    : Mk-CCSD
   Frank Weinhold                                : gennbo (NPA and NBO analysis)
   Christopher J. Cramer and Donald G. Truhlar   : smd solvation model
   Lars Goerigk                                  : TD-DFT with DH, B97 family of functionals
   V. Asgeirsson, H. Jonsson                     : NEB implementation
   FAccTs GmbH                                   : IRC, NEB, NEB-TS, DLPNO-Multilevel, CI-OPT
                                                   MM, QMMM, 2- and 3-layer-ONIOM, Crystal-QMMM,
                                                   LR-CPCM, SF, NACMEs, symmetry and pop. for TD-DFT,
                                                   nearIR, NL-DFT gradient (VV10), updates on ESD,
                                                   ML-optimized integration grids
   S Lehtola, MJT Oliveira, MAL Marques          : LibXC Library
   Liviu Ungur et al                             : ANISO software


 Your calculation uses the libint2 library for the computation of 2-el integrals
 For citations please refer to: http://libint.valeyev.net

 Your ORCA version has been built with support for libXC version: 5.1.0
 For citations please refer to: https://tddft.org/programs/libxc/

 This ORCA versions uses:
   CBLAS   interface :  Fast vector & matrix operations
   LAPACKE interface :  Fast linear algebra routines
   SCALAPACK package :  Parallel linear algebra routines
   Shared memory     :  Shared parallel matrices
   BLAS/LAPACK       :  OpenBLAS 0.3.15  USE64BITINT DYNAMIC_ARCH NO_AFFINITY SkylakeX SINGLE_THREADED
        Core in use  :  SkylakeX
   Copyright (c) 2011-2014, The OpenBLAS Project


================================================================================

----- Orbital basis set information -----
Your calculation utilizes the basis: cc-pVTZ 
       H, B-Ne : Obtained from the ccRepo (grant-hill.group.shef.ac.uk/ccrepo) Feb. 2017
                 T. H. Dunning, Jr., J. Chem. Phys. 90, 1007 (1989)
            He : Obtained from the ccRepo (grant-hill.group.shef.ac.uk/ccrepo) Feb. 2017
                 D. E. Woon, T. H. Dunning, Jr., J. Chem. Phys. 100, 2975 (1994)
  Li-Be, Na-Mg : Obtained from the ccRepo (grant-hill.group.shef.ac.uk/ccrepo) Feb. 2017
                 B. P. Prascher, D. E. Woon, K. A. Peterson, T. H. Dunning, Jr., A. K. Wilson, Theor. Chem. Acc. 128, 69 (2011)
         Al-Ar : Obtained from the ccRepo (grant-hill.group.shef.ac.uk/ccrepo) Feb. 2017
                 D. E. Woon, T. H. Dunning, Jr., J. Chem. Phys. 98, 1358 (1993)
            Ca : Obtained from the Peterson Research Group Website (tyr0.chem.wsu.edu/~kipeters) Feb. 2017
                 J. Koput, K. A. Peterson, J. Phys. Chem. 106, 9595 (2002)
         Sc-Zn : Obtained from the ccRepo (grant-hill.group.shef.ac.uk/ccrepo) Feb. 2017
                 N. B. Balabanov, K. A. Peterson, J. Chem. Phys. 123, 064107 (2005)
                 N. B. Balabanov, K. A. Peterson, J. Chem. Phys. 125, 074110 (2006)
         Ga-Kr : Obtained from the ccRepo (grant-hill.group.shef.ac.uk/ccrepo) Feb. 2017
                 A. K. Wilson, D. E. Woon, K. A. Peterson, T. H. Dunning, Jr., J. Chem. Phys. 110, 7667 (1999)
             Y : Obtained from the ccRepo (grant-hill.group.shef.ac.uk/ccrepo) Feb. 2017
                 K. A. Peterson, D. Figgen, M. Dolg, H. Stoll, J. Chem. Phys. 126, 124101 (2007)
        Ag, Au : Obtained from the Peterson Research Group Website (tyr0.chem.wsu.edu/~kipeters) Feb. 2017
                 K. A. Peterson, C. Puzzarini, Theor. Chem. Acc. 114, 283 (2005)

----- AuxC basis set information -----
Your calculation utilizes the auxiliary basis: cc-pVTZ/C 
  Obtained from the EMSL Basis Set Exchange (bse.pnl.gov) Feb. 2017
  H-He, B-F, Al-Ar, Ga-Kr : F. Weigend, A. Kohn, C. Hattig, J. Chem. Phys. 116, 3175 (2002)
             Li-Be, Na-Mg : C. Haettig, Phys. Chem. Chem. Phys. 7, 59 (2005)
                       Ne : C. Haettig, Phys. Chem. Chem. Phys. 7, 59 (2005)
                            F. Weigend, A. Kohn, C. Hattig, J. Chem. Phys. 116, 3175 (2002)
                    Sc-Zn : J. G. Hill, J. A. Platts, J. Chem. Phys. 128, 044104 (2008)

================================================================================
                                        WARNINGS
                       Please study these warnings very carefully!
================================================================================


WARNING: No MP2 level density has been requested!
         To caclulate MP2 level properties use
         %mp2 Density relaxed end
         or
         %mp2 Density unrelaxed end

WARNING: Post HF methods need fully converged wavefunctions
  ===> : Setting SCFConvForced true
         You can overwrite this default with %scf ConvForced false 


INFO   : the flag for use of the SHARK integral package has been found!

================================================================================
                                       INPUT FILE
================================================================================
NAME = CONFS/Conf439.orca
|  1> ! ri-mp2 cc-pvtz cc-pvtz/c TightSCF NoKeepInts
|  2> 
|  3> %scf
|  4>   MaxCore 4096
|  5> end
|  6> *xyz  0  1
|  7>     C       15.4778823   13.7236018   16.1342078
|  8>     C       15.2803624   15.1610844   15.6056843
|  9>     O       16.3923998   16.0707692   15.8174042
| 10>     C       17.4710659   15.8564714   16.6335143
| 11>     O       18.0391099   14.7824474   16.7359332
| 12>     C       17.8049464   17.0163860   17.5288954
| 13>     C       17.3959645   18.2988090   17.3388420
| 14>     C       16.5586673   18.8566681   16.2058736
| 15>     N       17.8145809   19.2991119   18.2227871
| 16>     C       18.7393440   19.1303783   19.2190083
| 17>     S       19.2668735   20.3972792   20.1421990
| 18>     N       19.2037135   17.8544196   19.4114510
| 19>     C       18.6738145   16.6536566   18.7388708
| 20>     C       17.8961192   15.7860054   19.7254425
| 21>     C       18.2195442   14.4261054   19.8870807
| 22>     C       17.5010043   13.6202902   20.7860354
| 23>     C       16.4484594   14.1781116   21.5313678
| 24>     C       16.1202862   15.5310858   21.3707544
| 25>     O       15.0996615   16.0709955   22.0835918
| 26>     C       16.8367125   16.3303760   20.4744428
| 27>     H       16.3136168   13.2279961   15.6241661
| 28>     H       14.5765804   13.1259257   15.9531221
| 29>     H       15.6695312   13.7197527   17.2150481
| 30>     H       15.0574729   15.1183990   14.5317863
| 31>     H       14.3950876   15.5812073   16.1002173
| 32>     H       15.5208360   18.5102744   16.2838456
| 33>     H       16.9526372   18.5327389   15.2343488
| 34>     H       16.5404379   19.9532201   16.1932236
| 35>     H       17.4862871   20.2433037   18.0977730
| 36>     H       19.8621244   17.7503670   20.1727548
| 37>     H       19.5330917   16.0732567   18.3725579
| 38>     H       19.0212928   13.9878261   19.2974839
| 39>     H       17.7578691   12.5683161   20.8966544
| 40>     H       15.8898320   13.5589401   22.2252656
| 41>     H       14.7622699   15.3808755   22.6741384
| 42>     H       16.5675207   17.3755479   20.3682276
| 43> *
| 44> 
| 45>                          ****END OF INPUT****
================================================================================

                       ****************************
                       * Single Point Calculation *
                       ****************************

---------------------------------
CARTESIAN COORDINATES (ANGSTROEM)
---------------------------------
  C     15.477882   13.723602   16.134208
  C     15.280362   15.161084   15.605684
  O     16.392400   16.070769   15.817404
  C     17.471066   15.856471   16.633514
  O     18.039110   14.782447   16.735933
  C     17.804946   17.016386   17.528895
  C     17.395965   18.298809   17.338842
  C     16.558667   18.856668   16.205874
  N     17.814581   19.299112   18.222787
  C     18.739344   19.130378   19.219008
  S     19.266873   20.397279   20.142199
  N     19.203713   17.854420   19.411451
  C     18.673814   16.653657   18.738871
  C     17.896119   15.786005   19.725442
  C     18.219544   14.426105   19.887081
  C     17.501004   13.620290   20.786035
  C     16.448459   14.178112   21.531368
  C     16.120286   15.531086   21.370754
  O     15.099661   16.070995   22.083592
  C     16.836713   16.330376   20.474443
  H     16.313617   13.227996   15.624166
  H     14.576580   13.125926   15.953122
  H     15.669531   13.719753   17.215048
  H     15.057473   15.118399   14.531786
  H     14.395088   15.581207   16.100217
  H     15.520836   18.510274   16.283846
  H     16.952637   18.532739   15.234349
  H     16.540438   19.953220   16.193224
  H     17.486287   20.243304   18.097773
  H     19.862124   17.750367   20.172755
  H     19.533092   16.073257   18.372558
  H     19.021293   13.987826   19.297484
  H     17.757869   12.568316   20.896654
  H     15.889832   13.558940   22.225266
  H     14.762270   15.380876   22.674138
  H     16.567521   17.375548   20.368228

----------------------------
CARTESIAN COORDINATES (A.U.)
----------------------------
  NO LB      ZA    FRAG     MASS         X           Y           Z
   0 C     6.0000    0    12.011   29.248959   25.933849   30.489234
   1 C     6.0000    0    12.011   28.875700   28.650297   29.490469
   2 O     8.0000    0    15.999   30.977146   30.369353   29.890562
   3 C     6.0000    0    12.011   33.015530   29.964388   31.432787
   4 O     8.0000    0    15.999   34.088977   27.934777   31.626330
   5 C     6.0000    0    12.011   33.646473   32.156309   33.124812
   6 C     6.0000    0    12.011   32.873609   34.579738   32.765663
   7 C     6.0000    0    12.011   31.291346   35.633939   30.624663
   8 N     7.0000    0    14.007   33.664679   36.470036   34.436077
   9 C     6.0000    0    12.011   35.412228   36.151176   36.318662
  10 S    16.0000    0    32.060   36.409114   38.545272   38.063240
  11 N     7.0000    0    14.007   36.289759   33.739963   36.682326
  12 C     6.0000    0    12.011   35.288395   31.470850   35.411334
  13 C     6.0000    0    12.011   33.818764   29.831227   37.275684
  14 C     6.0000    0    12.011   34.429949   27.261388   37.581136
  15 C     6.0000    0    12.011   33.072105   25.738618   39.279914
  16 C     6.0000    0    12.011   31.083084   26.792748   40.688388
  17 C     6.0000    0    12.011   30.462926   29.349499   40.384873
  18 O     8.0000    0    15.999   28.534225   30.369780   41.731941
  19 C     6.0000    0    12.011   31.816776   30.859938   38.691090
  20 H     1.0000    0     1.008   30.828268   24.997290   29.525395
  21 H     1.0000    0     1.008   27.545745   24.804405   30.147032
  22 H     1.0000    0     1.008   29.611123   25.926575   32.531726
  23 H     1.0000    0     1.008   28.454500   28.569634   27.461096
  24 H     1.0000    0     1.008   27.202773   29.444215   30.425001
  25 H     1.0000    0     1.008   29.330129   34.979349   30.772009
  26 H     1.0000    0     1.008   32.035842   35.021801   28.788747
  27 H     1.0000    0     1.008   31.256898   37.706121   30.600758
  28 H     1.0000    0     1.008   33.044294   38.254300   34.199835
  29 H     1.0000    0     1.008   37.533976   33.543332   38.120982
  30 H     1.0000    0     1.008   36.912194   30.374053   34.719103
  31 H     1.0000    0     1.008   35.945034   26.433161   36.466960
  32 H     1.0000    0     1.008   33.557509   23.750675   39.488954
  33 H     1.0000    0     1.008   30.027431   25.622683   41.999665
  34 H     1.0000    0     1.008   27.896647   29.065642   42.847912
  35 H     1.0000    0     1.008   31.308077   32.835027   38.490372

--------------------------------
INTERNAL COORDINATES (ANGSTROEM)
--------------------------------
 C      0   0   0     0.000000000000     0.00000000     0.00000000
 C      1   0   0     1.544249793994     0.00000000     0.00000000
 O      2   1   0     1.452232395454   115.80153753     0.00000000
 C      3   2   1     1.369481579904   126.29861546   347.36811807
 O      4   3   2     1.219299458537   123.69967578    40.31757786
 C      4   3   2     1.502859069178   114.15819006   227.35572423
 C      6   4   3     1.359409886792   125.30741852   341.09692920
 C      7   6   4     1.515219710794   128.17787189   358.68864184
 N      7   6   4     1.399001258724   119.74637688   182.20680263
 C      9   7   6     1.369713290517   124.99402894     7.26056905
 S     10   9   7     1.653966847418   121.79927808   174.99671992
 N     10   9   7     1.371402139935   116.44187030   354.92561100
 C     12  10   9     1.474784342812   124.88079972   352.73711103
 C     13  12  10     1.526745657844   110.55055715   251.30593851
 C     14  13  12     1.407145567567   120.42229918   234.04098637
 C     15  14  13     1.404904721714   120.68128345   180.47808753
 C     16  15  14     1.405181791550   119.65679353     0.00000000
 C     17  16  15     1.401439795112   119.85852054     0.18364493
 O     18  17  16     1.356950412227   120.00320685   179.63780108
 C     18  17  16     1.398394061573   120.35118309   359.86257007
 H      1   2   3     1.097369445584   111.02299601   297.54698062
 H      1   2   3     1.096518976671   110.22605938   178.36286306
 H      1   2   3     1.097706641387   111.25929209    58.94220924
 H      2   1   3     1.097614999436   108.94318711   123.00064036
 H      2   1   3     1.097623619784   107.77342328   238.73004642
 H      8   7   6     1.096887430616   110.69669671    70.81565663
 H      8   7   6     1.097270634681   110.78994208   310.99762101
 H      8   7   6     1.096776468670   112.69985817   191.25447860
 H      9   7   6     1.007424190450   119.61811577   181.98473418
 H     12  10   9     1.011887015778   114.93400908   181.95779411
 H     13  12  10     1.099730190122   107.50975064   133.32726991
 H     15  14  13     1.087434572276   119.78106798   359.32072424
 H     16  15  14     1.088515317169   119.91093789   179.62289989
 H     17  16  15     1.084865003255   119.89422885   179.88512921
 H     19  18  17     0.968939622950   107.37861459     3.07201256
 H     20  18  17     1.084495363959   119.10815736   180.17859395

---------------------------
INTERNAL COORDINATES (A.U.)
---------------------------
 C      0   0   0     0.000000000000     0.00000000     0.00000000
 C      1   0   0     2.918209193013     0.00000000     0.00000000
 O      2   1   0     2.744321510216   115.80153753     0.00000000
 C      3   2   1     2.587945131468   126.29861546   347.36811807
 O      4   3   2     2.304142051874   123.69967578    40.31757786
 C      4   3   2     2.839992058626   114.15819006   227.35572423
 C      6   4   3     2.568912389782   125.30741852   341.09692920
 C      7   6   4     2.863350286120   128.17787189   358.68864184
 N      7   6   4     2.643729240000   119.74637688   182.20680263
 C      9   7   6     2.588383001070   124.99402894     7.26056905
 S     10   9   7     3.125544376205   121.79927808   174.99671992
 N     10   9   7     2.591574463951   116.44187030   354.92561100
 C     12  10   9     2.786938514509   124.88079972   352.73711103
 C     13  12  10     2.885131169478   110.55055715   251.30593851
 C     14  13  12     2.659119753263   120.42229918   234.04098637
 C     15  14  13     2.654885168293   120.68128345   180.47808753
 C     16  15  14     2.655408754402   119.65679353     0.00000000
 C     17  16  15     2.648337405940   119.85852054     0.18364493
 O     18  17  16     2.564264656421   120.00320685   179.63780108
 C     18  17  16     2.642581803675   120.35118309   359.86257007
 H      1   2   3     2.073727719887   111.02299601   297.54698062
 H      1   2   3     2.072120566556   110.22605938   178.36286306
 H      1   2   3     2.074364927609   111.25929209    58.94220924
 H      2   1   3     2.074191749419   108.94318711   123.00064036
 H      2   1   3     2.074208039516   107.77342328   238.73004642
 H      8   7   6     2.072816843605   110.69669671    70.81565663
 H      8   7   6     2.073540994341   110.78994208   310.99762101
 H      8   7   6     2.072607155916   112.69985817   191.25447860
 H      9   7   6     1.903755820638   119.61811577   181.98473418
 H     12  10   9     1.912189338291   114.93400908   181.95779411
 H     13  12  10     2.078188880536   107.50975064   133.32726991
 H     15  14  13     2.054953530159   119.78106798   359.32072424
 H     16  15  14     2.056995842027   119.91093789   179.62289989
 H     17  16  15     2.050097748428   119.89422885   179.88512921
 H     19  18  17     1.831030527680   107.37861459     3.07201256
 H     20  18  17     2.049399231389   119.10815736   180.17859395

---------------------
BASIS SET INFORMATION
---------------------
There are 5 groups of distinct atoms

 Group   1 Type C   : 18s5p2d1f contracted to 4s3p2d1f pattern {8811/311/11/1}
 Group   2 Type O   : 18s5p2d1f contracted to 4s3p2d1f pattern {8811/311/11/1}
 Group   3 Type N   : 18s5p2d1f contracted to 4s3p2d1f pattern {8811/311/11/1}
 Group   4 Type S   : 41s16p2d1f contracted to 5s4p2d1f pattern {13131311/7711/11/1}
 Group   5 Type H   : 5s2p1d contracted to 3s2p1d pattern {311/11/1}

Atom   0C    basis set group =>   1
Atom   1C    basis set group =>   1
Atom   2O    basis set group =>   2
Atom   3C    basis set group =>   1
Atom   4O    basis set group =>   2
Atom   5C    basis set group =>   1
Atom   6C    basis set group =>   1
Atom   7C    basis set group =>   1
Atom   8N    basis set group =>   3
Atom   9C    basis set group =>   1
Atom  10S    basis set group =>   4
Atom  11N    basis set group =>   3
Atom  12C    basis set group =>   1
Atom  13C    basis set group =>   1
Atom  14C    basis set group =>   1
Atom  15C    basis set group =>   1
Atom  16C    basis set group =>   1
Atom  17C    basis set group =>   1
Atom  18O    basis set group =>   2
Atom  19C    basis set group =>   1
Atom  20H    basis set group =>   5
Atom  21H    basis set group =>   5
Atom  22H    basis set group =>   5
Atom  23H    basis set group =>   5
Atom  24H    basis set group =>   5
Atom  25H    basis set group =>   5
Atom  26H    basis set group =>   5
Atom  27H    basis set group =>   5
Atom  28H    basis set group =>   5
Atom  29H    basis set group =>   5
Atom  30H    basis set group =>   5
Atom  31H    basis set group =>   5
Atom  32H    basis set group =>   5
Atom  33H    basis set group =>   5
Atom  34H    basis set group =>   5
Atom  35H    basis set group =>   5
---------------------------------
AUXILIARY/C BASIS SET INFORMATION
---------------------------------
There are 5 groups of distinct atoms

 Group   1 Type C   : 8s6p5d3f1g contracted to 8s6p5d3f1g pattern {11111111/111111/11111/111/1}
 Group   2 Type O   : 8s6p5d3f1g contracted to 8s6p5d3f1g pattern {11111111/111111/11111/111/1}
 Group   3 Type N   : 8s6p5d3f1g contracted to 8s6p5d3f1g pattern {11111111/111111/11111/111/1}
 Group   4 Type S   : 10s8p7d5f2g contracted to 10s8p7d5f2g pattern {1111111111/11111111/1111111/11111/11}
 Group   5 Type H   : 4s3p2d1f contracted to 4s3p2d1f pattern {1111/111/11/1}

Atom   0C    basis set group =>   1
Atom   1C    basis set group =>   1
Atom   2O    basis set group =>   2
Atom   3C    basis set group =>   1
Atom   4O    basis set group =>   2
Atom   5C    basis set group =>   1
Atom   6C    basis set group =>   1
Atom   7C    basis set group =>   1
Atom   8N    basis set group =>   3
Atom   9C    basis set group =>   1
Atom  10S    basis set group =>   4
Atom  11N    basis set group =>   3
Atom  12C    basis set group =>   1
Atom  13C    basis set group =>   1
Atom  14C    basis set group =>   1
Atom  15C    basis set group =>   1
Atom  16C    basis set group =>   1
Atom  17C    basis set group =>   1
Atom  18O    basis set group =>   2
Atom  19C    basis set group =>   1
Atom  20H    basis set group =>   5
Atom  21H    basis set group =>   5
Atom  22H    basis set group =>   5
Atom  23H    basis set group =>   5
Atom  24H    basis set group =>   5
Atom  25H    basis set group =>   5
Atom  26H    basis set group =>   5
Atom  27H    basis set group =>   5
Atom  28H    basis set group =>   5
Atom  29H    basis set group =>   5
Atom  30H    basis set group =>   5
Atom  31H    basis set group =>   5
Atom  32H    basis set group =>   5
Atom  33H    basis set group =>   5
Atom  34H    basis set group =>   5
Atom  35H    basis set group =>   5
------------------------------------------------------------------------------
                           ORCA GTO INTEGRAL CALCULATION
------------------------------------------------------------------------------
------------------------------------------------------------------------------
                   ___                                                        
                  /   \      - P O W E R E D   B Y -                         
                 /     \                                                     
                 |  |  |   _    _      __       _____    __    __             
                 |  |  |  | |  | |    /  \     |  _  \  |  |  /  |          
                  \  \/   | |  | |   /    \    | | | |  |  | /  /          
                 / \  \   | |__| |  /  /\  \   | |_| |  |  |/  /          
                |  |  |   |  __  | /  /__\  \  |    /   |      \           
                |  |  |   | |  | | |   __   |  |    \   |  |\   \          
                \     /   | |  | | |  |  |  |  | |\  \  |  | \   \       
                 \___/    |_|  |_| |__|  |__|  |_| \__\ |__|  \__/        
                                                                              
                      - O R C A' S   B I G   F R I E N D -                    
                                      &                                       
                       - I N T E G R A L  F E E D E R -                       
                                                                              
 v1 FN, 2020, v2 2021                                                         
------------------------------------------------------------------------------


Reading SHARK input file CONFS/Conf439.orca.SHARKINP.tmp ... ok
----------------------
SHARK INTEGRAL PACKAGE
----------------------

Number of atoms                             ...     36
Number of basis functions                   ...    828
Number of shells                            ...    298
Maximum angular momentum                    ...      3
Integral batch strategy                     ... SHARK/LIBINT Hybrid
RI-J (if used) integral strategy            ... SPLIT-RIJ (Revised 2003 algorithm where possible)
Printlevel                                  ...      1
Contraction scheme used                     ... SEGMENTED contraction
Coulomb Range Separation                    ... NOT USED
Exchange Range Separation                   ... NOT USED
Finite Nucleus Model                        ... NOT USED
Auxiliary Coulomb fitting basis             ... NOT available
Auxiliary J/K fitting basis                 ... NOT available
Auxiliary Correlation fitting basis         ... AVAILABLE
   # of basis functions in Aux-C            ...   2141
   # of shells in Aux-C                     ...    629
   Maximum angular momentum in Aux-C        ...      4
Auxiliary 'external' fitting basis          ... NOT available
Integral threshold                          ...     2.500000e-11
Primitive cut-off                           ...     2.500000e-12
Primitive pair pre-selection threshold      ...     2.500000e-12

Calculating pre-screening integrals         ... done (  0.6 sec) Dimension = 298
Organizing shell pair data                  ... done (  0.4 sec)
Shell pair information
Total number of shell pairs                 ...     44551
Shell pairs after pre-screening             ...     33086
Total number of primitive shell pairs       ...    234348
Primitive shell pairs kept                  ...     94647
          la=0 lb=0:   6617 shell pairs
          la=1 lb=0:   9203 shell pairs
          la=1 lb=1:   3250 shell pairs
          la=2 lb=0:   5276 shell pairs
          la=2 lb=1:   3628 shell pairs
          la=2 lb=2:   1033 shell pairs
          la=3 lb=0:   1910 shell pairs
          la=3 lb=1:   1304 shell pairs
          la=3 lb=2:    720 shell pairs
          la=3 lb=3:    145 shell pairs

Calculating one electron integrals          ... done (  0.4 sec)
Calculating RI/C V-Matrix + Cholesky decomp.... done (  0.9 sec)
Calculating Nuclear repulsion               ... done (  0.0 sec) ENN=   1701.532079082801 Eh

SHARK setup successfully completed in   2.9 seconds

Maximum memory used throughout the entire GTOINT-calculation: 489.4 MB
-------------------------------------------------------------------------------
                                 ORCA SCF
-------------------------------------------------------------------------------

------------
SCF SETTINGS
------------
Hamiltonian:
 Ab initio Hamiltonian  Method          .... Hartree-Fock(GTOs)


General Settings:
 Integral files         IntName         .... CONFS/Conf439.orca
 Hartree-Fock type      HFTyp           .... RHF
 Total Charge           Charge          ....    0
 Multiplicity           Mult            ....    1
 Number of Electrons    NEL             ....  154
 Basis Dimension        Dim             ....  828
 Nuclear Repulsion      ENuc            ....   1701.5320790828 Eh

Convergence Acceleration:
 DIIS                   CNVDIIS         .... on
   Start iteration      DIISMaxIt       ....    12
   Startup error        DIISStart       ....  0.200000
   # of expansion vecs  DIISMaxEq       ....     5
   Bias factor          DIISBfac        ....   1.050
   Max. coefficient     DIISMaxC        ....  10.000
 Trust-Rad. Augm. Hess. CNVTRAH         .... auto
   Auto Start mean grad. ratio tolernc. ....  1.125000
   Auto Start start iteration           ....    20
   Auto Start num. interpolation iter.  ....    10
   Max. Number of Micro iterations      ....    16
   Max. Number of Macro iterations      .... Maxiter - #DIIS iter
   Number of Davidson start vectors     ....     2
   Converg. threshold I  (grad. norm)   ....   1.000e-05
   Converg. threshold II (energy diff.) ....   1.000e-08
   Grad. Scal. Fac. for Micro threshold ....   0.100
   Minimum threshold for Micro iter.    ....   0.010
   NR start threshold (gradient norm)   ....   0.001
   Initial trust radius                 ....   0.400
   Minimum AH scaling param. (alpha)    ....   1.000
   Maximum AH scaling param. (alpha)    .... 1000.000
   Orbital update algorithm             .... Taylor
   White noise on init. David. guess    .... on
   Maximum white noise                  ....   0.010
   Quad. conv. algorithm                .... NR
 SOSCF                  CNVSOSCF        .... on
   Start iteration      SOSCFMaxIt      ....   150
   Startup grad/error   SOSCFStart      ....  0.003300
 Level Shifting         CNVShift        .... on
   Level shift para.    LevelShift      ....    0.2500
   Turn off err/grad.   ShiftErr        ....    0.0010
 Zerner damping         CNVZerner       .... off
 Static damping         CNVDamp         .... on
   Fraction old density DampFac         ....    0.7000
   Max. Damping (<1)    DampMax         ....    0.9800
   Min. Damping (>=0)   DampMin         ....    0.0000
   Turn off err/grad.   DampErr         ....    0.1000
 Fernandez-Rico         CNVRico         .... off

SCF Procedure:
 Maximum # iterations   MaxIter         ....   125
 SCF integral mode      SCFMode         .... Direct
   Integral package                     .... SHARK and LIBINT hybrid scheme
 Reset frequency        DirectResetFreq ....    20
 Integral Threshold     Thresh          ....  2.500e-11 Eh
 Primitive CutOff       TCut            ....  2.500e-12 Eh

Convergence Tolerance:
 Convergence Check Mode ConvCheckMode   .... Total+1el-Energy
 Convergence forced     ConvForced      .... 1
 Energy Change          TolE            ....  1.000e-08 Eh
 1-El. energy change                    ....  1.000e-05 Eh
 Orbital Gradient       TolG            ....  1.000e-05
 Orbital Rotation angle TolX            ....  1.000e-05
 DIIS Error             TolErr          ....  5.000e-07


Diagonalization of the overlap matrix:
Smallest eigenvalue                        ... 3.471e-05
Time for diagonalization                   ...    0.138 sec
Threshold for overlap eigenvalues          ... 1.000e-08
Number of eigenvalues below threshold      ... 0
Time for construction of square roots      ...    0.225 sec
Total time needed                          ...    0.365 sec

Time for model grid setup =    1.475 sec

------------------------------
INITIAL GUESS: MODEL POTENTIAL
------------------------------
Loading Hartree-Fock densities                     ... done
Calculating cut-offs                               ... done
Initializing the effective Hamiltonian             ... done
Setting up the integral package (SHARK)            ... done
Starting the Coulomb interaction                   ... done (   4.6 sec)
Reading the grid                                   ... done
Mapping shells                                     ... done
Starting the XC term evaluation                    ... done (   1.4 sec)
Transforming the Hamiltonian                       ... done (   0.1 sec)
Diagonalizing the Hamiltonian                      ... done (   0.1 sec)
Back transforming the eigenvectors                 ... done (   0.0 sec)
Now organizing SCF variables                       ... done
                      ------------------
                      INITIAL GUESS DONE (   7.9 sec)
                      ------------------
--------------
SCF ITERATIONS
--------------
ITER       Energy         Delta-E        Max-DP      RMS-DP      [F,P]     Damp
               ***  Starting incremental Fock matrix formation  ***
  0  -1270.0037638578   0.000000000000 0.04932799  0.00043217  0.3053705 0.7000
  1  -1270.2717580653  -0.267994207562 0.03608855  0.00034762  0.1773245 0.7000
                               ***Turning on DIIS***
  2  -1270.4388665215  -0.167108456161 0.02584257  0.00023317  0.1097014 0.7000
  3  -1272.5964732866  -2.157606765124 0.06314823  0.00050810  0.0828556 0.0000
  4  -1270.7459778738   1.850495412783 0.00934532  0.00009711  0.0069166 0.0000
  5  -1270.8092797065  -0.063301832611 0.00446594  0.00005229  0.0035633 0.0000
                      *** Initiating the SOSCF procedure ***
                           *** Shutting down DIIS ***
                      *** Re-Reading the Fockian *** 
                      *** Removing any level shift *** 
ITER      Energy       Delta-E        Grad      Rot      Max-DP    RMS-DP
  6  -1270.78746344   0.0218162686  0.001427  0.001427  0.002154  0.000026
               *** Restarting incremental Fock matrix formation ***
  7  -1270.80196819  -0.0145047530  0.000811  0.002087  0.001322  0.000016
  8  -1270.80201528  -0.0000470855  0.000377  0.002429  0.001386  0.000017
  9  -1270.80203298  -0.0000177055  0.000162  0.000318  0.000359  0.000004
 10  -1270.80203521  -0.0000022257  0.000050  0.000132  0.000114  0.000001
 11  -1270.80203542  -0.0000002151  0.000020  0.000115  0.000061  0.000001
 12  -1270.80203548  -0.0000000602  0.000010  0.000035  0.000027  0.000000
                  ***Gradient check signals convergence***
              ***Rediagonalizing the Fockian in SOSCF/NRSCF***

               *****************************************************
               *                     SUCCESS                       *
               *           SCF CONVERGED AFTER  13 CYCLES          *
               *****************************************************


----------------
TOTAL SCF ENERGY
----------------

Total Energy       :        -1270.80203549 Eh          -34580.28141 eV

Components:
Nuclear Repulsion  :         1701.53207908 Eh           46301.04177 eV
Electronic Energy  :        -2972.33411457 Eh          -80881.32318 eV
One Electron Energy:        -5124.53853755 Eh         -139445.78289 eV
Two Electron Energy:         2152.20442298 Eh           58564.45971 eV

Virial components:
Potential Energy   :        -2539.70909839 Eh          -69108.99800 eV
Kinetic Energy     :         1268.90706290 Eh           34528.71659 eV
Virial Ratio       :            2.00149339


---------------
SCF CONVERGENCE
---------------

  Last Energy change         ...   -2.9931e-09  Tolerance :   1.0000e-08
  Last MAX-Density change    ...    4.2954e-06  Tolerance :   1.0000e-07
  Last RMS-Density change    ...    8.8253e-08  Tolerance :   5.0000e-09
  Last Orbital Gradient      ...    2.2696e-06  Tolerance :   1.0000e-05
  Last Orbital Rotation      ...    6.6843e-06  Tolerance :   1.0000e-05

             **** THE GBW FILE WAS UPDATED (CONFS/Conf439.orca.gbw) ****
             **** DENSITY CONFS/Conf439.orca.scfp WAS UPDATED ****
             **** ENERGY FILE WAS UPDATED (CONFS/Conf439.orca.en.tmp) ****
             **** THE GBW FILE WAS UPDATED (CONFS/Conf439.orca.gbw) ****
             **** DENSITY CONFS/Conf439.orca.scfp WAS UPDATED ****
----------------
ORBITAL ENERGIES
----------------

  NO   OCC          E(Eh)            E(eV) 
   0   2.0000     -91.887861     -2500.3958 
   1   2.0000     -20.594186      -560.3963 
   2   2.0000     -20.593030      -560.3648 
   3   2.0000     -20.546577      -559.1008 
   4   2.0000     -15.627882      -425.2563 
   5   2.0000     -15.606621      -424.6778 
   6   2.0000     -11.397723      -310.1478 
   7   2.0000     -11.382736      -309.7400 
   8   2.0000     -11.335354      -308.4507 
   9   2.0000     -11.308976      -307.7329 
  10   2.0000     -11.307386      -307.6896 
  11   2.0000     -11.305330      -307.6337 
  12   2.0000     -11.259406      -306.3840 
  13   2.0000     -11.258453      -306.3581 
  14   2.0000     -11.254624      -306.2539 
  15   2.0000     -11.249130      -306.1044 
  16   2.0000     -11.238795      -305.8232 
  17   2.0000     -11.234768      -305.7136 
  18   2.0000     -11.231646      -305.6286 
  19   2.0000     -11.225193      -305.4530 
  20   2.0000      -8.892931      -241.9890 
  21   2.0000      -6.574510      -178.9015 
  22   2.0000      -6.572502      -178.8469 
  23   2.0000      -6.571917      -178.8310 
  24   2.0000      -1.444745       -39.3135 
  25   2.0000      -1.412782       -38.4438 
  26   2.0000      -1.356011       -36.8989 
  27   2.0000      -1.338961       -36.4350 
  28   2.0000      -1.236748       -33.6536 
  29   2.0000      -1.153184       -31.3797 
  30   2.0000      -1.118903       -30.4469 
  31   2.0000      -1.042197       -28.3596 
  32   2.0000      -1.034127       -28.1400 
  33   2.0000      -1.010729       -27.5033 
  34   2.0000      -0.997553       -27.1448 
  35   2.0000      -0.982759       -26.7422 
  36   2.0000      -0.921813       -25.0838 
  37   2.0000      -0.896117       -24.3846 
  38   2.0000      -0.848130       -23.0788 
  39   2.0000      -0.836509       -22.7626 
  40   2.0000      -0.829221       -22.5642 
  41   2.0000      -0.818923       -22.2840 
  42   2.0000      -0.742773       -20.2119 
  43   2.0000      -0.726331       -19.7645 
  44   2.0000      -0.724620       -19.7179 
  45   2.0000      -0.690977       -18.8024 
  46   2.0000      -0.684089       -18.6150 
  47   2.0000      -0.677025       -18.4228 
  48   2.0000      -0.674646       -18.3580 
  49   2.0000      -0.665157       -18.0999 
  50   2.0000      -0.647596       -17.6220 
  51   2.0000      -0.644173       -17.5288 
  52   2.0000      -0.634643       -17.2695 
  53   2.0000      -0.612161       -16.6578 
  54   2.0000      -0.601640       -16.3715 
  55   2.0000      -0.600302       -16.3350 
  56   2.0000      -0.596534       -16.2325 
  57   2.0000      -0.574919       -15.6443 
  58   2.0000      -0.574480       -15.6324 
  59   2.0000      -0.567591       -15.4449 
  60   2.0000      -0.556977       -15.1561 
  61   2.0000      -0.544183       -14.8080 
  62   2.0000      -0.537505       -14.6262 
  63   2.0000      -0.526153       -14.3174 
  64   2.0000      -0.517455       -14.0807 
  65   2.0000      -0.510846       -13.9008 
  66   2.0000      -0.499374       -13.5887 
  67   2.0000      -0.495042       -13.4708 
  68   2.0000      -0.479378       -13.0445 
  69   2.0000      -0.462790       -12.5932 
  70   2.0000      -0.453929       -12.3520 
  71   2.0000      -0.448053       -12.1921 
  72   2.0000      -0.353505        -9.6193 
  73   2.0000      -0.345174        -9.3927 
  74   2.0000      -0.327085        -8.9004 
  75   2.0000      -0.316310        -8.6072 
  76   2.0000      -0.314498        -8.5579 
  77   0.0000       0.075044         2.0420 
  78   0.0000       0.110330         3.0022 
  79   0.0000       0.121450         3.3048 
  80   0.0000       0.134715         3.6658 
  81   0.0000       0.139063         3.7841 
  82   0.0000       0.145543         3.9604 
  83   0.0000       0.151796         4.1306 
  84   0.0000       0.161952         4.4069 
  85   0.0000       0.163222         4.4415 
  86   0.0000       0.166829         4.5396 
  87   0.0000       0.180978         4.9247 
  88   0.0000       0.190146         5.1741 
  89   0.0000       0.194832         5.3016 
  90   0.0000       0.199117         5.4182 
  91   0.0000       0.209717         5.7067 
  92   0.0000       0.215047         5.8517 
  93   0.0000       0.220252         5.9933 
  94   0.0000       0.223271         6.0755 
  95   0.0000       0.235799         6.4164 
  96   0.0000       0.239010         6.5038 
  97   0.0000       0.247232         6.7275 
  98   0.0000       0.256181         6.9710 
  99   0.0000       0.274925         7.4811 
 100   0.0000       0.291893         7.9428 
 101   0.0000       0.309733         8.4283 
 102   0.0000       0.314907         8.5691 
 103   0.0000       0.321196         8.7402 
 104   0.0000       0.329515         8.9666 
 105   0.0000       0.336825         9.1655 
 106   0.0000       0.341293         9.2870 
 107   0.0000       0.351590         9.5672 
 108   0.0000       0.357203         9.7200 
 109   0.0000       0.363406         9.8888 
 110   0.0000       0.370167        10.0728 
 111   0.0000       0.379162        10.3175 
 112   0.0000       0.383179        10.4268 
 113   0.0000       0.388995        10.5851 
 114   0.0000       0.398270        10.8375 
 115   0.0000       0.408461        11.1148 
 116   0.0000       0.423887        11.5346 
 117   0.0000       0.428418        11.6579 
 118   0.0000       0.434804        11.8316 
 119   0.0000       0.439441        11.9578 
 120   0.0000       0.445318        12.1177 
 121   0.0000       0.449733        12.2379 
 122   0.0000       0.452278        12.3071 
 123   0.0000       0.460447        12.5294 
 124   0.0000       0.462182        12.5766 
 125   0.0000       0.470061        12.7910 
 126   0.0000       0.481506        13.1024 
 127   0.0000       0.491479        13.3738 
 128   0.0000       0.492080        13.3902 
 129   0.0000       0.496464        13.5095 
 130   0.0000       0.501498        13.6465 
 131   0.0000       0.510688        13.8965 
 132   0.0000       0.512243        13.9388 
 133   0.0000       0.519086        14.1250 
 134   0.0000       0.528272        14.3750 
 135   0.0000       0.530645        14.4396 
 136   0.0000       0.534135        14.5346 
 137   0.0000       0.541938        14.7469 
 138   0.0000       0.542392        14.7592 
 139   0.0000       0.550142        14.9701 
 140   0.0000       0.553002        15.0479 
 141   0.0000       0.559309        15.2196 
 142   0.0000       0.566487        15.4149 
 143   0.0000       0.571261        15.5448 
 144   0.0000       0.577166        15.7055 
 145   0.0000       0.580302        15.7908 
 146   0.0000       0.583913        15.8891 
 147   0.0000       0.593199        16.1418 
 148   0.0000       0.596423        16.2295 
 149   0.0000       0.597528        16.2596 
 150   0.0000       0.599707        16.3188 
 151   0.0000       0.604338        16.4449 
 152   0.0000       0.608322        16.5533 
 153   0.0000       0.613072        16.6825 
 154   0.0000       0.620973        16.8975 
 155   0.0000       0.623409        16.9638 
 156   0.0000       0.627478        17.0746 
 157   0.0000       0.631390        17.1810 
 158   0.0000       0.639237        17.3945 
 159   0.0000       0.642904        17.4943 
 160   0.0000       0.646898        17.6030 
 161   0.0000       0.650840        17.7102 
 162   0.0000       0.654878        17.8201 
 163   0.0000       0.661614        18.0034 
 164   0.0000       0.663763        18.0619 
 165   0.0000       0.673898        18.3377 
 166   0.0000       0.681641        18.5484 
 167   0.0000       0.682853        18.5814 
 168   0.0000       0.692515        18.8443 
 169   0.0000       0.697859        18.9897 
 170   0.0000       0.701996        19.1023 
 171   0.0000       0.706008        19.2115 
 172   0.0000       0.717749        19.5309 
 173   0.0000       0.722993        19.6736 
 174   0.0000       0.725019        19.7288 
 175   0.0000       0.730450        19.8766 
 176   0.0000       0.738571        20.0975 
 177   0.0000       0.745490        20.2858 
 178   0.0000       0.749019        20.3818 
 179   0.0000       0.753019        20.4907 
 180   0.0000       0.756648        20.5894 
 181   0.0000       0.760573        20.6962 
 182   0.0000       0.766865        20.8675 
 183   0.0000       0.784113        21.3368 
 184   0.0000       0.788632        21.4598 
 185   0.0000       0.804300        21.8861 
 186   0.0000       0.817314        22.2402 
 187   0.0000       0.823768        22.4159 
 188   0.0000       0.829513        22.5722 
 189   0.0000       0.837427        22.7875 
 190   0.0000       0.838918        22.8281 
 191   0.0000       0.844991        22.9934 
 192   0.0000       0.853216        23.2172 
 193   0.0000       0.861433        23.4408 
 194   0.0000       0.869984        23.6735 
 195   0.0000       0.874768        23.8036 
 196   0.0000       0.883158        24.0320 
 197   0.0000       0.888611        24.1803 
 198   0.0000       0.896912        24.4062 
 199   0.0000       0.907030        24.6815 
 200   0.0000       0.912027        24.8175 
 201   0.0000       0.921882        25.0857 
 202   0.0000       0.929420        25.2908 
 203   0.0000       0.937075        25.4991 
 204   0.0000       0.943326        25.6692 
 205   0.0000       0.948850        25.8195 
 206   0.0000       0.957177        26.0461 
 207   0.0000       0.969310        26.3763 
 208   0.0000       0.974000        26.5039 
 209   0.0000       0.977197        26.5909 
 210   0.0000       0.983366        26.7588 
 211   0.0000       0.984077        26.7781 
 212   0.0000       0.990226        26.9454 
 213   0.0000       1.004969        27.3466 
 214   0.0000       1.007604        27.4183 
 215   0.0000       1.017214        27.6798 
 216   0.0000       1.020637        27.7729 
 217   0.0000       1.031811        28.0770 
 218   0.0000       1.038556        28.2605 
 219   0.0000       1.040851        28.3230 
 220   0.0000       1.048237        28.5240 
 221   0.0000       1.052458        28.6388 
 222   0.0000       1.075598        29.2685 
 223   0.0000       1.083289        29.4778 
 224   0.0000       1.094237        29.7757 
 225   0.0000       1.096667        29.8418 
 226   0.0000       1.097569        29.8664 
 227   0.0000       1.113969        30.3126 
 228   0.0000       1.118579        30.4381 
 229   0.0000       1.123731        30.5783 
 230   0.0000       1.128919        30.7194 
 231   0.0000       1.139913        31.0186 
 232   0.0000       1.140825        31.0434 
 233   0.0000       1.150115        31.2962 
 234   0.0000       1.156388        31.4669 
 235   0.0000       1.165967        31.7276 
 236   0.0000       1.174250        31.9530 
 237   0.0000       1.177720        32.0474 
 238   0.0000       1.178752        32.0755 
 239   0.0000       1.184918        32.2433 
 240   0.0000       1.197080        32.5742 
 241   0.0000       1.206162        32.8213 
 242   0.0000       1.207233        32.8505 
 243   0.0000       1.213730        33.0273 
 244   0.0000       1.217928        33.1415 
 245   0.0000       1.226877        33.3850 
 246   0.0000       1.238856        33.7110 
 247   0.0000       1.244203        33.8565 
 248   0.0000       1.246999        33.9326 
 249   0.0000       1.251966        34.0677 
 250   0.0000       1.268289        34.5119 
 251   0.0000       1.272235        34.6193 
 252   0.0000       1.275850        34.7176 
 253   0.0000       1.283141        34.9160 
 254   0.0000       1.290392        35.1133 
 255   0.0000       1.295799        35.2605 
 256   0.0000       1.308545        35.6073 
 257   0.0000       1.312412        35.7125 
 258   0.0000       1.326786        36.1037 
 259   0.0000       1.329592        36.1800 
 260   0.0000       1.336712        36.3738 
 261   0.0000       1.346587        36.6425 
 262   0.0000       1.357501        36.9395 
 263   0.0000       1.364954        37.1423 
 264   0.0000       1.370673        37.2979 
 265   0.0000       1.384221        37.6666 
 266   0.0000       1.388102        37.7722 
 267   0.0000       1.401930        38.1485 
 268   0.0000       1.404859        38.2282 
 269   0.0000       1.413359        38.4594 
 270   0.0000       1.417455        38.5709 
 271   0.0000       1.422091        38.6971 
 272   0.0000       1.440061        39.1860 
 273   0.0000       1.443866        39.2896 
 274   0.0000       1.456993        39.6468 
 275   0.0000       1.457759        39.6676 
 276   0.0000       1.462953        39.8090 
 277   0.0000       1.471900        40.0524 
 278   0.0000       1.483157        40.3588 
 279   0.0000       1.486145        40.4401 
 280   0.0000       1.488661        40.5085 
 281   0.0000       1.495737        40.7011 
 282   0.0000       1.502509        40.8853 
 283   0.0000       1.510052        41.0906 
 284   0.0000       1.514134        41.2017 
 285   0.0000       1.521055        41.3900 
 286   0.0000       1.530470        41.6462 
 287   0.0000       1.533669        41.7333 
 288   0.0000       1.543935        42.0126 
 289   0.0000       1.545614        42.0583 
 290   0.0000       1.550431        42.1894 
 291   0.0000       1.555123        42.3170 
 292   0.0000       1.565534        42.6003 
 293   0.0000       1.577233        42.9187 
 294   0.0000       1.587746        43.2048 
 295   0.0000       1.597458        43.4691 
 296   0.0000       1.603447        43.6320 
 297   0.0000       1.611560        43.8528 
 298   0.0000       1.617417        44.0121 
 299   0.0000       1.625393        44.2292 
 300   0.0000       1.629705        44.3465 
 301   0.0000       1.645074        44.7647 
 302   0.0000       1.646568        44.8054 
 303   0.0000       1.649935        44.8970 
 304   0.0000       1.664036        45.2807 
 305   0.0000       1.674682        45.5704 
 306   0.0000       1.677534        45.6480 
 307   0.0000       1.682116        45.7727 
 308   0.0000       1.705172        46.4001 
 309   0.0000       1.709756        46.5248 
 310   0.0000       1.721679        46.8493 
 311   0.0000       1.724404        46.9234 
 312   0.0000       1.728990        47.0482 
 313   0.0000       1.736024        47.2396 
 314   0.0000       1.744656        47.4745 
 315   0.0000       1.753273        47.7090 
 316   0.0000       1.754397        47.7396 
 317   0.0000       1.772471        48.2314 
 318   0.0000       1.779043        48.4102 
 319   0.0000       1.793729        48.8098 
 320   0.0000       1.799239        48.9598 
 321   0.0000       1.822189        49.5843 
 322   0.0000       1.832458        49.8637 
 323   0.0000       1.844273        50.1852 
 324   0.0000       1.847389        50.2700 
 325   0.0000       1.870760        50.9060 
 326   0.0000       1.895306        51.5739 
 327   0.0000       1.901317        51.7375 
 328   0.0000       1.907475        51.9050 
 329   0.0000       1.915144        52.1137 
 330   0.0000       1.921442        52.2851 
 331   0.0000       1.937579        52.7242 
 332   0.0000       1.941245        52.8240 
 333   0.0000       1.957929        53.2780 
 334   0.0000       1.965258        53.4774 
 335   0.0000       1.981157        53.9100 
 336   0.0000       1.994756        54.2801 
 337   0.0000       2.004067        54.5334 
 338   0.0000       2.015566        54.8463 
 339   0.0000       2.027288        55.1653 
 340   0.0000       2.028545        55.1995 
 341   0.0000       2.032939        55.3191 
 342   0.0000       2.049987        55.7830 
 343   0.0000       2.062741        56.1300 
 344   0.0000       2.077140        56.5218 
 345   0.0000       2.103791        57.2471 
 346   0.0000       2.114626        57.5419 
 347   0.0000       2.129780        57.9543 
 348   0.0000       2.145240        58.3750 
 349   0.0000       2.159882        58.7734 
 350   0.0000       2.175239        59.1913 
 351   0.0000       2.196038        59.7572 
 352   0.0000       2.205361        60.0109 
 353   0.0000       2.222751        60.4841 
 354   0.0000       2.236778        60.8658 
 355   0.0000       2.261753        61.5454 
 356   0.0000       2.275681        61.9244 
 357   0.0000       2.289856        62.3101 
 358   0.0000       2.303172        62.6725 
 359   0.0000       2.312482        62.9258 
 360   0.0000       2.325124        63.2698 
 361   0.0000       2.327217        63.3268 
 362   0.0000       2.344946        63.8092 
 363   0.0000       2.355833        64.1055 
 364   0.0000       2.365582        64.3708 
 365   0.0000       2.386571        64.9419 
 366   0.0000       2.393787        65.1382 
 367   0.0000       2.408553        65.5401 
 368   0.0000       2.417568        65.7854 
 369   0.0000       2.434257        66.2395 
 370   0.0000       2.444016        66.5050 
 371   0.0000       2.457217        66.8643 
 372   0.0000       2.471391        67.2500 
 373   0.0000       2.475870        67.3719 
 374   0.0000       2.486038        67.6485 
 375   0.0000       2.495128        67.8959 
 376   0.0000       2.514647        68.4270 
 377   0.0000       2.516916        68.4888 
 378   0.0000       2.539839        69.1125 
 379   0.0000       2.548886        69.3587 
 380   0.0000       2.571532        69.9750 
 381   0.0000       2.580785        70.2267 
 382   0.0000       2.583787        70.3084 
 383   0.0000       2.597835        70.6907 
 384   0.0000       2.616356        71.1947 
 385   0.0000       2.625673        71.4482 
 386   0.0000       2.632400        71.6312 
 387   0.0000       2.649307        72.0913 
 388   0.0000       2.664665        72.5092 
 389   0.0000       2.674529        72.7776 
 390   0.0000       2.684016        73.0358 
 391   0.0000       2.692668        73.2712 
 392   0.0000       2.700032        73.4716 
 393   0.0000       2.713932        73.8498 
 394   0.0000       2.724987        74.1507 
 395   0.0000       2.731542        74.3290 
 396   0.0000       2.735631        74.4403 
 397   0.0000       2.747457        74.7621 
 398   0.0000       2.760677        75.1219 
 399   0.0000       2.764893        75.2366 
 400   0.0000       2.773415        75.4684 
 401   0.0000       2.789398        75.9034 
 402   0.0000       2.804637        76.3181 
 403   0.0000       2.808341        76.4189 
 404   0.0000       2.833701        77.1089 
 405   0.0000       2.836799        77.1932 
 406   0.0000       2.839019        77.2536 
 407   0.0000       2.847772        77.4918 
 408   0.0000       2.858967        77.7964 
 409   0.0000       2.863640        77.9236 
 410   0.0000       2.873694        78.1972 
 411   0.0000       2.879324        78.3504 
 412   0.0000       2.886420        78.5435 
 413   0.0000       2.898350        78.8681 
 414   0.0000       2.904531        79.0363 
 415   0.0000       2.911978        79.2390 
 416   0.0000       2.925626        79.6103 
 417   0.0000       2.940222        80.0075 
 418   0.0000       2.944418        80.1217 
 419   0.0000       2.951924        80.3259 
 420   0.0000       2.962594        80.6163 
 421   0.0000       2.972498        80.8858 
 422   0.0000       2.973960        80.9256 
 423   0.0000       2.992575        81.4321 
 424   0.0000       2.995721        81.5177 
 425   0.0000       3.008829        81.8744 
 426   0.0000       3.014380        82.0255 
 427   0.0000       3.027054        82.3703 
 428   0.0000       3.030209        82.4562 
 429   0.0000       3.035680        82.6050 
 430   0.0000       3.038993        82.6952 
 431   0.0000       3.050135        82.9984 
 432   0.0000       3.057752        83.2057 
 433   0.0000       3.072706        83.6126 
 434   0.0000       3.078570        83.7722 
 435   0.0000       3.085407        83.9582 
 436   0.0000       3.088866        84.0523 
 437   0.0000       3.093014        84.1652 
 438   0.0000       3.105245        84.4980 
 439   0.0000       3.106148        84.5226 
 440   0.0000       3.115438        84.7754 
 441   0.0000       3.120508        84.9133 
 442   0.0000       3.127747        85.1103 
 443   0.0000       3.131840        85.2217 
 444   0.0000       3.143321        85.5341 
 445   0.0000       3.151867        85.7667 
 446   0.0000       3.166996        86.1783 
 447   0.0000       3.174131        86.3725 
 448   0.0000       3.183655        86.6317 
 449   0.0000       3.191195        86.8368 
 450   0.0000       3.195544        86.9552 
 451   0.0000       3.197285        87.0026 
 452   0.0000       3.203087        87.1604 
 453   0.0000       3.214288        87.4652 
 454   0.0000       3.217512        87.5530 
 455   0.0000       3.225391        87.7673 
 456   0.0000       3.238194        88.1157 
 457   0.0000       3.242816        88.2415 
 458   0.0000       3.249922        88.4349 
 459   0.0000       3.257939        88.6530 
 460   0.0000       3.266772        88.8934 
 461   0.0000       3.274763        89.1108 
 462   0.0000       3.283325        89.3438 
 463   0.0000       3.294769        89.6552 
 464   0.0000       3.297639        89.7333 
 465   0.0000       3.310144        90.0736 
 466   0.0000       3.312729        90.1439 
 467   0.0000       3.317115        90.2633 
 468   0.0000       3.324938        90.4762 
 469   0.0000       3.331025        90.6418 
 470   0.0000       3.335273        90.7574 
 471   0.0000       3.338822        90.8540 
 472   0.0000       3.351671        91.2036 
 473   0.0000       3.356622        91.3383 
 474   0.0000       3.364518        91.5532 
 475   0.0000       3.370902        91.7269 
 476   0.0000       3.374053        91.8126 
 477   0.0000       3.383709        92.0754 
 478   0.0000       3.386446        92.1499 
 479   0.0000       3.393991        92.3552 
 480   0.0000       3.397815        92.4592 
 481   0.0000       3.403660        92.6183 
 482   0.0000       3.404450        92.6398 
 483   0.0000       3.406943        92.7076 
 484   0.0000       3.411789        92.8395 
 485   0.0000       3.420844        93.0859 
 486   0.0000       3.421509        93.1040 
 487   0.0000       3.424528        93.1861 
 488   0.0000       3.431544        93.3771 
 489   0.0000       3.437503        93.5392 
 490   0.0000       3.440416        93.6185 
 491   0.0000       3.449810        93.8741 
 492   0.0000       3.452248        93.9404 
 493   0.0000       3.457097        94.0724 
 494   0.0000       3.463613        94.2497 
 495   0.0000       3.468612        94.3857 
 496   0.0000       3.470045        94.4247 
 497   0.0000       3.480892        94.7199 
 498   0.0000       3.490237        94.9742 
 499   0.0000       3.504498        95.3622 
 500   0.0000       3.510955        95.5379 
 501   0.0000       3.515313        95.6565 
 502   0.0000       3.518544        95.7444 
 503   0.0000       3.531385        96.0939 
 504   0.0000       3.534557        96.1802 
 505   0.0000       3.546132        96.4952 
 506   0.0000       3.555845        96.7595 
 507   0.0000       3.568844        97.1132 
 508   0.0000       3.580972        97.4432 
 509   0.0000       3.585005        97.5529 
 510   0.0000       3.592751        97.7637 
 511   0.0000       3.602979        98.0420 
 512   0.0000       3.611506        98.2741 
 513   0.0000       3.615917        98.3941 
 514   0.0000       3.620694        98.5241 
 515   0.0000       3.626541        98.6832 
 516   0.0000       3.631553        98.8196 
 517   0.0000       3.638243        99.0016 
 518   0.0000       3.641097        99.0793 
 519   0.0000       3.643596        99.1473 
 520   0.0000       3.654035        99.4313 
 521   0.0000       3.658166        99.5438 
 522   0.0000       3.663818        99.6976 
 523   0.0000       3.667842        99.8070 
 524   0.0000       3.679112       100.1137 
 525   0.0000       3.683227       100.2257 
 526   0.0000       3.688996       100.3827 
 527   0.0000       3.695828       100.5686 
 528   0.0000       3.700103       100.6849 
 529   0.0000       3.704994       100.8180 
 530   0.0000       3.713567       101.0513 
 531   0.0000       3.719943       101.2248 
 532   0.0000       3.729451       101.4835 
 533   0.0000       3.739029       101.7442 
 534   0.0000       3.744875       101.9032 
 535   0.0000       3.753973       102.1508 
 536   0.0000       3.755580       102.1945 
 537   0.0000       3.760946       102.3405 
 538   0.0000       3.764456       102.4361 
 539   0.0000       3.771092       102.6166 
 540   0.0000       3.778920       102.8296 
 541   0.0000       3.784944       102.9936 
 542   0.0000       3.794896       103.2644 
 543   0.0000       3.799297       103.3841 
 544   0.0000       3.809886       103.6723 
 545   0.0000       3.812992       103.7568 
 546   0.0000       3.821706       103.9939 
 547   0.0000       3.829247       104.1991 
 548   0.0000       3.833281       104.3089 
 549   0.0000       3.839733       104.4844 
 550   0.0000       3.851561       104.8063 
 551   0.0000       3.855904       104.9245 
 552   0.0000       3.871928       105.3605 
 553   0.0000       3.881796       105.6290 
 554   0.0000       3.889853       105.8483 
 555   0.0000       3.894486       105.9743 
 556   0.0000       3.909076       106.3714 
 557   0.0000       3.919550       106.6564 
 558   0.0000       3.921680       106.7143 
 559   0.0000       3.936907       107.1287 
 560   0.0000       3.942839       107.2901 
 561   0.0000       3.950038       107.4860 
 562   0.0000       3.960127       107.7605 
 563   0.0000       3.969620       108.0188 
 564   0.0000       3.976944       108.2181 
 565   0.0000       3.987746       108.5121 
 566   0.0000       3.991265       108.6078 
 567   0.0000       4.003231       108.9334 
 568   0.0000       4.009124       109.0938 
 569   0.0000       4.025357       109.5355 
 570   0.0000       4.028682       109.6260 
 571   0.0000       4.041304       109.9695 
 572   0.0000       4.045406       110.0811 
 573   0.0000       4.047842       110.1474 
 574   0.0000       4.054983       110.3417 
 575   0.0000       4.072355       110.8144 
 576   0.0000       4.078699       110.9870 
 577   0.0000       4.088233       111.2465 
 578   0.0000       4.102212       111.6269 
 579   0.0000       4.105607       111.7193 
 580   0.0000       4.111554       111.8811 
 581   0.0000       4.122936       112.1908 
 582   0.0000       4.127871       112.3251 
 583   0.0000       4.129970       112.3822 
 584   0.0000       4.137841       112.5964 
 585   0.0000       4.142781       112.7308 
 586   0.0000       4.151984       112.9812 
 587   0.0000       4.157163       113.1222 
 588   0.0000       4.171372       113.5088 
 589   0.0000       4.178734       113.7091 
 590   0.0000       4.180379       113.7539 
 591   0.0000       4.187017       113.9345 
 592   0.0000       4.197141       114.2100 
 593   0.0000       4.199727       114.2804 
 594   0.0000       4.210344       114.5693 
 595   0.0000       4.215824       114.7184 
 596   0.0000       4.219963       114.8310 
 597   0.0000       4.228774       115.0708 
 598   0.0000       4.230739       115.1243 
 599   0.0000       4.239339       115.3583 
 600   0.0000       4.252144       115.7067 
 601   0.0000       4.259481       115.9064 
 602   0.0000       4.264983       116.0561 
 603   0.0000       4.275843       116.3516 
 604   0.0000       4.278009       116.4105 
 605   0.0000       4.284538       116.5882 
 606   0.0000       4.296443       116.9122 
 607   0.0000       4.306510       117.1861 
 608   0.0000       4.314679       117.4084 
 609   0.0000       4.323074       117.6368 
 610   0.0000       4.327058       117.7452 
 611   0.0000       4.341670       118.1429 
 612   0.0000       4.345460       118.2460 
 613   0.0000       4.354785       118.4997 
 614   0.0000       4.363471       118.7361 
 615   0.0000       4.367359       118.8419 
 616   0.0000       4.376004       119.0771 
 617   0.0000       4.382386       119.2508 
 618   0.0000       4.386996       119.3762 
 619   0.0000       4.401111       119.7603 
 620   0.0000       4.408469       119.9605 
 621   0.0000       4.418632       120.2371 
 622   0.0000       4.426090       120.4400 
 623   0.0000       4.434037       120.6563 
 624   0.0000       4.442202       120.8785 
 625   0.0000       4.447539       121.0237 
 626   0.0000       4.455958       121.2528 
 627   0.0000       4.468432       121.5922 
 628   0.0000       4.470150       121.6390 
 629   0.0000       4.483586       122.0046 
 630   0.0000       4.504790       122.5816 
 631   0.0000       4.507594       122.6579 
 632   0.0000       4.519036       122.9692 
 633   0.0000       4.526049       123.1600 
 634   0.0000       4.534168       123.3810 
 635   0.0000       4.539938       123.5380 
 636   0.0000       4.542516       123.6081 
 637   0.0000       4.561472       124.1240 
 638   0.0000       4.564974       124.2193 
 639   0.0000       4.580076       124.6302 
 640   0.0000       4.581812       124.6774 
 641   0.0000       4.587646       124.8362 
 642   0.0000       4.600577       125.1881 
 643   0.0000       4.617836       125.6577 
 644   0.0000       4.623772       125.8192 
 645   0.0000       4.627066       125.9089 
 646   0.0000       4.632110       126.0461 
 647   0.0000       4.642775       126.3363 
 648   0.0000       4.646575       126.4397 
 649   0.0000       4.649827       126.5282 
 650   0.0000       4.651225       126.5663 
 651   0.0000       4.665956       126.9671 
 652   0.0000       4.673677       127.1772 
 653   0.0000       4.685687       127.5040 
 654   0.0000       4.688822       127.5893 
 655   0.0000       4.694357       127.7400 
 656   0.0000       4.706949       128.0826 
 657   0.0000       4.719682       128.4291 
 658   0.0000       4.733473       128.8043 
 659   0.0000       4.741849       129.0323 
 660   0.0000       4.750717       129.2736 
 661   0.0000       4.772587       129.8687 
 662   0.0000       4.780944       130.0961 
 663   0.0000       4.794658       130.4693 
 664   0.0000       4.801113       130.6449 
 665   0.0000       4.807808       130.8271 
 666   0.0000       4.828182       131.3815 
 667   0.0000       4.843777       131.8059 
 668   0.0000       4.865178       132.3882 
 669   0.0000       4.883478       132.8862 
 670   0.0000       4.906262       133.5062 
 671   0.0000       4.921455       133.9196 
 672   0.0000       4.927859       134.0939 
 673   0.0000       4.939301       134.4052 
 674   0.0000       4.968626       135.2032 
 675   0.0000       4.980317       135.5213 
 676   0.0000       5.003830       136.1611 
 677   0.0000       5.015755       136.4856 
 678   0.0000       5.021693       136.6472 
 679   0.0000       5.044287       137.2620 
 680   0.0000       5.050530       137.4319 
 681   0.0000       5.057436       137.6198 
 682   0.0000       5.076517       138.1391 
 683   0.0000       5.096521       138.6834 
 684   0.0000       5.109024       139.0236 
 685   0.0000       5.113192       139.1370 
 686   0.0000       5.122118       139.3799 
 687   0.0000       5.131654       139.6394 
 688   0.0000       5.141104       139.8965 
 689   0.0000       5.151147       140.1698 
 690   0.0000       5.169748       140.6760 
 691   0.0000       5.181192       140.9874 
 692   0.0000       5.190036       141.2281 
 693   0.0000       5.194866       141.3595 
 694   0.0000       5.199670       141.4902 
 695   0.0000       5.209451       141.7564 
 696   0.0000       5.216656       141.9524 
 697   0.0000       5.225533       142.1940 
 698   0.0000       5.232661       142.3879 
 699   0.0000       5.245382       142.7341 
 700   0.0000       5.256662       143.0411 
 701   0.0000       5.270678       143.4224 
 702   0.0000       5.289650       143.9387 
 703   0.0000       5.319589       144.7534 
 704   0.0000       5.331465       145.0765 
 705   0.0000       5.334007       145.1457 
 706   0.0000       5.338474       145.2673 
 707   0.0000       5.354628       145.7068 
 708   0.0000       5.373793       146.2284 
 709   0.0000       5.383573       146.4945 
 710   0.0000       5.389795       146.6638 
 711   0.0000       5.410680       147.2321 
 712   0.0000       5.430753       147.7783 
 713   0.0000       5.453155       148.3879 
 714   0.0000       5.466846       148.7604 
 715   0.0000       5.479564       149.1065 
 716   0.0000       5.489011       149.3636 
 717   0.0000       5.512275       149.9966 
 718   0.0000       5.514586       150.0595 
 719   0.0000       5.526705       150.3893 
 720   0.0000       5.531282       150.5138 
 721   0.0000       5.545662       150.9051 
 722   0.0000       5.554210       151.1377 
 723   0.0000       5.573840       151.6719 
 724   0.0000       5.580555       151.8546 
 725   0.0000       5.588193       152.0625 
 726   0.0000       5.608636       152.6187 
 727   0.0000       5.625796       153.0857 
 728   0.0000       5.632581       153.2703 
 729   0.0000       5.647550       153.6776 
 730   0.0000       5.649972       153.7436 
 731   0.0000       5.660649       154.0341 
 732   0.0000       5.673266       154.3774 
 733   0.0000       5.679250       154.5403 
 734   0.0000       5.710365       155.3869 
 735   0.0000       5.711551       155.4192 
 736   0.0000       5.723276       155.7383 
 737   0.0000       5.731010       155.9487 
 738   0.0000       5.738810       156.1610 
 739   0.0000       5.757450       156.6682 
 740   0.0000       5.770344       157.0191 
 741   0.0000       5.781385       157.3195 
 742   0.0000       5.785210       157.4236 
 743   0.0000       5.798903       157.7962 
 744   0.0000       5.820789       158.3917 
 745   0.0000       5.832513       158.7107 
 746   0.0000       5.855007       159.3228 
 747   0.0000       5.872399       159.7961 
 748   0.0000       5.883771       160.1056 
 749   0.0000       5.926745       161.2749 
 750   0.0000       5.932067       161.4197 
 751   0.0000       5.977153       162.6466 
 752   0.0000       5.984083       162.8352 
 753   0.0000       5.999380       163.2514 
 754   0.0000       6.012097       163.5975 
 755   0.0000       6.019311       163.7938 
 756   0.0000       6.058935       164.8720 
 757   0.0000       6.063643       165.0001 
 758   0.0000       6.085729       165.6011 
 759   0.0000       6.093912       165.8238 
 760   0.0000       6.099342       165.9715 
 761   0.0000       6.173992       168.0029 
 762   0.0000       6.207550       168.9160 
 763   0.0000       6.220372       169.2649 
 764   0.0000       6.229202       169.5052 
 765   0.0000       6.281666       170.9328 
 766   0.0000       6.308006       171.6496 
 767   0.0000       6.319267       171.9560 
 768   0.0000       6.333275       172.3372 
 769   0.0000       6.351847       172.8425 
 770   0.0000       6.372296       173.3990 
 771   0.0000       6.385077       173.7468 
 772   0.0000       6.408622       174.3875 
 773   0.0000       6.447216       175.4377 
 774   0.0000       6.461838       175.8355 
 775   0.0000       6.477184       176.2531 
 776   0.0000       6.503568       176.9711 
 777   0.0000       6.529203       177.6687 
 778   0.0000       6.560225       178.5128 
 779   0.0000       6.595878       179.4830 
 780   0.0000       6.609192       179.8453 
 781   0.0000       6.680767       181.7929 
 782   0.0000       6.705647       182.4699 
 783   0.0000       6.762864       184.0269 
 784   0.0000       6.822729       185.6559 
 785   0.0000       6.913669       188.1305 
 786   0.0000       6.924981       188.4383 
 787   0.0000       6.933084       188.6588 
 788   0.0000       7.000239       190.4862 
 789   0.0000       7.025474       191.1729 
 790   0.0000       7.055829       191.9989 
 791   0.0000       7.071268       192.4190 
 792   0.0000       7.085658       192.8105 
 793   0.0000       7.132593       194.0877 
 794   0.0000       7.184388       195.4971 
 795   0.0000       7.218065       196.4135 
 796   0.0000       7.263950       197.6621 
 797   0.0000       7.285310       198.2434 
 798   0.0000       7.344367       199.8504 
 799   0.0000       7.390158       201.0964 
 800   0.0000       7.421036       201.9367 
 801   0.0000       7.585957       206.4244 
 802   0.0000       7.587972       206.4792 
 803   0.0000       7.606296       206.9778 
 804   0.0000       7.690518       209.2696 
 805   0.0000       7.803776       212.3515 
 806   0.0000       7.821379       212.8306 
 807   0.0000       7.936404       215.9605 
 808   0.0000       7.949225       216.3094 
 809   0.0000       9.356773       254.6107 
 810   0.0000       9.586200       260.8538 
 811   0.0000      10.835240       294.8419 
 812   0.0000      11.261383       306.4378 
 813   0.0000      11.714082       318.7564 
 814   0.0000      12.582515       342.3876 
 815   0.0000      12.905010       351.1632 
 816   0.0000      12.924965       351.7062 
 817   0.0000      13.069373       355.6357 
 818   0.0000      13.172393       358.4390 
 819   0.0000      13.403034       364.7151 
 820   0.0000      13.481679       366.8551 
 821   0.0000      13.733524       373.7082 
 822   0.0000      13.941798       379.3756 
 823   0.0000      13.977669       380.3517 
 824   0.0000      14.084425       383.2567 
 825   0.0000      14.546187       395.8219 
 826   0.0000      14.717009       400.4702 
 827   0.0000      15.952709       434.0953 

                    ********************************
                    * MULLIKEN POPULATION ANALYSIS *
                    ********************************

-----------------------
MULLIKEN ATOMIC CHARGES
-----------------------
   0 C :   -0.294497
   1 C :    0.053281
   2 O :   -0.369503
   3 C :    0.440385
   4 O :   -0.412849
   5 C :   -0.171193
   6 C :    0.145245
   7 C :   -0.283678
   8 N :   -0.122996
   9 C :    0.201286
  10 S :   -0.440089
  11 N :   -0.199976
  12 C :    0.045306
  13 C :    0.052009
  14 C :   -0.168323
  15 C :   -0.134721
  16 C :   -0.280125
  17 C :    0.311988
  18 O :   -0.358771
  19 C :   -0.274783
  20 H :    0.117328
  21 H :    0.097943
  22 H :    0.110959
  23 H :    0.097081
  24 H :    0.085219
  25 H :    0.123412
  26 H :    0.129137
  27 H :    0.103072
  28 H :    0.196768
  29 H :    0.194142
  30 H :    0.154928
  31 H :    0.156375
  32 H :    0.160379
  33 H :    0.129094
  34 H :    0.240230
  35 H :    0.165935
Sum of atomic charges:    0.0000000

--------------------------------
MULLIKEN REDUCED ORBITAL CHARGES
--------------------------------
  0 C s       :     3.256293  s :     3.256293
      pz      :     1.019024  p :     2.960581
      px      :     1.022668
      py      :     0.918889
      dz2     :     0.021886  d :     0.073251
      dxz     :     0.008610
      dyz     :     0.012056
      dx2y2   :     0.013383
      dxy     :     0.017316
      f0      :     0.001198  f :     0.004372
      f+1     :     0.000308
      f-1     :     0.000511
      f+2     :     0.000581
      f-2     :     0.000130
      f+3     :     0.000376
      f-3     :     0.001268
  1 C s       :     3.176606  s :     3.176606
      pz      :     0.994941  p :     2.609035
      px      :     0.778453
      py      :     0.835641
      dz2     :     0.030807  d :     0.149856
      dxz     :     0.022144
      dyz     :     0.022475
      dx2y2   :     0.034827
      dxy     :     0.039602
      f0      :     0.001920  f :     0.011222
      f+1     :     0.000977
      f-1     :     0.000969
      f+2     :     0.000731
      f-2     :     0.001667
      f+3     :     0.002459
      f-3     :     0.002500
  2 O s       :     3.713160  s :     3.713160
      pz      :     1.637600  p :     4.624126
      px      :     1.320648
      py      :     1.665879
      dz2     :     0.004853  d :     0.029950
      dxz     :     0.007377
      dyz     :     0.003457
      dx2y2   :     0.005658
      dxy     :     0.008605
      f0      :     0.000248  f :     0.002267
      f+1     :     0.000444
      f-1     :     0.000110
      f+2     :     0.000445
      f-2     :     0.000311
      f+3     :     0.000322
      f-3     :     0.000389
[...]
 15 C s       :     2.705740  s :     2.705740
      pz      :     0.905515  p :     2.797259
      px      :     0.926071
      py      :     0.965673
      dz2     :     0.095328  d :     0.415928
      dxz     :     0.070233
      dyz     :     0.061556
      dx2y2   :     0.110695
      dxy     :     0.078118
      f0      :     0.003423  f :     0.041013
      f+1     :     0.005393
      f-1     :     0.006189
      f+2     :     0.007395
      f-2     :     0.006125
      f+3     :     0.006645
      f-3     :     0.005843
 16 C s       :     2.701842  s :     2.701842
      pz      :     0.938840  p :     2.869454
      px      :     0.955881
      py      :     0.974733
      dz2     :     0.045827  d :     0.391142
      dxz     :     0.056801
      dyz     :     0.090593
      dx2y2   :     0.094193
      dxy     :     0.103727
      f0      :     0.004173  f :     0.040337
      f+1     :     0.004525
      f-1     :     0.004537
      f+2     :     0.006367
      f-2     :     0.004928
      f+3     :     0.009154
      f-3     :     0.006652
 17 C s       :     2.701519  s :     2.701519
      pz      :     0.855946  p :     2.684367
      px      :     0.822253
      py      :     1.006169
      dz2     :     0.129127  d :     0.707979
      dxz     :     0.104243
      dyz     :     0.146132
      dx2y2   :     0.160616
      dxy     :     0.167860
      f0      :     0.009625  f :     0.099222
      f+1     :     0.015136
      f-1     :     0.010533
      f+2     :     0.016914
      f-2     :     0.013900
      f+3     :     0.017987
      f-3     :     0.015127
 18 O s       :     3.177307  s :     3.177307
      pz      :     1.421237  p :     4.348966
      px      :     1.419465
      py      :     1.508264
      dz2     :     0.008412  d :     0.075568
      dxz     :     0.016932
      dyz     :     0.019241
      dx2y2   :     0.013751
      dxy     :     0.017232
      f0      :     0.000601  f :     0.005077
      f+1     :     0.000688
      f-1     :     0.000461
      f+2     :     0.000687
      f-2     :     0.001053
      f+3     :     0.000751
      f-3     :     0.000836
 19 C s       :     2.695403  s :     2.695403
      pz      :     0.935917  p :     2.847430
      px      :     0.947618
      py      :     0.963895
      dz2     :     0.078149  d :     0.388425
      dxz     :     0.069157
      dyz     :     0.062587
      dx2y2   :     0.096969
      dxy     :     0.081562
      f0      :     0.003442  f :     0.040805
      f+1     :     0.005628
      f-1     :     0.005723
      f+2     :     0.007380
      f-2     :     0.006643
      f+3     :     0.006553
      f-3     :     0.005438
 20 H s       :     0.843860  s :     0.843860
      pz      :     0.045087  p :     0.151998
      px      :     0.061724
      py      :     0.045187
      dz2     :     0.005508  d :     0.027655
      dxz     :     0.005738
      dyz     :     0.003117
      dx2y2   :     0.006861
      dxy     :     0.006432
 21 H s       :     0.847369  s :     0.847369
      pz      :     0.041397  p :     0.151982
      px      :     0.062119
      py      :     0.048466
      dz2     :     0.003028  d :     0.027531
      dxz     :     0.006250
      dyz     :     0.002660
      dx2y2   :     0.008536
      dxy     :     0.007056
 22 H s       :     0.845457  s :     0.845457
      pz      :     0.073507  p :     0.151299
      px      :     0.040440
      py      :     0.037352
      dz2     :     0.009353  d :     0.027538
      dxz     :     0.009008
      dyz     :     0.008409
      dx2y2   :     0.000365
      dxy     :     0.000404
 23 H s       :     0.854410  s :     0.854410
      pz      :     0.078708  p :     0.144934
      px      :     0.030357
      py      :     0.035870
      dz2     :     0.009757  d :     0.026945
      dxz     :     0.007956
      dyz     :     0.008422
      dx2y2   :     0.000301
      dxy     :     0.000508
 24 H s       :     0.857657  s :     0.857657
      pz      :     0.047118  p :     0.146530
      px      :     0.059111
      py      :     0.040302
      dz2     :     0.005766  d :     0.027166
      dxz     :     0.006722
      dyz     :     0.002024
      dx2y2   :     0.005831
      dxy     :     0.006824
 25 H s       :     0.831205  s :     0.831205
      pz      :     0.038488  p :     0.151532
      px      :     0.070091
      py      :     0.042952
      dz2     :     0.002450  d :     0.027767
      dxz     :     0.008429
      dyz     :     0.000613
      dx2y2   :     0.008411
      dxy     :     0.007865
 26 H s       :     0.828841  s :     0.828841
      pz      :     0.065965  p :     0.150832
      px      :     0.042538
      py      :     0.042329
      dz2     :     0.009114  d :     0.027744
      dxz     :     0.007498
      dyz     :     0.007048
      dx2y2   :     0.002663
      dxy     :     0.001421
 27 H s       :     0.843247  s :     0.843247
      pz      :     0.037363  p :     0.150081
      px      :     0.039493
      py      :     0.073225
      dz2     :     0.002318  d :     0.027714
      dxz     :     0.000087
      dyz     :     0.009138
      dx2y2   :     0.006840
      dxy     :     0.009332
 28 H s       :     0.742942  s :     0.742942
      pz      :     0.061710  p :     0.254381
      px      :     0.077792
      py      :     0.114880
      dz2     :     0.005895  d :     0.061922
      dxz     :     0.002215
      dyz     :     0.017510
      dx2y2   :     0.016924
      dxy     :     0.019379
 29 H s       :     0.748541  s :     0.748541
      pz      :     0.110865  p :     0.253916
      px      :     0.100514
      py      :     0.042537
      dz2     :     0.020595  d :     0.061321
      dxz     :     0.015270
      dyz     :     0.009209
      dx2y2   :     0.009503
      dxy     :     0.006745
 30 H s       :     0.828147  s :     0.828147
      pz      :     0.041736  p :     0.148741
      px      :     0.060914
      py      :     0.046092
      dz2     :     0.003371  d :     0.028392
      dxz     :     0.006896
      dyz     :     0.003699
      dx2y2   :     0.006945
      dxy     :     0.007481
 31 H s       :     0.841452  s :     0.841452
      pz      :     0.053612  p :     0.155961
      px      :     0.062957
      py      :     0.039392
      dz2     :     0.005314  d :     0.027476
      dxz     :     0.006480
      dyz     :     0.003938
      dx2y2   :     0.005833
      dxy     :     0.005911
 32 H s       :     0.843211  s :     0.843211
      pz      :     0.037078  p :     0.151320
      px      :     0.038280
      py      :     0.075962
      dz2     :     0.002695  d :     0.026476
      dxz     :     0.000557
      dyz     :     0.007536
      dx2y2   :     0.007730
      dxy     :     0.007958
 33 H s       :     0.849257  s :     0.849257
      pz      :     0.059499  p :     0.159198
      px      :     0.050846
      py      :     0.048853
      dz2     :     0.006467  d :     0.027773
      dxz     :     0.005286
      dyz     :     0.005864
      dx2y2   :     0.005290
      dxy     :     0.004865
 34 H s       :     0.706981  s :     0.706981
      pz      :     0.116522  p :     0.348111
      px      :     0.089501
      py      :     0.142088
      dz2     :     0.024598  d :     0.099626
      dxz     :     0.013171
      dyz     :     0.023649
      dx2y2   :     0.019203
      dxy     :     0.019004
 35 H s       :     0.839647  s :     0.839647
      pz      :     0.039925  p :     0.157043
      px      :     0.040068
      py      :     0.077050
      dz2     :     0.002709  d :     0.028029
      dxz     :     0.000678
      dyz     :     0.008218
      dx2y2   :     0.007938
      dxy     :     0.008486


                      *****************************
                      * MAYER POPULATION ANALYSIS *
                      *****************************

  NA   - Mulliken gross atomic population
  ZA   - Total nuclear charge
  QA   - Mulliken gross atomic charge
  VA   - Mayer's total valence
  BVA  - Mayer's bonded valence
  FA   - Mayer's free valence

  ATOM       NA         ZA         QA         VA         BVA        FA
  0 C      6.2945     6.0000    -0.2945     3.8845     3.8845     0.0000
  1 C      5.9467     6.0000     0.0533     3.8857     3.8857     0.0000
  2 O      8.3695     8.0000    -0.3695     2.0288     2.0288     0.0000
  3 C      5.5596     6.0000     0.4404     4.2004     4.2004    -0.0000
  4 O      8.4128     8.0000    -0.4128     2.0932     2.0932    -0.0000
  5 C      6.1712     6.0000    -0.1712     3.6192     3.6192     0.0000
  6 C      5.8548     6.0000     0.1452     3.8371     3.8371     0.0000
  7 C      6.2837     6.0000    -0.2837     3.8957     3.8957    -0.0000
  8 N      7.1230     7.0000    -0.1230     3.2916     3.2916    -0.0000
  9 C      5.7987     6.0000     0.2013     4.1551     4.1551     0.0000
 10 S     16.4401    16.0000    -0.4401     1.7555     1.7555     0.0000
 11 N      7.2000     7.0000    -0.2000     3.2604     3.2604    -0.0000
 12 C      5.9547     6.0000     0.0453     3.9568     3.9568     0.0000
 13 C      5.9480     6.0000     0.0520     3.7367     3.7367    -0.0000
 14 C      6.1683     6.0000    -0.1683     3.8632     3.8632    -0.0000
 15 C      6.1347     6.0000    -0.1347     3.8059     3.8059    -0.0000
 16 C      6.2801     6.0000    -0.2801     3.7922     3.7922    -0.0000
 17 C      5.6880     6.0000     0.3120     3.8739     3.8739    -0.0000
 18 O      8.3588     8.0000    -0.3588     2.1156     2.1156     0.0000
 19 C      6.2748     6.0000    -0.2748     3.8519     3.8519    -0.0000
 20 H      0.8827     1.0000     0.1173     0.9847     0.9847    -0.0000
 21 H      0.9021     1.0000     0.0979     0.9795     0.9795     0.0000
 22 H      0.8890     1.0000     0.1110     0.9775     0.9775    -0.0000
 23 H      0.9029     1.0000     0.0971     0.9709     0.9709     0.0000
 24 H      0.9148     1.0000     0.0852     0.9678     0.9678     0.0000
 25 H      0.8766     1.0000     0.1234     0.9773     0.9773    -0.0000
 26 H      0.8709     1.0000     0.1291     0.9823     0.9823    -0.0000
 27 H      0.8969     1.0000     0.1031     0.9866     0.9866    -0.0000
 28 H      0.8032     1.0000     0.1968     1.0235     1.0235     0.0000
 29 H      0.8059     1.0000     0.1941     1.0182     1.0182    -0.0000
 30 H      0.8451     1.0000     0.1549     0.9958     0.9958    -0.0000
 31 H      0.8436     1.0000     0.1564     0.9890     0.9890    -0.0000
 32 H      0.8396     1.0000     0.1604     0.9770     0.9770     0.0000
 33 H      0.8709     1.0000     0.1291     0.9919     0.9919     0.0000
 34 H      0.7598     1.0000     0.2402     1.0109     1.0109     0.0000
 35 H      0.8341     1.0000     0.1659     0.9884     0.9884    -0.0000

  Mayer bond orders larger than 0.100000
B(  0-C ,  1-C ) :   0.9805 B(  0-C , 20-H ) :   0.9723 B(  0-C , 21-H ) :   0.9720 
B(  0-C , 22-H ) :   0.9718 B(  1-C ,  2-O ) :   0.9034 B(  1-C , 23-H ) :   0.9790 
B(  1-C , 24-H ) :   0.9758 B(  2-O ,  3-C ) :   1.1168 B(  3-C ,  4-O ) :   2.0080 
B(  3-C ,  5-C ) :   1.0342 B(  5-C ,  6-C ) :   1.6572 B(  5-C , 12-C ) :   0.9634 
B(  6-C ,  7-C ) :   0.9528 B(  6-C ,  8-N ) :   1.1439 B(  7-C , 25-H ) :   0.9654 
B(  7-C , 26-H ) :   0.9656 B(  7-C , 27-H ) :   0.9914 B(  8-N ,  9-C ) :   1.1810 
B(  8-N , 28-H ) :   0.9488 B(  9-C , 10-S ) :   1.6097 B(  9-C , 11-N ) :   1.3038 
B( 11-N , 12-C ) :   0.9899 B( 11-N , 29-H ) :   0.9518 B( 12-C , 13-C ) :   0.9444 
B( 12-C , 30-H ) :   0.9999 B( 13-C , 14-C ) :   1.3754 B( 13-C , 19-C ) :   1.3692 
B( 14-C , 15-C ) :   1.3944 B( 14-C , 31-H ) :   0.9639 B( 15-C , 16-C ) :   1.3619 
B( 15-C , 32-H ) :   0.9710 B( 16-C , 17-C ) :   1.3313 B( 16-C , 33-H ) :   0.9857 
B( 17-C , 18-O ) :   1.1085 B( 17-C , 19-C ) :   1.3773 B( 18-O , 34-H ) :   0.9804 
B( 19-C , 35-H ) :   0.9582 

-------
TIMINGS
-------

Total SCF time: 0 days 1 hours 55 min 26 sec 

Total time                  ....    6926.703 sec
Sum of individual times     ....    6918.860 sec  ( 99.9%)

Fock matrix formation       ....    6888.383 sec  ( 99.4%)
Diagonalization             ....       1.958 sec  (  0.0%)
Density matrix formation    ....       0.240 sec  (  0.0%)
Population analysis         ....       0.652 sec  (  0.0%)
Initial guess               ....       6.469 sec  (  0.1%)
Orbital Transformation      ....       0.000 sec  (  0.0%)
Orbital Orthonormalization  ....       0.000 sec  (  0.0%)
DIIS solution               ....      17.231 sec  (  0.2%)
SOSCF solution              ....       2.453 sec  (  0.0%)

Maximum memory used throughout the entire SCF-calculation: 731.9 MB

------------------------------------------------------------------------------
                                ORCA  MP2 
------------------------------------------------------------------------------

Freezing NCore=48 chemical core electrons

-------------
RI-MP2 ENERGY
-------------
Dimension of the basis                    ...  828
Memory devoted to MP2                     ...  256 MB   
Data format for buffers                   ... DOUBLE
Compression type for matrix containers    ... UNCOMPRESSED
Overall scaling of the MP2 energy         ...   1.000e+00
Calculating two index integrals           ... done (    0.046 sec)
Cholesky decomposition of V**-1           ... done (    0.738 sec)

-----------------
RI-TRANSFORMATION (AUX index driven)
-----------------

Dimension of the orbital-basis         ... 828
Dimension of the aux-basis             ... 2141
Transformation of internal/external MOs...   24-  76 to   77- 827
Number Format for Storage              ... Double (8 Byte)
Integral mode                          ... Direct

First Phase: integral generation and transformation of MO indices
  Aux angular momentum 0               ... done (    6.128 sec)
  Aux angular momentum 1               ... done (    9.015 sec)
  Aux angular momentum 2               ... done (   12.033 sec)
  Aux angular momentum 3               ... done (    9.788 sec)
  Aux angular momentum 4               ... done (    3.159 sec)
Closing buffer VIA ( 0.63 GB; CompressionRatio= 1.00)
  Phase 1 completed in    40.562 sec
Second Phase: sorting and transformation of aux index

IA-Transformation
Memory available                       ... 157 MB 
Max. # MO pairs treated in a batch     ... 11    
# of internal orbitals                 ... 53
# batches for internal orbitals        ... 5
Closing buffer IAV ( 0.63 GB; CompressionRatio= 1.00)
(ia|v) transformation done in    36.374 sec

  Phase 2 completed in    36.384 sec
RI-Integral transformation completed in    76.953 sec
Opening buffers                              ... done

Starting loop over batches of integrals:

Operator 0  - window                       ... ( 24- 76)x( 77-827)
Operator 0  - Memory available             ...   256 MB
Operator 0  - Memory needed per MO         ...  12.3 MB
Operator 0  - Number of orbitals per batch ... 13
Operator 0  - Number of batches            ... 5

OPERATOR  0   PASS   0:  MOs    24 ...   36
  Reading integrals       ... ok
  Internal MO  26
  Internal MO  29
  Internal MO  32
  Internal MO  35
OPERATOR  0   PASS   1:  MOs    37 ...   49
  Reading integrals       ... ok
  Internal MO  38
  Internal MO  41
  Internal MO  44
  Internal MO  47
OPERATOR  0   PASS   2:  MOs    50 ...   62
  Reading integrals       ... ok
  Internal MO  50
  Internal MO  53
  Internal MO  56
  Internal MO  59
  Internal MO  62
OPERATOR  0   PASS   3:  MOs    63 ...   75
  Reading integrals       ... ok
  Internal MO  65
  Internal MO  68
  Internal MO  71
  Internal MO  74
OPERATOR  0   PASS   4:  MOs    76 ...   76
  Reading integrals       ... ok
Time spent in pair loops =   108.006 sec
Deleting buffer (Ka|jb)[aa] ...done

-----------------------------------------------
 RI-MP2 CORRELATION ENERGY:     -3.531460426 Eh
-----------------------------------------------


-------
TIMINGS
-------

Total time                :  185.876 sec
Integral trafo            :   76.992 sec ( 41.4%)
I/O of integrals          :    4.758 sec (  2.6%)
K(i,j) Operators          :   65.676 sec ( 35.3%)
T(i,j) pair energies      :    9.248 sec (  5.0%)
V-calculation             :    0.046 sec (  0.0%)
V**(-1/2)                 :    0.738 sec (  0.4%)
Gamma(ia|P)               :    0.000 sec (  0.0%)
Gamma-Trafo               :    0.000 sec (  0.0%)
D(virtual)                :    0.000 sec (  0.0%)
D(internal)               :    0.000 sec (  0.0%)
W(virtual)                :    0.000 sec (  0.0%)
W(internal)               :    0.000 sec (  0.0%)
L(virtual)                :    0.000 sec (  0.0%)
L(internal)               :    0.000 sec (  0.0%)
G(D)                      :    0.000 sec (  0.0%)
G(Z)                      :    0.000 sec (  0.0%)
Z-Vector Solution         :    0.000 sec (  0.0%)
3-Index Derivative        :    0.000 sec (  0.0%)
2-Index Derivative        :    0.000 sec (  0.0%)
Separable Gradient        :    0.000 sec (  0.0%)


---------------------------------------
MP2 TOTAL ENERGY:    -1274.333495911 Eh
---------------------------------------

Maximum memory used throughout the entire MP2-calculation: 304.0 MB

-------------------------   --------------------
FINAL SINGLE POINT ENERGY     -1274.333495911442
-------------------------   --------------------


                            ***************************************
                            *     ORCA property calculations      *
                            ***************************************


  WARNING: The energy has been calculated at the MP2 level but the densities
           used in the property calculations are still SCF densities
           MP2 response densities have not been calculated 
           use %mp2 Density relaxed end
           or  %mp2 Density unrelaxed end

                                    ---------------------
                                    Active property flags
                                    ---------------------
   (+) Dipole Moment


------------------------------------------------------------------------------
                       ORCA ELECTRIC PROPERTIES CALCULATION
------------------------------------------------------------------------------

Dipole Moment Calculation                       ... on
Quadrupole Moment Calculation                   ... off
Polarizability Calculation                      ... off
GBWName                                         ... CONFS/Conf439.orca.gbw
Electron density file                           ... CONFS/Conf439.orca.scfp
The origin for moment calculation is the CENTER OF MASS  = (32.864989, 31.537974 35.393627)

-------------
DIPOLE MOMENT
-------------
                                X             Y             Z
Electronic contribution:     10.04157      10.45626       8.93615
Nuclear contribution   :    -11.67315     -11.69033      -9.84937
                        -----------------------------------------
Total Dipole Moment    :     -1.63157      -1.23408      -0.91322
                        -----------------------------------------
Magnitude (a.u.)       :      2.24030
Magnitude (Debye)      :      5.69439



--------------------
Rotational spectrum 
--------------------
 
Rotational constants in cm-1:     0.011139     0.009120     0.006137 
Rotational constants in MHz :   333.940014   273.399090   183.971276 

 Dipole components along the rotational axes: 
x,y,z [a.u.] :    -2.007564    -0.432383     0.895368 
x,y,z [Debye]:    -5.102821    -1.099029     2.275844 

 

Timings for individual modules:

Sum of individual times         ...     7116.964 sec (= 118.616 min)
GTO integral calculation        ...        3.009 sec (=   0.050 min)   0.0 %
SCF iterations                  ...     6926.987 sec (= 115.450 min)  97.3 %
MP2 module                      ...      186.969 sec (=   3.116 min)   2.6 %
                             ****ORCA TERMINATED NORMALLY****
TOTAL RUN TIME: 0 days 1 hours 58 minutes 39 seconds 99 msec
