
                                        *****************
                                        * O   R   C   A *
                                        *****************

                                            #,                                       
                                            ###                                      
                                            ####                                     
                                            #####                                    
                                            ######                                   
                                           ########,                                 
                                     ,,################,,,,,                         
                               ,,#################################,,                 
                          ,,##########################################,,             
                       ,#########################################, ''#####,          
                    ,#############################################,,   '####,        
                  ,##################################################,,,,####,       
                ,###########''''           ''''###############################       
              ,#####''   ,,,,##########,,,,          '''####'''          '####       
            ,##' ,,,,###########################,,,                        '##       
           ' ,,###''''                  '''############,,,                           
         ,,##''                                '''############,,,,        ,,,,,,###''
      ,#''                                            '''#######################'''  
     '                                                          ''''####''''         
             ,#######,   #######,   ,#######,      ##                                
            ,#'     '#,  ##    ##  ,#'     '#,    #''#        ######   ,####,        
            ##       ##  ##   ,#'  ##            #'  '#       #        #'  '#        
            ##       ##  #######   ##           ,######,      #####,   #    #        
            '#,     ,#'  ##    ##  '#,     ,#' ,#      #,         ##   #,  ,#        
             '#######'   ##     ##  '#######'  #'      '#     #####' # '####'        



                  #######################################################
                  #                        -***-                        #
                  #          Department of theory and spectroscopy      #
                  #    Directorship and core code : Frank Neese         #
                  #        Max Planck Institute fuer Kohlenforschung    #
                  #                Kaiser Wilhelm Platz 1               #
                  #                 D-45470 Muelheim/Ruhr               #
                  #                      Germany                        #
                  #                                                     #
                  #                  All rights reserved                #
                  #                        -***-                        #
                  #######################################################


                         Program Version 5.0.0 -  RELEASE  -
                                (SVN: $Rev: 19529$)
                ($Date: 2021-06-28 11:36:33 +0200 (Mo, 28 Jun 2021) $)


 With contributions from (in alphabetic order):
   Daniel Aravena         : Magnetic Suceptibility
   Michael Atanasov       : Ab Initio Ligand Field Theory (pilot matlab implementation)
   Alexander A. Auer      : GIAO ZORA, VPT2 properties, NMR spectrum
   Ute Becker             : Parallelization
   Giovanni Bistoni       : ED, misc. LED, open-shell LED, HFLD
   Martin Brehm           : Molecular dynamics
   Dmytro Bykov           : SCF Hessian
   Vijay G. Chilkuri      : MRCI spin determinant printing, contributions to CSF-ICE
   Dipayan Datta          : RHF DLPNO-CCSD density
   Achintya Kumar Dutta   : EOM-CC, STEOM-CC
   Dmitry Ganyushin       : Spin-Orbit,Spin-Spin,Magnetic field MRCI
   Miquel Garcia          : C-PCM Hessian, Gaussian charge scheme
   Yang Guo               : DLPNO-NEVPT2, F12-NEVPT2, CIM, IAO-localization
   Andreas Hansen         : Spin unrestricted coupled pair/coupled cluster methods
   Benjamin Helmich-Paris : MC-RPA, TRAH-SCF, COSX integrals
   Lee Huntington         : MR-EOM, pCC
   Robert Izsak           : Overlap fitted RIJCOSX, COSX-SCS-MP3, EOM
   Marcus Kettner         : VPT2
   Christian Kollmar      : KDIIS, OOCD, Brueckner-CCSD(T), CCSD density, CASPT2, CASPT2-K
   Simone Kossmann        : Meta GGA functionals, TD-DFT gradient, OOMP2, MP2 Hessian
   Martin Krupicka        : Initial AUTO-CI
   Lucas Lang             : DCDCAS
   Marvin Lechner         : AUTO-CI (C++ implementation), FIC-MRCC
   Dagmar Lenk            : GEPOL surface, SMD
   Dimitrios Liakos       : Extrapolation schemes; Compound Job, initial MDCI parallelization
   Dimitrios Manganas     : Further ROCIS development; embedding schemes
   Dimitrios Pantazis     : SARC Basis sets
   Anastasios Papadopoulos: AUTO-CI, single reference methods and gradients
   Taras Petrenko         : DFT Hessian,TD-DFT gradient, ASA, ECA, R-Raman, ABS, FL, XAS/XES, NRVS
   Peter Pinski           : DLPNO-MP2, DLPNO-MP2 Gradient
   Christoph Reimann      : Effective Core Potentials
   Marius Retegan         : Local ZFS, SOC
   Christoph Riplinger    : Optimizer, TS searches, QM/MM, DLPNO-CCSD(T), (RO)-DLPNO pert. Triples
   Tobias Risthaus        : Range-separated hybrids, TD-DFT gradient, RPA, STAB
   Michael Roemelt        : Original ROCIS implementation
   Masaaki Saitow         : Open-shell DLPNO-CCSD energy and density
   Barbara Sandhoefer     : DKH picture change effects
   Avijit Sen             : IP-ROCIS
   Kantharuban Sivalingam : CASSCF convergence, NEVPT2, FIC-MRCI
   Bernardo de Souza      : ESD, SOC TD-DFT
   Georgi Stoychev        : AutoAux, RI-MP2 NMR
   Willem Van den Heuvel  : Paramagnetic NMR
   Boris Wezisla          : Elementary symmetry handling
   Frank Wennmohs         : Technical directorship


 We gratefully acknowledge several colleagues who have allowed us to
 interface, adapt or use parts of their codes:
   Stefan Grimme, W. Hujo, H. Kruse, P. Pracht,  : VdW corrections, initial TS optimization,
                  C. Bannwarth, S. Ehlert          DFT functionals, gCP, sTDA/sTD-DF
   Ed Valeev, F. Pavosevic, A. Kumar             : LibInt (2-el integral package), F12 methods
   Garnet Chan, S. Sharma, J. Yang, R. Olivares  : DMRG
   Ulf Ekstrom                                   : XCFun DFT Library
   Mihaly Kallay                                 : mrcc  (arbitrary order and MRCC methods)
   Jiri Pittner, Ondrej Demel                    : Mk-CCSD
   Frank Weinhold                                : gennbo (NPA and NBO analysis)
   Christopher J. Cramer and Donald G. Truhlar   : smd solvation model
   Lars Goerigk                                  : TD-DFT with DH, B97 family of functionals
   V. Asgeirsson, H. Jonsson                     : NEB implementation
   FAccTs GmbH                                   : IRC, NEB, NEB-TS, DLPNO-Multilevel, CI-OPT
                                                   MM, QMMM, 2- and 3-layer-ONIOM, Crystal-QMMM,
                                                   LR-CPCM, SF, NACMEs, symmetry and pop. for TD-DFT,
                                                   nearIR, NL-DFT gradient (VV10), updates on ESD,
                                                   ML-optimized integration grids
   S Lehtola, MJT Oliveira, MAL Marques          : LibXC Library
   Liviu Ungur et al                             : ANISO software


 Your calculation uses the libint2 library for the computation of 2-el integrals
 For citations please refer to: http://libint.valeyev.net

 Your ORCA version has been built with support for libXC version: 5.1.0
 For citations please refer to: https://tddft.org/programs/libxc/

 This ORCA versions uses:
   CBLAS   interface :  Fast vector & matrix operations
   LAPACKE interface :  Fast linear algebra routines
   SCALAPACK package :  Parallel linear algebra routines
   Shared memory     :  Shared parallel matrices
   BLAS/LAPACK       :  OpenBLAS 0.3.15  USE64BITINT DYNAMIC_ARCH NO_AFFINITY Zen SINGLE_THREADED
        Core in use  :  Zen
   Copyright (c) 2011-2014, The OpenBLAS Project


================================================================================

----- Orbital basis set information -----
Your calculation utilizes the basis: cc-pVTZ 
       H, B-Ne : Obtained from the ccRepo (grant-hill.group.shef.ac.uk/ccrepo) Feb. 2017
                 T. H. Dunning, Jr., J. Chem. Phys. 90, 1007 (1989)
            He : Obtained from the ccRepo (grant-hill.group.shef.ac.uk/ccrepo) Feb. 2017
                 D. E. Woon, T. H. Dunning, Jr., J. Chem. Phys. 100, 2975 (1994)
  Li-Be, Na-Mg : Obtained from the ccRepo (grant-hill.group.shef.ac.uk/ccrepo) Feb. 2017
                 B. P. Prascher, D. E. Woon, K. A. Peterson, T. H. Dunning, Jr., A. K. Wilson, Theor. Chem. Acc. 128, 69 (2011)
         Al-Ar : Obtained from the ccRepo (grant-hill.group.shef.ac.uk/ccrepo) Feb. 2017
                 D. E. Woon, T. H. Dunning, Jr., J. Chem. Phys. 98, 1358 (1993)
            Ca : Obtained from the Peterson Research Group Website (tyr0.chem.wsu.edu/~kipeters) Feb. 2017
                 J. Koput, K. A. Peterson, J. Phys. Chem. 106, 9595 (2002)
         Sc-Zn : Obtained from the ccRepo (grant-hill.group.shef.ac.uk/ccrepo) Feb. 2017
                 N. B. Balabanov, K. A. Peterson, J. Chem. Phys. 123, 064107 (2005)
                 N. B. Balabanov, K. A. Peterson, J. Chem. Phys. 125, 074110 (2006)
         Ga-Kr : Obtained from the ccRepo (grant-hill.group.shef.ac.uk/ccrepo) Feb. 2017
                 A. K. Wilson, D. E. Woon, K. A. Peterson, T. H. Dunning, Jr., J. Chem. Phys. 110, 7667 (1999)
             Y : Obtained from the ccRepo (grant-hill.group.shef.ac.uk/ccrepo) Feb. 2017
                 K. A. Peterson, D. Figgen, M. Dolg, H. Stoll, J. Chem. Phys. 126, 124101 (2007)
        Ag, Au : Obtained from the Peterson Research Group Website (tyr0.chem.wsu.edu/~kipeters) Feb. 2017
                 K. A. Peterson, C. Puzzarini, Theor. Chem. Acc. 114, 283 (2005)

----- AuxC basis set information -----
Your calculation utilizes the auxiliary basis: cc-pVTZ/C 
  Obtained from the EMSL Basis Set Exchange (bse.pnl.gov) Feb. 2017
  H-He, B-F, Al-Ar, Ga-Kr : F. Weigend, A. Kohn, C. Hattig, J. Chem. Phys. 116, 3175 (2002)
             Li-Be, Na-Mg : C. Haettig, Phys. Chem. Chem. Phys. 7, 59 (2005)
                       Ne : C. Haettig, Phys. Chem. Chem. Phys. 7, 59 (2005)
                            F. Weigend, A. Kohn, C. Hattig, J. Chem. Phys. 116, 3175 (2002)
                    Sc-Zn : J. G. Hill, J. A. Platts, J. Chem. Phys. 128, 044104 (2008)

================================================================================
                                        WARNINGS
                       Please study these warnings very carefully!
================================================================================


WARNING: No MP2 level density has been requested!
         To caclulate MP2 level properties use
         %mp2 Density relaxed end
         or
         %mp2 Density unrelaxed end

WARNING: Post HF methods need fully converged wavefunctions
  ===> : Setting SCFConvForced true
         You can overwrite this default with %scf ConvForced false 


INFO   : the flag for use of the SHARK integral package has been found!

================================================================================
                                       INPUT FILE
================================================================================
NAME = CONFS/Conf894.orca
|  1> ! ri-mp2 cc-pvtz cc-pvtz/c TightSCF NoKeepInts
|  2> 
|  3> %scf
|  4>   MaxCore 4096
|  5> end
|  6> *xyz  0  1
|  7>     C       15.8231798   13.1510811   16.1747922
|  8>     C       15.5509545   14.5516493   16.7475965
|  9>     O       16.7305557   15.3429413   16.5236061
| 10>     C       16.6015412   16.6998137   16.4508865
| 11>     O       15.6641623   17.2204506   15.8711775
| 12>     C       17.4927731   17.4188918   17.4271299
| 13>     C       17.4893419   18.7705265   17.5535025
| 14>     C       16.6373889   19.7609602   16.7886674
| 15>     N       18.3702563   19.3942750   18.4420685
| 16>     C       19.3566141   18.7558694   19.1451789
| 17>     S       20.4262510   19.5816912   20.0989448
| 18>     N       19.4170030   17.3921188   19.0135971
| 19>     C       18.4305627   16.5636847   18.2969541
| 20>     C       17.6651869   15.7023908   19.2977244
| 21>     C       17.8913629   14.3144118   19.3603648
| 22>     C       17.1804124   13.5144398   20.2705783
| 23>     C       16.2391726   14.1074814   21.1291745
| 24>     C       16.0173823   15.4904052   21.0752763
| 25>     O       15.1101547   16.0660607   21.9036151
| 26>     C       16.7246905   16.2836194   20.1666649
| 27>     H       14.9484237   12.5037075   16.3105734
| 28>     H       16.6775456   12.6861975   16.6819194
| 29>     H       16.0447650   13.2093696   15.1017757
| 30>     H       14.6835373   14.9795104   16.2264274
| 31>     H       15.3216921   14.4978371   17.8201676
| 32>     H       15.5739557   19.6062217   17.0120290
| 33>     H       16.7665019   19.6283223   15.7069522
| 34>     H       16.8775697   20.8046384   17.0229776
| 35>     H       18.3423573   20.3957486   18.5488932
| 36>     H       20.1329151   16.9462958   19.5726814
| 37>     H       18.9890051   15.8977928   17.6239069
| 38>     H       18.6147493   13.8527260   18.6934800
| 39>     H       17.3606742   12.4414538   20.3095972
| 40>     H       15.6886312   13.4941864   21.8350730
| 41>     H       14.7632175   15.3725265   22.4847116
| 42>     H       16.5425125   17.3527029   20.1453343
| 43> *
| 44> 
| 45>                          ****END OF INPUT****
================================================================================

                       ****************************
                       * Single Point Calculation *
                       ****************************

---------------------------------
CARTESIAN COORDINATES (ANGSTROEM)
---------------------------------
  C     15.823180   13.151081   16.174792
  C     15.550954   14.551649   16.747597
  O     16.730556   15.342941   16.523606
  C     16.601541   16.699814   16.450886
  O     15.664162   17.220451   15.871177
  C     17.492773   17.418892   17.427130
  C     17.489342   18.770526   17.553503
  C     16.637389   19.760960   16.788667
  N     18.370256   19.394275   18.442069
  C     19.356614   18.755869   19.145179
  S     20.426251   19.581691   20.098945
  N     19.417003   17.392119   19.013597
  C     18.430563   16.563685   18.296954
  C     17.665187   15.702391   19.297724
  C     17.891363   14.314412   19.360365
  C     17.180412   13.514440   20.270578
  C     16.239173   14.107481   21.129175
  C     16.017382   15.490405   21.075276
  O     15.110155   16.066061   21.903615
  C     16.724691   16.283619   20.166665
  H     14.948424   12.503707   16.310573
  H     16.677546   12.686198   16.681919
  H     16.044765   13.209370   15.101776
  H     14.683537   14.979510   16.226427
  H     15.321692   14.497837   17.820168
  H     15.573956   19.606222   17.012029
  H     16.766502   19.628322   15.706952
  H     16.877570   20.804638   17.022978
  H     18.342357   20.395749   18.548893
  H     20.132915   16.946296   19.572681
  H     18.989005   15.897793   17.623907
  H     18.614749   13.852726   18.693480
  H     17.360674   12.441454   20.309597
  H     15.688631   13.494186   21.835073
  H     14.763217   15.372526   22.484712
  H     16.542513   17.352703   20.145334

----------------------------
CARTESIAN COORDINATES (A.U.)
----------------------------
  NO LB      ZA    FRAG     MASS         X           Y           Z
   0 C     6.0000    0    12.011   29.901476   24.851942   30.565928
   1 C     6.0000    0    12.011   29.387045   27.498632   31.648371
   2 O     8.0000    0    15.999   31.616168   28.993957   31.225090
   3 C     6.0000    0    12.011   31.372366   31.558074   31.087670
   4 O     8.0000    0    15.999   29.600977   32.541936   29.992179
   5 C     6.0000    0    12.011   33.056550   32.916935   32.932503
   6 C     6.0000    0    12.011   33.050066   35.471154   33.171312
   7 C     6.0000    0    12.011   31.440109   37.342803   31.725984
   8 N     7.0000    0    14.007   34.714753   36.649868   34.850459
   9 C     6.0000    0    12.011   36.578700   35.443457   36.179145
  10 S    16.0000    0    32.060   38.600020   37.004034   37.981501
  11 N     7.0000    0    14.007   36.692818   32.866341   35.930491
  12 C     6.0000    0    12.011   34.828716   31.300828   34.576232
  13 C     6.0000    0    12.011   33.382365   29.673218   36.467414
  14 C     6.0000    0    12.011   33.809776   27.050318   36.585787
  15 C     6.0000    0    12.011   32.466274   25.538590   38.305842
  16 C     6.0000    0    12.011   30.687589   26.659276   39.928353
  17 C     6.0000    0    12.011   30.268466   29.272624   39.826500
  18 O     8.0000    0    15.999   28.554054   30.360455   41.391834
  19 C     6.0000    0    12.011   31.605085   30.771581   38.109474
  20 H     1.0000    0     1.008   28.248427   23.628583   30.822517
  21 H     1.0000    0     1.008   31.515994   23.973439   31.524259
  22 H     1.0000    0     1.008   30.320212   24.962091   28.538220
  23 H     1.0000    0     1.008   27.747864   28.307172   30.663504
  24 H     1.0000    0     1.008   28.953802   27.396942   33.675236
  25 H     1.0000    0     1.008   29.430511   37.050390   32.148076
  26 H     1.0000    0     1.008   31.684097   37.092154   29.681838
  27 H     1.0000    0     1.008   31.893985   39.315069   32.168766
  28 H     1.0000    0     1.008   34.662032   38.542379   35.052328
  29 H     1.0000    0     1.008   38.045696   32.023858   36.987008
  30 H     1.0000    0     1.008   35.884019   30.042475   33.304357
  31 H     1.0000    0     1.008   35.176778   26.177858   35.325558
  32 H     1.0000    0     1.008   32.806920   23.510940   38.379577
  33 H     1.0000    0     1.008   29.647216   25.500317   41.262308
  34 H     1.0000    0     1.008   27.898438   29.049865   42.489947
  35 H     1.0000    0     1.008   31.260818   32.791856   38.069165

--------------------------------
INTERNAL COORDINATES (ANGSTROEM)
--------------------------------
 C      0   0   0     0.000000000000     0.00000000     0.00000000
 C      1   0   0     1.537466312772     0.00000000     0.00000000
 O      2   1   0     1.437975562935   107.33774714     0.00000000
 C      3   2   1     1.364930617766   118.54146363   155.01474492
 O      4   3   2     1.218935809831   121.50871792   319.72683791
 C      4   3   2     1.504798587692   112.61213660   124.90508744
 C      6   4   3     1.357533855713   122.32191350   182.28255881
 C      7   6   4     1.513854536769   127.28603443     0.23874976
 N      7   6   4     1.398077933356   120.11785222   182.25385527
 C      9   7   6     1.369243460572   124.90686897     6.07788867
 S     10   9   7     1.654017574030   121.94936091   175.70551824
 N     10   9   7     1.371413974092   116.49333368   355.98615846
 C     12  10   9     1.474091148117   125.17209405   353.33425603
 C     13  12  10     1.526161358037   109.50978435   248.38511419
 C     14  13  12     1.407680754692   120.33509541   251.63604844
 C     15  14  13     1.404953532974   120.59380941   180.62238388
 C     16  15  14     1.405282226134   119.63494649   359.74810264
 C     17  16  15     1.401632687170   119.92504669   359.85540538
 O     18  17  16     1.356682107374   120.06511756   180.05357917
 C     18  17  16     1.398230429178   120.30938733     0.26295563
 H      1   2   3     1.096689266264   110.51057291   180.51259182
 H      1   2   3     1.096920999315   110.59357428    60.61002995
 H      1   2   3     1.097206434252   110.59218291   300.39011599
 H      2   1   3     1.098678729449   108.53106662   120.11984969
 H      2   1   3     1.098119194568   110.86833941   239.21384942
 H      8   7   6     1.097599461825   110.49983171    63.61998095
 H      8   7   6     1.097438268513   110.65270158   304.90914554
 H      8   7   6     1.096290231493   113.05236340   184.32690435
 H      9   7   6     1.007541186368   119.56421422   181.76006311
 H     12  10   9     1.011861421718   114.59974151   182.24929657
 H     13  12  10     1.099209929918   107.34685380   130.98923881
 H     15  14  13     1.086819671380   119.90064537     0.02599126
 H     16  15  14     1.088722070729   120.03958883   179.84239922
 H     17  16  15     1.085135605554   119.91772787   180.09796384
 H     19  18  17     0.969034699908   107.56990660     3.21813960
 H     20  18  17     1.084704267601   119.14016701   180.37376393

---------------------------
INTERNAL COORDINATES (A.U.)
---------------------------
 C      0   0   0     0.000000000000     0.00000000     0.00000000
 C      1   0   0     2.905390271269     0.00000000     0.00000000
 O      2   1   0     2.717380001218   107.33774714     0.00000000
 C      3   2   1     2.579345059382   118.54146363   155.01474492
 O      4   3   2     2.303454855410   121.50871792   319.72683791
 C      4   3   2     2.843657217450   112.61213660   124.90508744
 C      6   4   3     2.565367204825   122.32191350   182.28255881
 C      7   6   4     2.860770481088   127.28603443     0.23874976
 N      7   6   4     2.641984407921   120.11785222   182.25385527
 C      9   7   6     2.587495151144   124.90686897     6.07788867
 S     10   9   7     3.125640235609   121.94936091   175.70551824
 N     10   9   7     2.591596827266   116.49333368   355.98615846
 C     12  10   9     2.785628566378   125.17209405   353.33425603
 C     13  12  10     2.884027002863   109.50978435   248.38511419
 C     14  13  12     2.660131110359   120.33509541   251.63604844
 C     15  14  13     2.654977408206   120.59380941   180.62238388
 C     16  15  14     2.655598548261   119.63494649   359.74810264
 C     17  16  15     2.648701919104   119.92504669   359.85540538
 O     18  17  16     2.563757633727   120.06511756   180.05357917
 C     18  17  16     2.642272583261   120.30938733     0.26295563
 H      1   2   3     2.072442367249   110.51057291   180.51259182
 H      1   2   3     2.072880279253   110.59357428    60.61002995
 H      1   2   3     2.073419673112   110.59218291   300.39011599
 H      2   1   3     2.076201907823   108.53106662   120.11984969
 H      2   1   3     2.075144540135   110.86833941   239.21384942
 H      8   7   6     2.074162387589   110.49983171    63.61998095
 H      8   7   6     2.073857776374   110.65270158   304.90914554
 H      8   7   6     2.071688300816   113.05236340   184.32690435
 H      9   7   6     1.903976910882   119.56421422   181.76006311
 H     12  10   9     1.912140972528   114.59974151   182.24929657
 H     13  12  10     2.077205731233   107.34685380   130.98923881
 H     15  14  13     2.053791535866   119.90064537     0.02599126
 H     16  15  14     2.057386549633   120.03958883   179.84239922
 H     17  16  15     2.050609112664   119.91772787   180.09796384
 H     19  18  17     1.831210197093   107.56990660     3.21813960
 H     20  18  17     2.049794002062   119.14016701   180.37376393

---------------------
BASIS SET INFORMATION
---------------------
There are 5 groups of distinct atoms

 Group   1 Type C   : 18s5p2d1f contracted to 4s3p2d1f pattern {8811/311/11/1}
 Group   2 Type O   : 18s5p2d1f contracted to 4s3p2d1f pattern {8811/311/11/1}
 Group   3 Type N   : 18s5p2d1f contracted to 4s3p2d1f pattern {8811/311/11/1}
 Group   4 Type S   : 41s16p2d1f contracted to 5s4p2d1f pattern {13131311/7711/11/1}
 Group   5 Type H   : 5s2p1d contracted to 3s2p1d pattern {311/11/1}

Atom   0C    basis set group =>   1
Atom   1C    basis set group =>   1
Atom   2O    basis set group =>   2
Atom   3C    basis set group =>   1
Atom   4O    basis set group =>   2
Atom   5C    basis set group =>   1
Atom   6C    basis set group =>   1
Atom   7C    basis set group =>   1
Atom   8N    basis set group =>   3
Atom   9C    basis set group =>   1
Atom  10S    basis set group =>   4
Atom  11N    basis set group =>   3
Atom  12C    basis set group =>   1
Atom  13C    basis set group =>   1
Atom  14C    basis set group =>   1
Atom  15C    basis set group =>   1
Atom  16C    basis set group =>   1
Atom  17C    basis set group =>   1
Atom  18O    basis set group =>   2
Atom  19C    basis set group =>   1
Atom  20H    basis set group =>   5
Atom  21H    basis set group =>   5
Atom  22H    basis set group =>   5
Atom  23H    basis set group =>   5
Atom  24H    basis set group =>   5
Atom  25H    basis set group =>   5
Atom  26H    basis set group =>   5
Atom  27H    basis set group =>   5
Atom  28H    basis set group =>   5
Atom  29H    basis set group =>   5
Atom  30H    basis set group =>   5
Atom  31H    basis set group =>   5
Atom  32H    basis set group =>   5
Atom  33H    basis set group =>   5
Atom  34H    basis set group =>   5
Atom  35H    basis set group =>   5
---------------------------------
AUXILIARY/C BASIS SET INFORMATION
---------------------------------
There are 5 groups of distinct atoms

 Group   1 Type C   : 8s6p5d3f1g contracted to 8s6p5d3f1g pattern {11111111/111111/11111/111/1}
 Group   2 Type O   : 8s6p5d3f1g contracted to 8s6p5d3f1g pattern {11111111/111111/11111/111/1}
 Group   3 Type N   : 8s6p5d3f1g contracted to 8s6p5d3f1g pattern {11111111/111111/11111/111/1}
 Group   4 Type S   : 10s8p7d5f2g contracted to 10s8p7d5f2g pattern {1111111111/11111111/1111111/11111/11}
 Group   5 Type H   : 4s3p2d1f contracted to 4s3p2d1f pattern {1111/111/11/1}

Atom   0C    basis set group =>   1
Atom   1C    basis set group =>   1
Atom   2O    basis set group =>   2
Atom   3C    basis set group =>   1
Atom   4O    basis set group =>   2
Atom   5C    basis set group =>   1
Atom   6C    basis set group =>   1
Atom   7C    basis set group =>   1
Atom   8N    basis set group =>   3
Atom   9C    basis set group =>   1
Atom  10S    basis set group =>   4
Atom  11N    basis set group =>   3
Atom  12C    basis set group =>   1
Atom  13C    basis set group =>   1
Atom  14C    basis set group =>   1
Atom  15C    basis set group =>   1
Atom  16C    basis set group =>   1
Atom  17C    basis set group =>   1
Atom  18O    basis set group =>   2
Atom  19C    basis set group =>   1
Atom  20H    basis set group =>   5
Atom  21H    basis set group =>   5
Atom  22H    basis set group =>   5
Atom  23H    basis set group =>   5
Atom  24H    basis set group =>   5
Atom  25H    basis set group =>   5
Atom  26H    basis set group =>   5
Atom  27H    basis set group =>   5
Atom  28H    basis set group =>   5
Atom  29H    basis set group =>   5
Atom  30H    basis set group =>   5
Atom  31H    basis set group =>   5
Atom  32H    basis set group =>   5
Atom  33H    basis set group =>   5
Atom  34H    basis set group =>   5
Atom  35H    basis set group =>   5
------------------------------------------------------------------------------
                           ORCA GTO INTEGRAL CALCULATION
------------------------------------------------------------------------------
------------------------------------------------------------------------------
                   ___                                                        
                  /   \      - P O W E R E D   B Y -                         
                 /     \                                                     
                 |  |  |   _    _      __       _____    __    __             
                 |  |  |  | |  | |    /  \     |  _  \  |  |  /  |          
                  \  \/   | |  | |   /    \    | | | |  |  | /  /          
                 / \  \   | |__| |  /  /\  \   | |_| |  |  |/  /          
                |  |  |   |  __  | /  /__\  \  |    /   |      \           
                |  |  |   | |  | | |   __   |  |    \   |  |\   \          
                \     /   | |  | | |  |  |  |  | |\  \  |  | \   \       
                 \___/    |_|  |_| |__|  |__|  |_| \__\ |__|  \__/        
                                                                              
                      - O R C A' S   B I G   F R I E N D -                    
                                      &                                       
                       - I N T E G R A L  F E E D E R -                       
                                                                              
 v1 FN, 2020, v2 2021                                                         
------------------------------------------------------------------------------


Reading SHARK input file CONFS/Conf894.orca.SHARKINP.tmp ... ok
----------------------
SHARK INTEGRAL PACKAGE
----------------------

Number of atoms                             ...     36
Number of basis functions                   ...    828
Number of shells                            ...    298
Maximum angular momentum                    ...      3
Integral batch strategy                     ... SHARK/LIBINT Hybrid
RI-J (if used) integral strategy            ... SPLIT-RIJ (Revised 2003 algorithm where possible)
Printlevel                                  ...      1
Contraction scheme used                     ... SEGMENTED contraction
Coulomb Range Separation                    ... NOT USED
Exchange Range Separation                   ... NOT USED
Finite Nucleus Model                        ... NOT USED
Auxiliary Coulomb fitting basis             ... NOT available
Auxiliary J/K fitting basis                 ... NOT available
Auxiliary Correlation fitting basis         ... AVAILABLE
   # of basis functions in Aux-C            ...   2141
   # of shells in Aux-C                     ...    629
   Maximum angular momentum in Aux-C        ...      4
Auxiliary 'external' fitting basis          ... NOT available
Integral threshold                          ...     2.500000e-11
Primitive cut-off                           ...     2.500000e-12
Primitive pair pre-selection threshold      ...     2.500000e-12

Calculating pre-screening integrals         ... done (  0.5 sec) Dimension = 298
Organizing shell pair data                  ... done (  1.2 sec)
Shell pair information
Total number of shell pairs                 ...     44551
Shell pairs after pre-screening             ...     33542
Total number of primitive shell pairs       ...    234348
Primitive shell pairs kept                  ...     96249
          la=0 lb=0:   6697 shell pairs
          la=1 lb=0:   9308 shell pairs
          la=1 lb=1:   3289 shell pairs
          la=2 lb=0:   5359 shell pairs
          la=2 lb=1:   3678 shell pairs
          la=2 lb=2:   1053 shell pairs
          la=3 lb=0:   1937 shell pairs
          la=3 lb=1:   1327 shell pairs
          la=3 lb=2:    743 shell pairs
          la=3 lb=3:    151 shell pairs

Calculating one electron integrals          ... done (  0.3 sec)
Calculating RI/C V-Matrix + Cholesky decomp.... done (  1.2 sec)
Calculating Nuclear repulsion               ... done (  0.1 sec) ENN=   1711.697956023773 Eh

SHARK setup successfully completed in   3.8 seconds

Maximum memory used throughout the entire GTOINT-calculation: 498.0 MB
-------------------------------------------------------------------------------
                                 ORCA SCF
-------------------------------------------------------------------------------

------------
SCF SETTINGS
------------
Hamiltonian:
 Ab initio Hamiltonian  Method          .... Hartree-Fock(GTOs)


General Settings:
 Integral files         IntName         .... CONFS/Conf894.orca
 Hartree-Fock type      HFTyp           .... RHF
 Total Charge           Charge          ....    0
 Multiplicity           Mult            ....    1
 Number of Electrons    NEL             ....  154
 Basis Dimension        Dim             ....  828
 Nuclear Repulsion      ENuc            ....   1711.6979560238 Eh

Convergence Acceleration:
 DIIS                   CNVDIIS         .... on
   Start iteration      DIISMaxIt       ....    12
   Startup error        DIISStart       ....  0.200000
   # of expansion vecs  DIISMaxEq       ....     5
   Bias factor          DIISBfac        ....   1.050
   Max. coefficient     DIISMaxC        ....  10.000
 Trust-Rad. Augm. Hess. CNVTRAH         .... auto
   Auto Start mean grad. ratio tolernc. ....  1.125000
   Auto Start start iteration           ....    20
   Auto Start num. interpolation iter.  ....    10
   Max. Number of Micro iterations      ....    16
   Max. Number of Macro iterations      .... Maxiter - #DIIS iter
   Number of Davidson start vectors     ....     2
   Converg. threshold I  (grad. norm)   ....   1.000e-05
   Converg. threshold II (energy diff.) ....   1.000e-08
   Grad. Scal. Fac. for Micro threshold ....   0.100
   Minimum threshold for Micro iter.    ....   0.010
   NR start threshold (gradient norm)   ....   0.001
   Initial trust radius                 ....   0.400
   Minimum AH scaling param. (alpha)    ....   1.000
   Maximum AH scaling param. (alpha)    .... 1000.000
   Orbital update algorithm             .... Taylor
   White noise on init. David. guess    .... on
   Maximum white noise                  ....   0.010
   Quad. conv. algorithm                .... NR
 SOSCF                  CNVSOSCF        .... on
   Start iteration      SOSCFMaxIt      ....   150
   Startup grad/error   SOSCFStart      ....  0.003300
 Level Shifting         CNVShift        .... on
   Level shift para.    LevelShift      ....    0.2500
   Turn off err/grad.   ShiftErr        ....    0.0010
 Zerner damping         CNVZerner       .... off
 Static damping         CNVDamp         .... on
   Fraction old density DampFac         ....    0.7000
   Max. Damping (<1)    DampMax         ....    0.9800
   Min. Damping (>=0)   DampMin         ....    0.0000
   Turn off err/grad.   DampErr         ....    0.1000
 Fernandez-Rico         CNVRico         .... off

SCF Procedure:
 Maximum # iterations   MaxIter         ....   125
 SCF integral mode      SCFMode         .... Direct
   Integral package                     .... SHARK and LIBINT hybrid scheme
 Reset frequency        DirectResetFreq ....    20
 Integral Threshold     Thresh          ....  2.500e-11 Eh
 Primitive CutOff       TCut            ....  2.500e-12 Eh

Convergence Tolerance:
 Convergence Check Mode ConvCheckMode   .... Total+1el-Energy
 Convergence forced     ConvForced      .... 1
 Energy Change          TolE            ....  1.000e-08 Eh
 1-El. energy change                    ....  1.000e-05 Eh
 Orbital Gradient       TolG            ....  1.000e-05
 Orbital Rotation angle TolX            ....  1.000e-05
 DIIS Error             TolErr          ....  5.000e-07


Diagonalization of the overlap matrix:
Smallest eigenvalue                        ... 3.364e-05
Time for diagonalization                   ...    0.108 sec
Threshold for overlap eigenvalues          ... 1.000e-08
Number of eigenvalues below threshold      ... 0
Time for construction of square roots      ...    0.112 sec
Total time needed                          ...    0.221 sec

Time for model grid setup =    1.546 sec

------------------------------
INITIAL GUESS: MODEL POTENTIAL
------------------------------
Loading Hartree-Fock densities                     ... done
Calculating cut-offs                               ... done
Initializing the effective Hamiltonian             ... done
Setting up the integral package (SHARK)            ... done
Starting the Coulomb interaction                   ... done (   4.1 sec)
Reading the grid                                   ... done
Mapping shells                                     ... done
Starting the XC term evaluation                    ... done (   1.2 sec)
Transforming the Hamiltonian                       ... done (   0.1 sec)
Diagonalizing the Hamiltonian                      ... done (   0.1 sec)
Back transforming the eigenvectors                 ... done (   0.0 sec)
Now organizing SCF variables                       ... done
                      ------------------
                      INITIAL GUESS DONE (   7.6 sec)
                      ------------------
--------------
SCF ITERATIONS
--------------
ITER       Energy         Delta-E        Max-DP      RMS-DP      [F,P]     Damp
               ***  Starting incremental Fock matrix formation  ***
  0  -1270.0114239567   0.000000000000 0.04931991  0.00043448  0.3046571 0.7000
  1  -1270.2793718080  -0.267947851330 0.03608166  0.00035097  0.1796937 0.7000
                               ***Turning on DIIS***
  2  -1270.4462903024  -0.166918494406 0.02583651  0.00023566  0.1096602 0.7000
  3  -1272.5849329892  -2.138642686810 0.06312258  0.00050993  0.0829177 0.0000
  4  -1270.7553974610   1.829535528168 0.00745233  0.00009640  0.0070319 0.0000
  5  -1270.8143037104  -0.058906249360 0.00383636  0.00005121  0.0049401 0.0000
                      *** Initiating the SOSCF procedure ***
                           *** Shutting down DIIS ***
                      *** Re-Reading the Fockian *** 
                      *** Removing any level shift *** 
ITER      Energy       Delta-E        Grad      Rot      Max-DP    RMS-DP
  6  -1270.79415741   0.0201463007  0.001721  0.001721  0.002232  0.000027
               *** Restarting incremental Fock matrix formation ***
  7  -1270.80890743  -0.0147500154  0.001012  0.002605  0.001523  0.000017
  8  -1270.80895634  -0.0000489174  0.000444  0.003003  0.001780  0.000018
  9  -1270.80897511  -0.0000187702  0.000185  0.000377  0.000360  0.000005
 10  -1270.80897755  -0.0000024356  0.000059  0.000161  0.000127  0.000001
 11  -1270.80897780  -0.0000002476  0.000026  0.000129  0.000065  0.000001
 12  -1270.80897787  -0.0000000776  0.000010  0.000044  0.000035  0.000000
 13  -1270.80897788  -0.0000000034  0.000003  0.000012  0.000007  0.000000
                 **** Energy Check signals convergence ****
              ***Rediagonalizing the Fockian in SOSCF/NRSCF***

               *****************************************************
               *                     SUCCESS                       *
               *           SCF CONVERGED AFTER  14 CYCLES          *
               *****************************************************


----------------
TOTAL SCF ENERGY
----------------

Total Energy       :        -1270.80897787 Eh          -34580.47032 eV

Components:
Nuclear Repulsion  :         1711.69795602 Eh           46577.66935 eV
Electronic Energy  :        -2982.50693389 Eh          -81158.13967 eV
One Electron Energy:        -5144.51243826 Eh         -139989.30036 eV
Two Electron Energy:         2162.00550436 Eh           58831.16069 eV

Virial components:
Potential Energy   :        -2539.78888547 Eh          -69111.16912 eV
Kinetic Energy     :         1268.97990760 Eh           34530.69879 eV
Virial Ratio       :            2.00144137


---------------
SCF CONVERGENCE
---------------

  Last Energy change         ...    8.1027e-09  Tolerance :   1.0000e-08
  Last MAX-Density change    ...    1.7785e-06  Tolerance :   1.0000e-07
  Last RMS-Density change    ...    2.9011e-08  Tolerance :   5.0000e-09
  Last Orbital Gradient      ...    1.2395e-06  Tolerance :   1.0000e-05
  Last Orbital Rotation      ...    2.8642e-06  Tolerance :   1.0000e-05

             **** THE GBW FILE WAS UPDATED (CONFS/Conf894.orca.gbw) ****
             **** DENSITY CONFS/Conf894.orca.scfp WAS UPDATED ****
             **** ENERGY FILE WAS UPDATED (CONFS/Conf894.orca.en.tmp) ****
             **** THE GBW FILE WAS UPDATED (CONFS/Conf894.orca.gbw) ****
             **** DENSITY CONFS/Conf894.orca.scfp WAS UPDATED ****
----------------
ORBITAL ENERGIES
----------------

  NO   OCC          E(Eh)            E(eV) 
   0   2.0000     -91.889716     -2500.4463 
   1   2.0000     -20.599507      -560.5411 
   2   2.0000     -20.591549      -560.3245 
   3   2.0000     -20.544254      -559.0376 
   4   2.0000     -15.629925      -425.3119 
   5   2.0000     -15.609214      -424.7483 
   6   2.0000     -11.393632      -310.0365 
   7   2.0000     -11.384810      -309.7964 
   8   2.0000     -11.336401      -308.4792 
   9   2.0000     -11.317267      -307.9585 
  10   2.0000     -11.310574      -307.7764 
  11   2.0000     -11.292811      -307.2930 
  12   2.0000     -11.262482      -306.4677 
  13   2.0000     -11.259055      -306.3745 
  14   2.0000     -11.258581      -306.3616 
  15   2.0000     -11.252710      -306.2018 
  16   2.0000     -11.246229      -306.0255 
  17   2.0000     -11.241347      -305.8926 
  18   2.0000     -11.240935      -305.8814 
  19   2.0000     -11.227159      -305.5065 
  20   2.0000      -8.894773      -242.0391 
  21   2.0000      -6.576345      -178.9514 
  22   2.0000      -6.574342      -178.8969 
  23   2.0000      -6.573753      -178.8809 
  24   2.0000      -1.449951       -39.4552 
  25   2.0000      -1.419180       -38.6179 
  26   2.0000      -1.353640       -36.8344 
  27   2.0000      -1.340964       -36.4895 
  28   2.0000      -1.239606       -33.7314 
  29   2.0000      -1.160401       -31.5761 
  30   2.0000      -1.121109       -30.5069 
  31   2.0000      -1.044689       -28.4274 
  32   2.0000      -1.036998       -28.2182 
  33   2.0000      -1.018341       -27.7105 
  34   2.0000      -0.996591       -27.1186 
  35   2.0000      -0.985122       -26.8065 
  36   2.0000      -0.924091       -25.1458 
  37   2.0000      -0.883480       -24.0407 
  38   2.0000      -0.847981       -23.0747 
  39   2.0000      -0.839963       -22.8566 
  40   2.0000      -0.836774       -22.7698 
  41   2.0000      -0.822163       -22.3722 
  42   2.0000      -0.762821       -20.7574 
  43   2.0000      -0.734908       -19.9979 
  44   2.0000      -0.723954       -19.6998 
  45   2.0000      -0.698402       -19.0045 
  46   2.0000      -0.688845       -18.7444 
  47   2.0000      -0.678707       -18.4686 
  48   2.0000      -0.674025       -18.3411 
  49   2.0000      -0.656398       -17.8615 
  50   2.0000      -0.647518       -17.6199 
  51   2.0000      -0.643170       -17.5015 
  52   2.0000      -0.633243       -17.2314 
  53   2.0000      -0.615220       -16.7410 
  54   2.0000      -0.609945       -16.5975 
  55   2.0000      -0.602327       -16.3901 
  56   2.0000      -0.600024       -16.3275 
  57   2.0000      -0.580013       -15.7830 
  58   2.0000      -0.571680       -15.5562 
  59   2.0000      -0.565761       -15.3951 
  60   2.0000      -0.558999       -15.2111 
  61   2.0000      -0.540314       -14.7027 
  62   2.0000      -0.534446       -14.5430 
  63   2.0000      -0.527712       -14.3598 
  64   2.0000      -0.523281       -14.2392 
  65   2.0000      -0.514872       -14.0104 
  66   2.0000      -0.503628       -13.7044 
  67   2.0000      -0.497497       -13.5376 
  68   2.0000      -0.487821       -13.2743 
  69   2.0000      -0.465060       -12.6549 
  70   2.0000      -0.457366       -12.4456 
  71   2.0000      -0.445672       -12.1273 
  72   2.0000      -0.355098        -9.6627 
  73   2.0000      -0.352419        -9.5898 
  74   2.0000      -0.329382        -8.9629 
  75   2.0000      -0.324674        -8.8348 
  76   2.0000      -0.317101        -8.6288 
  77   0.0000       0.072395         1.9700 
  78   0.0000       0.103147         2.8068 
  79   0.0000       0.123751         3.3674 
  80   0.0000       0.130014         3.5379 
  81   0.0000       0.134973         3.6728 
  82   0.0000       0.138791         3.7767 
  83   0.0000       0.151509         4.1228 
  84   0.0000       0.159719         4.3462 
  85   0.0000       0.161690         4.3998 
  86   0.0000       0.168196         4.5769 
  87   0.0000       0.178099         4.8463 
  88   0.0000       0.191941         5.2230 
  89   0.0000       0.196364         5.3433 
  90   0.0000       0.200051         5.4437 
  91   0.0000       0.208811         5.6820 
  92   0.0000       0.216241         5.8842 
  93   0.0000       0.219996         5.9864 
  94   0.0000       0.228861         6.2276 
  95   0.0000       0.234026         6.3682 
  96   0.0000       0.245677         6.6852 
  97   0.0000       0.257656         7.0112 
  98   0.0000       0.261019         7.1027 
  99   0.0000       0.278046         7.5660 
 100   0.0000       0.294574         8.0158 
 101   0.0000       0.304091         8.2747 
 102   0.0000       0.308717         8.4006 
 103   0.0000       0.317473         8.6389 
 104   0.0000       0.326812         8.8930 
 105   0.0000       0.336835         9.1657 
 106   0.0000       0.342076         9.3084 
 107   0.0000       0.346466         9.4278 
 108   0.0000       0.347654         9.4601 
 109   0.0000       0.367268         9.9939 
 110   0.0000       0.371522        10.1096 
 111   0.0000       0.379257        10.3201 
 112   0.0000       0.384924        10.4743 
 113   0.0000       0.387348        10.5403 
 114   0.0000       0.393111        10.6971 
 115   0.0000       0.402332        10.9480 
 116   0.0000       0.409224        11.1355 
 117   0.0000       0.425444        11.5769 
 118   0.0000       0.433743        11.8028 
 119   0.0000       0.438766        11.9394 
 120   0.0000       0.440555        11.9881 
 121   0.0000       0.445961        12.1352 
 122   0.0000       0.454949        12.3798 
 123   0.0000       0.461425        12.5560 
 124   0.0000       0.465479        12.6663 
 125   0.0000       0.471306        12.8249 
 126   0.0000       0.477013        12.9802 
 127   0.0000       0.482647        13.1335 
 128   0.0000       0.488992        13.3062 
 129   0.0000       0.494323        13.4512 
 130   0.0000       0.500884        13.6298 
 131   0.0000       0.508760        13.8441 
 132   0.0000       0.511483        13.9182 
 133   0.0000       0.512474        13.9451 
 134   0.0000       0.523534        14.2461 
 135   0.0000       0.529263        14.4020 
 136   0.0000       0.534656        14.5487 
 137   0.0000       0.539357        14.6767 
 138   0.0000       0.541316        14.7299 
 139   0.0000       0.546669        14.8756 
 140   0.0000       0.557707        15.1760 
 141   0.0000       0.562201        15.2983 
 142   0.0000       0.565985        15.4012 
 143   0.0000       0.570614        15.5272 
 144   0.0000       0.576305        15.6821 
 145   0.0000       0.577502        15.7146 
 146   0.0000       0.584532        15.9059 
 147   0.0000       0.593996        16.1635 
 148   0.0000       0.595656        16.2086 
 149   0.0000       0.601745        16.3743 
 150   0.0000       0.605862        16.4863 
 151   0.0000       0.608887        16.5686 
 152   0.0000       0.615544        16.7498 
 153   0.0000       0.617436        16.8013 
 154   0.0000       0.623485        16.9659 
 155   0.0000       0.624266        16.9871 
 156   0.0000       0.632158        17.2019 
 157   0.0000       0.632838        17.2204 
 158   0.0000       0.637565        17.3490 
 159   0.0000       0.639978        17.4147 
 160   0.0000       0.646313        17.5871 
 161   0.0000       0.652164        17.7463 
 162   0.0000       0.661723        18.0064 
 163   0.0000       0.664900        18.0929 
 164   0.0000       0.668142        18.1811 
 165   0.0000       0.675122        18.3710 
 166   0.0000       0.676640        18.4123 
 167   0.0000       0.680127        18.5072 
 168   0.0000       0.689111        18.7517 
 169   0.0000       0.701867        19.0988 
 170   0.0000       0.704046        19.1581 
 171   0.0000       0.709187        19.2980 
 172   0.0000       0.714951        19.4548 
 173   0.0000       0.722930        19.6719 
 174   0.0000       0.730105        19.8672 
 175   0.0000       0.734220        19.9791 
 176   0.0000       0.738332        20.0910 
 177   0.0000       0.743159        20.2224 
 178   0.0000       0.748056        20.3556 
 179   0.0000       0.760388        20.6912 
 180   0.0000       0.767715        20.8906 
 181   0.0000       0.770801        20.9746 
 182   0.0000       0.778850        21.1936 
 183   0.0000       0.790443        21.5090 
 184   0.0000       0.799655        21.7597 
 185   0.0000       0.804251        21.8848 
 186   0.0000       0.815400        22.1881 
 187   0.0000       0.823656        22.4128 
 188   0.0000       0.829619        22.5751 
 189   0.0000       0.833909        22.6918 
 190   0.0000       0.839557        22.8455 
 191   0.0000       0.850792        23.1512 
 192   0.0000       0.855422        23.2772 
 193   0.0000       0.868660        23.6374 
 194   0.0000       0.871840        23.7240 
 195   0.0000       0.874478        23.7957 
 196   0.0000       0.880175        23.9508 
 197   0.0000       0.884862        24.0783 
 198   0.0000       0.893446        24.3119 
 199   0.0000       0.904036        24.6001 
 200   0.0000       0.914342        24.8805 
 201   0.0000       0.923325        25.1250 
 202   0.0000       0.926382        25.2081 
 203   0.0000       0.936236        25.4763 
 204   0.0000       0.948325        25.8052 
 205   0.0000       0.950054        25.8523 
 206   0.0000       0.955478        25.9999 
 207   0.0000       0.962963        26.2036 
 208   0.0000       0.971270        26.4296 
 209   0.0000       0.975509        26.5450 
 210   0.0000       0.985180        26.8081 
 211   0.0000       0.990494        26.9527 
 212   0.0000       0.994964        27.0743 
 213   0.0000       1.003190        27.2982 
 214   0.0000       1.011586        27.5267 
 215   0.0000       1.014848        27.6154 
 216   0.0000       1.027711        27.9654 
 217   0.0000       1.029122        28.0038 
 218   0.0000       1.038615        28.2622 
 219   0.0000       1.046066        28.4649 
 220   0.0000       1.050061        28.5736 
 221   0.0000       1.061616        28.8880 
 222   0.0000       1.062912        28.9233 
 223   0.0000       1.079217        29.3670 
 224   0.0000       1.081203        29.4210 
 225   0.0000       1.094374        29.7794 
 226   0.0000       1.101139        29.9635 
 227   0.0000       1.102385        29.9974 
 228   0.0000       1.110506        30.2184 
 229   0.0000       1.118343        30.4317 
 230   0.0000       1.131443        30.7881 
 231   0.0000       1.133626        30.8475 
 232   0.0000       1.136074        30.9142 
 233   0.0000       1.144074        31.1318 
 234   0.0000       1.146783        31.2055 
 235   0.0000       1.160192        31.5704 
 236   0.0000       1.169679        31.8286 
 237   0.0000       1.172610        31.9083 
 238   0.0000       1.176985        32.0274 
 239   0.0000       1.181742        32.1568 
 240   0.0000       1.187149        32.3040 
 241   0.0000       1.194810        32.5124 
 242   0.0000       1.202472        32.7209 
 243   0.0000       1.209160        32.9029 
 244   0.0000       1.212351        32.9897 
 245   0.0000       1.221175        33.2299 
 246   0.0000       1.228048        33.4169 
 247   0.0000       1.233277        33.5592 
 248   0.0000       1.250233        34.0206 
 249   0.0000       1.263833        34.3906 
 250   0.0000       1.269214        34.5371 
 251   0.0000       1.275935        34.7200 
 252   0.0000       1.279755        34.8239 
 253   0.0000       1.286957        35.0199 
 254   0.0000       1.293082        35.1865 
 255   0.0000       1.296121        35.2692 
 256   0.0000       1.306766        35.5589 
 257   0.0000       1.325105        36.0579 
 258   0.0000       1.329175        36.1687 
 259   0.0000       1.337273        36.3890 
 260   0.0000       1.345449        36.6115 
 261   0.0000       1.354001        36.8442 
 262   0.0000       1.367938        37.2235 
 263   0.0000       1.370538        37.2942 
 264   0.0000       1.381351        37.5885 
 265   0.0000       1.387997        37.7693 
 266   0.0000       1.397981        38.0410 
 267   0.0000       1.399724        38.0884 
 268   0.0000       1.408956        38.3396 
 269   0.0000       1.416866        38.5549 
 270   0.0000       1.427842        38.8535 
 271   0.0000       1.431902        38.9640 
 272   0.0000       1.444722        39.3129 
 273   0.0000       1.451326        39.4926 
 274   0.0000       1.455057        39.5941 
 275   0.0000       1.461655        39.7737 
 276   0.0000       1.472637        40.0725 
 277   0.0000       1.480424        40.2844 
 278   0.0000       1.481404        40.3111 
 279   0.0000       1.492558        40.6146 
 280   0.0000       1.499427        40.8015 
 281   0.0000       1.504087        40.9283 
 282   0.0000       1.504675        40.9443 
 283   0.0000       1.511776        41.1375 
 284   0.0000       1.516370        41.2625 
 285   0.0000       1.519833        41.3568 
 286   0.0000       1.530207        41.6391 
 287   0.0000       1.538822        41.8735 
 288   0.0000       1.548361        42.1330 
 289   0.0000       1.549961        42.1766 
 290   0.0000       1.552370        42.2421 
 291   0.0000       1.561614        42.4937 
 292   0.0000       1.565181        42.5907 
 293   0.0000       1.571075        42.7511 
 294   0.0000       1.578262        42.9467 
 295   0.0000       1.589080        43.2411 
 296   0.0000       1.589982        43.2656 
 297   0.0000       1.594420        43.3864 
 298   0.0000       1.605606        43.6908 
 299   0.0000       1.619907        44.0799 
 300   0.0000       1.635720        44.5102 
 301   0.0000       1.640705        44.6459 
 302   0.0000       1.648066        44.8462 
 303   0.0000       1.657551        45.1043 
 304   0.0000       1.665139        45.3107 
 305   0.0000       1.669230        45.4221 
 306   0.0000       1.678813        45.6828 
 307   0.0000       1.691602        46.0308 
 308   0.0000       1.700695        46.2783 
 309   0.0000       1.709995        46.5313 
 310   0.0000       1.719033        46.7773 
 311   0.0000       1.724049        46.9138 
 312   0.0000       1.735621        47.2287 
 313   0.0000       1.752592        47.6905 
 314   0.0000       1.759092        47.8673 
 315   0.0000       1.766594        48.0715 
 316   0.0000       1.779144        48.4130 
 317   0.0000       1.788605        48.6704 
 318   0.0000       1.793964        48.8162 
 319   0.0000       1.808040        49.1993 
 320   0.0000       1.811650        49.2975 
 321   0.0000       1.819519        49.5116 
 322   0.0000       1.822816        49.6013 
 323   0.0000       1.833238        49.8849 
 324   0.0000       1.850679        50.3595 
 325   0.0000       1.861008        50.6406 
 326   0.0000       1.884082        51.2685 
 327   0.0000       1.894492        51.5517 
 328   0.0000       1.903721        51.8029 
 329   0.0000       1.913476        52.0683 
 330   0.0000       1.928440        52.4755 
 331   0.0000       1.935041        52.6552 
 332   0.0000       1.937772        52.7295 
 333   0.0000       1.949190        53.0402 
 334   0.0000       1.968144        53.5559 
 335   0.0000       1.983432        53.9719 
 336   0.0000       1.988299        54.1044 
 337   0.0000       1.996353        54.3235 
 338   0.0000       2.019942        54.9654 
 339   0.0000       2.021964        55.0204 
 340   0.0000       2.036866        55.4259 
 341   0.0000       2.042729        55.5855 
 342   0.0000       2.055513        55.9334 
 343   0.0000       2.072680        56.4005 
 344   0.0000       2.104920        57.2778 
 345   0.0000       2.114173        57.5296 
 346   0.0000       2.123166        57.7743 
 347   0.0000       2.129415        57.9443 
 348   0.0000       2.151434        58.5435 
 349   0.0000       2.159116        58.7525 
 350   0.0000       2.189651        59.5834 
 351   0.0000       2.201548        59.9072 
 352   0.0000       2.211789        60.1858 
 353   0.0000       2.226003        60.5726 
 354   0.0000       2.238640        60.9165 
 355   0.0000       2.257483        61.4292 
 356   0.0000       2.260883        61.5218 
 357   0.0000       2.285467        62.1907 
 358   0.0000       2.295925        62.4753 
 359   0.0000       2.309296        62.8391 
 360   0.0000       2.311554        62.9006 
 361   0.0000       2.326518        63.3078 
 362   0.0000       2.335658        63.5565 
 363   0.0000       2.343719        63.7758 
 364   0.0000       2.364613        64.3444 
 365   0.0000       2.376631        64.6714 
 366   0.0000       2.388625        64.9978 
 367   0.0000       2.399819        65.3024 
 368   0.0000       2.410480        65.5925 
 369   0.0000       2.432918        66.2031 
 370   0.0000       2.443770        66.4984 
 371   0.0000       2.459899        66.9373 
 372   0.0000       2.461736        66.9872 
 373   0.0000       2.482471        67.5515 
 374   0.0000       2.486964        67.6737 
 375   0.0000       2.500979        68.0551 
 376   0.0000       2.507459        68.2314 
 377   0.0000       2.539901        69.1142 
 378   0.0000       2.555062        69.5268 
 379   0.0000       2.558500        69.6203 
 380   0.0000       2.566028        69.8252 
 381   0.0000       2.580207        70.2110 
 382   0.0000       2.587803        70.4177 
 383   0.0000       2.603097        70.8339 
 384   0.0000       2.614362        71.1404 
 385   0.0000       2.622027        71.3490 
 386   0.0000       2.626242        71.4637 
 387   0.0000       2.643701        71.9388 
 388   0.0000       2.657156        72.3049 
 389   0.0000       2.662210        72.4424 
 390   0.0000       2.689180        73.1763 
 391   0.0000       2.697641        73.4066 
 392   0.0000       2.704209        73.5853 
 393   0.0000       2.711847        73.7931 
 394   0.0000       2.727292        74.2134 
 395   0.0000       2.735132        74.4267 
 396   0.0000       2.738194        74.5101 
 397   0.0000       2.750372        74.8414 
 398   0.0000       2.764902        75.2368 
 399   0.0000       2.767747        75.3142 
 400   0.0000       2.781192        75.6801 
 401   0.0000       2.788557        75.8805 
 402   0.0000       2.798999        76.1646 
 403   0.0000       2.812127        76.5219 
 404   0.0000       2.816722        76.6469 
 405   0.0000       2.831490        77.0487 
 406   0.0000       2.833185        77.0949 
 407   0.0000       2.847382        77.4812 
 408   0.0000       2.854179        77.6662 
 409   0.0000       2.858989        77.7970 
 410   0.0000       2.868917        78.0672 
 411   0.0000       2.879616        78.3583 
 412   0.0000       2.886392        78.5427 
 413   0.0000       2.900665        78.9311 
 414   0.0000       2.912702        79.2587 
 415   0.0000       2.916200        79.3538 
 416   0.0000       2.930788        79.7508 
 417   0.0000       2.941829        80.0512 
 418   0.0000       2.951673        80.3191 
 419   0.0000       2.964623        80.6715 
 420   0.0000       2.970406        80.8289 
 421   0.0000       2.974795        80.9483 
 422   0.0000       2.991772        81.4103 
 423   0.0000       2.998207        81.5853 
 424   0.0000       3.000168        81.6387 
 425   0.0000       3.011028        81.9342 
 426   0.0000       3.016651        82.0872 
 427   0.0000       3.025500        82.3280 
 428   0.0000       3.037230        82.6472 
 429   0.0000       3.044615        82.8482 
 430   0.0000       3.052501        83.0628 
 431   0.0000       3.056176        83.1628 
 432   0.0000       3.067673        83.4756 
 433   0.0000       3.071692        83.5850 
 434   0.0000       3.076108        83.7051 
 435   0.0000       3.080413        83.8223 
 436   0.0000       3.088450        84.0410 
 437   0.0000       3.091666        84.1285 
 438   0.0000       3.102885        84.4338 
 439   0.0000       3.104325        84.4730 
 440   0.0000       3.111018        84.6551 
 441   0.0000       3.115512        84.7774 
 442   0.0000       3.122097        84.9566 
 443   0.0000       3.128440        85.1292 
 444   0.0000       3.135200        85.3131 
 445   0.0000       3.147241        85.6408 
 446   0.0000       3.154031        85.8255 
 447   0.0000       3.172312        86.3230 
 448   0.0000       3.180469        86.5450 
 449   0.0000       3.189233        86.7834 
 450   0.0000       3.195322        86.9491 
 451   0.0000       3.207299        87.2751 
 452   0.0000       3.214325        87.4662 
 453   0.0000       3.220541        87.6354 
 454   0.0000       3.225469        87.7695 
 455   0.0000       3.233504        87.9881 
 456   0.0000       3.235852        88.0520 
 457   0.0000       3.244065        88.2755 
 458   0.0000       3.248928        88.4078 
 459   0.0000       3.265703        88.8643 
 460   0.0000       3.271014        89.0088 
 461   0.0000       3.273305        89.0712 
 462   0.0000       3.284756        89.3828 
 463   0.0000       3.293733        89.6270 
 464   0.0000       3.301328        89.8337 
 465   0.0000       3.309227        90.0486 
 466   0.0000       3.312580        90.1399 
 467   0.0000       3.316044        90.2341 
 468   0.0000       3.322587        90.4122 
 469   0.0000       3.328682        90.5780 
 470   0.0000       3.338821        90.8539 
 471   0.0000       3.341258        90.9203 
 472   0.0000       3.351907        91.2100 
 473   0.0000       3.358999        91.4030 
 474   0.0000       3.360188        91.4354 
 475   0.0000       3.368253        91.6548 
 476   0.0000       3.371458        91.7420 
 477   0.0000       3.380116        91.9776 
 478   0.0000       3.384075        92.0854 
 479   0.0000       3.391691        92.2926 
 480   0.0000       3.395000        92.3826 
 481   0.0000       3.405591        92.6708 
 482   0.0000       3.408949        92.7622 
 483   0.0000       3.411635        92.8353 
 484   0.0000       3.414785        92.9210 
 485   0.0000       3.424550        93.1867 
 486   0.0000       3.428903        93.3052 
 487   0.0000       3.430160        93.3394 
 488   0.0000       3.437442        93.5376 
 489   0.0000       3.442759        93.6822 
 490   0.0000       3.447286        93.8054 
 491   0.0000       3.448933        93.8502 
 492   0.0000       3.452401        93.9446 
 493   0.0000       3.456977        94.0691 
 494   0.0000       3.472401        94.4888 
 495   0.0000       3.474419        94.5437 
 496   0.0000       3.482492        94.7634 
 497   0.0000       3.485932        94.8570 
 498   0.0000       3.496655        95.1488 
 499   0.0000       3.502730        95.3141 
 500   0.0000       3.513140        95.5974 
 501   0.0000       3.523056        95.8672 
 502   0.0000       3.532046        96.1118 
 503   0.0000       3.538546        96.2887 
 504   0.0000       3.550360        96.6102 
 505   0.0000       3.555020        96.7370 
 506   0.0000       3.559885        96.8694 
 507   0.0000       3.570011        97.1449 
 508   0.0000       3.576814        97.3301 
 509   0.0000       3.584817        97.5478 
 510   0.0000       3.592444        97.7554 
 511   0.0000       3.605855        98.1203 
 512   0.0000       3.606985        98.1511 
 513   0.0000       3.611714        98.2797 
 514   0.0000       3.621374        98.5426 
 515   0.0000       3.625024        98.6419 
 516   0.0000       3.630293        98.7853 
 517   0.0000       3.634141        98.8900 
 518   0.0000       3.639112        99.0253 
 519   0.0000       3.642493        99.1173 
 520   0.0000       3.646668        99.2309 
 521   0.0000       3.652461        99.3885 
 522   0.0000       3.660342        99.6030 
 523   0.0000       3.667039        99.7852 
 524   0.0000       3.671156        99.8972 
 525   0.0000       3.675019       100.0023 
 526   0.0000       3.680524       100.1522 
 527   0.0000       3.686149       100.3052 
 528   0.0000       3.704233       100.7973 
 529   0.0000       3.711098       100.9841 
 530   0.0000       3.717383       101.1551 
 531   0.0000       3.724183       101.3402 
 532   0.0000       3.733452       101.5924 
 533   0.0000       3.735234       101.6409 
 534   0.0000       3.744982       101.9061 
 535   0.0000       3.751124       102.0733 
 536   0.0000       3.754670       102.1698 
 537   0.0000       3.759995       102.3147 
 538   0.0000       3.760833       102.3375 
 539   0.0000       3.771451       102.6264 
 540   0.0000       3.779773       102.8528 
 541   0.0000       3.793029       103.2136 
 542   0.0000       3.795940       103.2928 
 543   0.0000       3.805223       103.5454 
 544   0.0000       3.814584       103.8001 
 545   0.0000       3.821261       103.9818 
 546   0.0000       3.823355       104.0388 
 547   0.0000       3.828994       104.1922 
 548   0.0000       3.836498       104.3964 
 549   0.0000       3.847276       104.6897 
 550   0.0000       3.849957       104.7626 
 551   0.0000       3.857077       104.9564 
 552   0.0000       3.864472       105.1576 
 553   0.0000       3.884277       105.6965 
 554   0.0000       3.893277       105.9415 
 555   0.0000       3.897552       106.0578 
 556   0.0000       3.902487       106.1921 
 557   0.0000       3.918735       106.6342 
 558   0.0000       3.924111       106.7805 
 559   0.0000       3.930962       106.9669 
 560   0.0000       3.939174       107.1904 
 561   0.0000       3.949078       107.4599 
 562   0.0000       3.952907       107.5641 
 563   0.0000       3.972263       108.0908 
 564   0.0000       3.978278       108.2545 
 565   0.0000       3.985724       108.4571 
 566   0.0000       3.988069       108.5209 
 567   0.0000       3.992369       108.6379 
 568   0.0000       4.012799       109.1938 
 569   0.0000       4.013857       109.2226 
 570   0.0000       4.025922       109.5509 
 571   0.0000       4.041407       109.9723 
 572   0.0000       4.043441       110.0276 
 573   0.0000       4.057268       110.4039 
 574   0.0000       4.067431       110.6804 
 575   0.0000       4.071088       110.7799 
 576   0.0000       4.075691       110.9052 
 577   0.0000       4.084160       111.1356 
 578   0.0000       4.102823       111.6435 
 579   0.0000       4.110756       111.8594 
 580   0.0000       4.117162       112.0337 
 581   0.0000       4.122314       112.1739 
 582   0.0000       4.135154       112.5233 
 583   0.0000       4.138939       112.6262 
 584   0.0000       4.143408       112.7479 
 585   0.0000       4.146126       112.8218 
 586   0.0000       4.156489       113.1038 
 587   0.0000       4.160569       113.2148 
 588   0.0000       4.166104       113.3655 
 589   0.0000       4.176525       113.6490 
 590   0.0000       4.185811       113.9017 
 591   0.0000       4.188615       113.9780 
 592   0.0000       4.194098       114.1272 
 593   0.0000       4.198658       114.2513 
 594   0.0000       4.203859       114.3928 
 595   0.0000       4.216282       114.7309 
 596   0.0000       4.218401       114.7885 
 597   0.0000       4.224719       114.9605 
 598   0.0000       4.232636       115.1759 
 599   0.0000       4.250782       115.6697 
 600   0.0000       4.253709       115.7493 
 601   0.0000       4.267237       116.1174 
 602   0.0000       4.270220       116.1986 
 603   0.0000       4.274388       116.3120 
 604   0.0000       4.290877       116.7607 
 605   0.0000       4.296366       116.9101 
 606   0.0000       4.310205       117.2866 
 607   0.0000       4.314973       117.4164 
 608   0.0000       4.324104       117.6649 
 609   0.0000       4.333747       117.9273 
 610   0.0000       4.337455       118.0281 
 611   0.0000       4.345234       118.2398 
 612   0.0000       4.356580       118.5486 
 613   0.0000       4.359131       118.6180 
 614   0.0000       4.369310       118.8950 
 615   0.0000       4.371998       118.9681 
 616   0.0000       4.378518       119.1455 
 617   0.0000       4.385207       119.3275 
 618   0.0000       4.400572       119.7456 
 619   0.0000       4.405579       119.8819 
 620   0.0000       4.411076       120.0315 
 621   0.0000       4.419270       120.2544 
 622   0.0000       4.420568       120.2898 
 623   0.0000       4.432541       120.6156 
 624   0.0000       4.437752       120.7574 
 625   0.0000       4.443591       120.9163 
 626   0.0000       4.449387       121.0740 
 627   0.0000       4.462895       121.4415 
 628   0.0000       4.471707       121.6813 
 629   0.0000       4.473885       121.7406 
 630   0.0000       4.493691       122.2795 
 631   0.0000       4.502713       122.5250 
 632   0.0000       4.515806       122.8813 
 633   0.0000       4.525886       123.1556 
 634   0.0000       4.534799       123.3981 
 635   0.0000       4.545635       123.6930 
 636   0.0000       4.547048       123.7315 
 637   0.0000       4.562304       124.1466 
 638   0.0000       4.564573       124.2083 
 639   0.0000       4.577923       124.5716 
 640   0.0000       4.588891       124.8701 
 641   0.0000       4.601368       125.2096 
 642   0.0000       4.603513       125.2679 
 643   0.0000       4.611046       125.4730 
 644   0.0000       4.615579       125.5963 
 645   0.0000       4.622901       125.7955 
 646   0.0000       4.627522       125.9213 
 647   0.0000       4.635768       126.1457 
 648   0.0000       4.638983       126.2332 
 649   0.0000       4.650483       126.5461 
 650   0.0000       4.654436       126.6536 
 651   0.0000       4.663243       126.8933 
 652   0.0000       4.675195       127.2185 
 653   0.0000       4.686693       127.5314 
 654   0.0000       4.698546       127.8539 
 655   0.0000       4.704741       128.0225 
 656   0.0000       4.708616       128.1280 
 657   0.0000       4.715599       128.3180 
 658   0.0000       4.735788       128.8674 
 659   0.0000       4.742312       129.0449 
 660   0.0000       4.756438       129.4293 
 661   0.0000       4.764830       129.6576 
 662   0.0000       4.771005       129.8256 
 663   0.0000       4.790783       130.3638 
 664   0.0000       4.812545       130.9560 
 665   0.0000       4.819576       131.1473 
 666   0.0000       4.829217       131.4097 
 667   0.0000       4.849895       131.9724 
 668   0.0000       4.860377       132.2576 
 669   0.0000       4.881414       132.8300 
 670   0.0000       4.906309       133.5074 
 671   0.0000       4.923809       133.9836 
 672   0.0000       4.945912       134.5851 
 673   0.0000       4.954002       134.8053 
 674   0.0000       4.967383       135.1694 
 675   0.0000       4.979917       135.5104 
 676   0.0000       5.011450       136.3685 
 677   0.0000       5.025423       136.7487 
 678   0.0000       5.030474       136.8862 
 679   0.0000       5.050876       137.4413 
 680   0.0000       5.055278       137.5611 
 681   0.0000       5.080043       138.2350 
 682   0.0000       5.085856       138.3932 
 683   0.0000       5.089162       138.4831 
 684   0.0000       5.109368       139.0330 
 685   0.0000       5.118129       139.2714 
 686   0.0000       5.128654       139.5578 
 687   0.0000       5.145787       140.0240 
 688   0.0000       5.150195       140.1439 
 689   0.0000       5.157857       140.3524 
 690   0.0000       5.166571       140.5895 
 691   0.0000       5.175362       140.8288 
 692   0.0000       5.184694       141.0827 
 693   0.0000       5.195084       141.3654 
 694   0.0000       5.207185       141.6947 
 695   0.0000       5.214913       141.9050 
 696   0.0000       5.219679       142.0347 
 697   0.0000       5.224926       142.1775 
 698   0.0000       5.239562       142.5757 
 699   0.0000       5.252586       142.9301 
 700   0.0000       5.262813       143.2084 
 701   0.0000       5.273589       143.5017 
 702   0.0000       5.295518       144.0984 
 703   0.0000       5.312176       144.5517 
 704   0.0000       5.320785       144.7859 
 705   0.0000       5.331225       145.0700 
 706   0.0000       5.344246       145.4243 
 707   0.0000       5.354690       145.7085 
 708   0.0000       5.374921       146.2590 
 709   0.0000       5.377229       146.3218 
 710   0.0000       5.397888       146.8840 
 711   0.0000       5.407577       147.1477 
 712   0.0000       5.421943       147.5386 
 713   0.0000       5.447703       148.2395 
 714   0.0000       5.468180       148.7967 
 715   0.0000       5.489276       149.3708 
 716   0.0000       5.508751       149.9007 
 717   0.0000       5.514761       150.0643 
 718   0.0000       5.523088       150.2909 
 719   0.0000       5.526757       150.3907 
 720   0.0000       5.543036       150.8337 
 721   0.0000       5.547238       150.9480 
 722   0.0000       5.552777       151.0988 
 723   0.0000       5.573390       151.6597 
 724   0.0000       5.586830       152.0254 
 725   0.0000       5.600516       152.3978 
 726   0.0000       5.605753       152.5403 
 727   0.0000       5.626733       153.1112 
 728   0.0000       5.633441       153.2937 
 729   0.0000       5.636619       153.3802 
 730   0.0000       5.652232       153.8050 
 731   0.0000       5.664187       154.1304 
 732   0.0000       5.672998       154.3701 
 733   0.0000       5.684527       154.6839 
 734   0.0000       5.709261       155.3569 
 735   0.0000       5.714889       155.5100 
 736   0.0000       5.722139       155.7073 
 737   0.0000       5.734414       156.0413 
 738   0.0000       5.747267       156.3911 
 739   0.0000       5.754806       156.5962 
 740   0.0000       5.767010       156.9283 
 741   0.0000       5.776997       157.2001 
 742   0.0000       5.794958       157.6888 
 743   0.0000       5.805084       157.9644 
 744   0.0000       5.821805       158.4194 
 745   0.0000       5.845035       159.0515 
 746   0.0000       5.862911       159.5379 
 747   0.0000       5.877984       159.9481 
 748   0.0000       5.909659       160.8100 
 749   0.0000       5.932647       161.4355 
 750   0.0000       5.951442       161.9470 
 751   0.0000       5.971676       162.4976 
 752   0.0000       5.987501       162.9282 
 753   0.0000       6.002451       163.3350 
 754   0.0000       6.012324       163.6036 
 755   0.0000       6.020046       163.8138 
 756   0.0000       6.059104       164.8766 
 757   0.0000       6.065074       165.0391 
 758   0.0000       6.070236       165.1795 
 759   0.0000       6.096206       165.8862 
 760   0.0000       6.112052       166.3174 
 761   0.0000       6.166836       167.8081 
 762   0.0000       6.217278       169.1807 
 763   0.0000       6.227446       169.4574 
 764   0.0000       6.251643       170.1158 
 765   0.0000       6.259235       170.3224 
 766   0.0000       6.296434       171.3347 
 767   0.0000       6.311104       171.7339 
 768   0.0000       6.347037       172.7116 
 769   0.0000       6.367063       173.2566 
 770   0.0000       6.380603       173.6250 
 771   0.0000       6.384777       173.7386 
 772   0.0000       6.408208       174.3762 
 773   0.0000       6.447466       175.4445 
 774   0.0000       6.460762       175.8063 
 775   0.0000       6.488776       176.5686 
 776   0.0000       6.502413       176.9396 
 777   0.0000       6.554013       178.3438 
 778   0.0000       6.587632       179.2586 
 779   0.0000       6.619095       180.1147 
 780   0.0000       6.654627       181.0816 
 781   0.0000       6.681018       181.7997 
 782   0.0000       6.742600       183.4755 
 783   0.0000       6.781617       184.5372 
 784   0.0000       6.803661       185.1370 
 785   0.0000       6.896736       187.6697 
 786   0.0000       6.908310       187.9847 
 787   0.0000       6.920043       188.3039 
 788   0.0000       6.937103       188.7682 
 789   0.0000       7.036484       191.4725 
 790   0.0000       7.048856       191.8091 
 791   0.0000       7.066988       192.3025 
 792   0.0000       7.079444       192.6415 
 793   0.0000       7.141471       194.3293 
 794   0.0000       7.247013       197.2013 
 795   0.0000       7.259579       197.5432 
 796   0.0000       7.280057       198.1004 
 797   0.0000       7.293183       198.4576 
 798   0.0000       7.343576       199.8289 
 799   0.0000       7.380949       200.8458 
 800   0.0000       7.408964       201.6082 
 801   0.0000       7.574014       206.0994 
 802   0.0000       7.584710       206.3905 
 803   0.0000       7.589251       206.5140 
 804   0.0000       7.673583       208.8088 
 805   0.0000       7.815691       212.6758 
 806   0.0000       7.853177       213.6958 
 807   0.0000       7.927991       215.7316 
 808   0.0000       7.933307       215.8762 
 809   0.0000       9.330115       253.8853 
 810   0.0000       9.536827       259.5103 
 811   0.0000      10.807761       294.0941 
 812   0.0000      11.388672       309.9015 
 813   0.0000      11.950367       325.1860 
 814   0.0000      12.577863       342.2610 
 815   0.0000      12.910242       351.3055 
 816   0.0000      13.065829       355.5393 
 817   0.0000      13.144055       357.6679 
 818   0.0000      13.262890       360.9016 
 819   0.0000      13.385209       364.2301 
 820   0.0000      13.550745       368.7345 
 821   0.0000      13.686367       372.4250 
 822   0.0000      13.926357       378.9554 
 823   0.0000      13.973277       380.2322 
 824   0.0000      14.061271       382.6266 
 825   0.0000      14.579847       396.7378 
 826   0.0000      14.782020       402.2392 
 827   0.0000      15.995296       435.2541 

                    ********************************
                    * MULLIKEN POPULATION ANALYSIS *
                    ********************************

-----------------------
MULLIKEN ATOMIC CHARGES
-----------------------
   0 C :   -0.262780
   1 C :    0.006599
   2 O :   -0.374045
   3 C :    0.490165
   4 O :   -0.420837
   5 C :   -0.263933
   6 C :    0.160917
   7 C :   -0.269934
   8 N :   -0.123516
   9 C :    0.212786
  10 S :   -0.439270
  11 N :   -0.206014
  12 C :    0.068040
  13 C :    0.028659
  14 C :   -0.173120
  15 C :   -0.133561
  16 C :   -0.278010
  17 C :    0.309918
  18 O :   -0.355651
  19 C :   -0.250697
  20 H :    0.088691
  21 H :    0.088730
  22 H :    0.101385
  23 H :    0.128090
  24 H :    0.112600
  25 H :    0.132415
  26 H :    0.130510
  27 H :    0.095265
  28 H :    0.197760
  29 H :    0.194963
  30 H :    0.149192
  31 H :    0.151513
  32 H :    0.162460
  33 H :    0.132480
  34 H :    0.241230
  35 H :    0.166998
Sum of atomic charges:   -0.0000000

--------------------------------
MULLIKEN REDUCED ORBITAL CHARGES
--------------------------------
  0 C s       :     3.258172  s :     3.258172
      pz      :     1.006270  p :     2.928919
      px      :     1.002663
      py      :     0.919986
      dz2     :     0.022252  d :     0.071241
      dxz     :     0.008365
      dyz     :     0.012683
      dx2y2   :     0.010404
      dxy     :     0.017538
      f0      :     0.001132  f :     0.004447
      f+1     :     0.000368
      f-1     :     0.000538
      f+2     :     0.000583
      f-2     :     0.000206
      f+3     :     0.000471
      f-3     :     0.001149
  1 C s       :     3.173128  s :     3.173128
      pz      :     1.008479  p :     2.651162
      px      :     0.787039
      py      :     0.855644
      dz2     :     0.031886  d :     0.157209
      dxz     :     0.030616
      dyz     :     0.020717
      dx2y2   :     0.032235
      dxy     :     0.041756
      f0      :     0.001967  f :     0.011903
      f+1     :     0.001166
      f-1     :     0.000985
      f+2     :     0.000935
      f-2     :     0.001985
      f+3     :     0.002503
      f-3     :     0.002362
  2 O s       :     3.723762  s :     3.723762
      pz      :     1.817480  p :     4.614180
      px      :     1.538717
      py      :     1.257983
      dz2     :     0.004149  d :     0.033819
      dxz     :     0.002965
      dyz     :     0.004516
      dx2y2   :     0.014338
      dxy     :     0.007850
      f0      :     0.000278  f :     0.002284
      f+1     :     0.000216
      f-1     :     0.000489
      f+2     :     0.000179
      f-2     :     0.000133
[...]
 15 C s       :     2.705641  s :     2.705641
      pz      :     0.916164  p :     2.795889
      px      :     0.908051
      py      :     0.971674
      dz2     :     0.105745  d :     0.417758
      dxz     :     0.067638
      dyz     :     0.068020
      dx2y2   :     0.109289
      dxy     :     0.067065
      f0      :     0.003754  f :     0.041125
      f+1     :     0.005374
      f-1     :     0.007023
      f+2     :     0.007387
      f-2     :     0.006424
      f+3     :     0.005462
      f-3     :     0.005700
 16 C s       :     2.701564  s :     2.701564
      pz      :     0.944937  p :     2.870639
      px      :     0.947472
      py      :     0.978231
      dz2     :     0.052485  d :     0.390179
      dxz     :     0.052000
      dyz     :     0.099514
      dx2y2   :     0.088803
      dxy     :     0.097377
      f0      :     0.004901  f :     0.040276
      f+1     :     0.004326
      f-1     :     0.004762
      f+2     :     0.006713
      f-2     :     0.004918
      f+3     :     0.008714
      f-3     :     0.005943
 17 C s       :     2.701495  s :     2.701495
      pz      :     0.846526  p :     2.680207
      px      :     0.821852
      py      :     1.011828
      dz2     :     0.139559  d :     0.709112
      dxz     :     0.098503
      dyz     :     0.163304
      dx2y2   :     0.147990
      dxy     :     0.159756
      f0      :     0.011999  f :     0.099261
      f+1     :     0.013786
      f-1     :     0.012309
      f+2     :     0.017994
      f-2     :     0.014209
      f+3     :     0.016252
      f-3     :     0.012711
 18 O s       :     3.177124  s :     3.177124
      pz      :     1.391369  p :     4.346091
      px      :     1.450964
      py      :     1.503758
      dz2     :     0.009710  d :     0.075440
      dxz     :     0.016711
      dyz     :     0.021728
      dx2y2   :     0.011318
      dxy     :     0.015973
      f0      :     0.000658  f :     0.005058
      f+1     :     0.000627
      f-1     :     0.000558
      f+2     :     0.000815
      f-2     :     0.001088
      f+3     :     0.000663
      f-3     :     0.000649
 19 C s       :     2.694950  s :     2.694950
      pz      :     0.941103  p :     2.845770
      px      :     0.937106
      py      :     0.967561
      dz2     :     0.085018  d :     0.387645
      dxz     :     0.067210
      dyz     :     0.071332
      dx2y2   :     0.094842
      dxy     :     0.069242
      f0      :     0.003729  f :     0.040780
      f+1     :     0.005803
      f-1     :     0.006445
      f+2     :     0.007319
      f-2     :     0.007011
      f+3     :     0.005257
      f-3     :     0.005216
 20 H s       :     0.847543  s :     0.847543
      pz      :     0.040086  p :     0.150652
      px      :     0.059857
      py      :     0.050708
      dz2     :     0.002782  d :     0.027392
      dxz     :     0.005839
      dyz     :     0.003066
      dx2y2   :     0.008721
      dxy     :     0.006984
 21 H s       :     0.852778  s :     0.852778
      pz      :     0.046156  p :     0.151386
      px      :     0.060176
      py      :     0.045053
      dz2     :     0.005481  d :     0.027524
      dxz     :     0.005700
      dyz     :     0.003004
      dx2y2   :     0.006723
      dxy     :     0.006616
 22 H s       :     0.847662  s :     0.847662
      pz      :     0.072157  p :     0.149933
      px      :     0.040564
      py      :     0.037211
      dz2     :     0.009248  d :     0.027492
      dxz     :     0.008834
      dyz     :     0.008460
      dx2y2   :     0.000319
      dxy     :     0.000632
 23 H s       :     0.851808  s :     0.851808
      pz      :     0.048566  p :     0.149184
      px      :     0.057736
      py      :     0.042883
      dz2     :     0.005803  d :     0.027259
      dxz     :     0.006710
      dyz     :     0.002197
      dx2y2   :     0.005948
      dxy     :     0.006602
 24 H s       :     0.856523  s :     0.856523
      pz      :     0.080034  p :     0.147475
      px      :     0.031932
      py      :     0.035509
      dz2     :     0.009640  d :     0.026902
      dxz     :     0.008110
      dyz     :     0.008253
      dx2y2   :     0.000305
      dxy     :     0.000594
 25 H s       :     0.825597  s :     0.825597
      pz      :     0.040327  p :     0.151219
      px      :     0.073108
      py      :     0.037785
      dz2     :     0.003218  d :     0.027744
      dxz     :     0.008678
      dyz     :     0.000312
      dx2y2   :     0.007253
      dxy     :     0.008283
 26 H s       :     0.825242  s :     0.825242
      pz      :     0.074117  p :     0.150874
      px      :     0.039431
      py      :     0.037326
      dz2     :     0.009544  d :     0.027757
      dxz     :     0.009018
      dyz     :     0.008480
      dx2y2   :     0.000565
      dxy     :     0.000149
 27 H s       :     0.845207  s :     0.845207
      pz      :     0.041019  p :     0.150339
      px      :     0.040459
      py      :     0.068860
      dz2     :     0.003315  d :     0.027703
      dxz     :     0.000571
      dyz     :     0.008245
      dx2y2   :     0.007345
      dxy     :     0.008227
 28 H s       :     0.741991  s :     0.741991
      pz      :     0.070758  p :     0.253612
      px      :     0.061718
      py      :     0.121136
      dz2     :     0.005608  d :     0.061810
      dxz     :     0.000533
      dyz     :     0.020676
      dx2y2   :     0.015889
      dxy     :     0.019104
 29 H s       :     0.749100  s :     0.749100
      pz      :     0.099627  p :     0.254220
      px      :     0.100278
      py      :     0.054315
      dz2     :     0.014839  d :     0.061411
      dxz     :     0.012753
      dyz     :     0.009289
      dx2y2   :     0.012877
      dxy     :     0.011653
 30 H s       :     0.832738  s :     0.832738
      pz      :     0.053104  p :     0.148586
      px      :     0.043624
      py      :     0.051858
      dz2     :     0.005939  d :     0.028448
      dxz     :     0.005707
      dyz     :     0.006391
      dx2y2   :     0.004466
      dxy     :     0.005944
 31 H s       :     0.845105  s :     0.845105
      pz      :     0.057029  p :     0.157614
      px      :     0.060624
      py      :     0.039960
      dz2     :     0.006045  d :     0.027551
      dxz     :     0.006262
      dyz     :     0.004741
      dx2y2   :     0.005293
      dxy     :     0.005211
 32 H s       :     0.842854  s :     0.842854
      pz      :     0.036200  p :     0.151317
      px      :     0.037654
      py      :     0.077463
      dz2     :     0.002644  d :     0.026446
      dxz     :     0.000275
      dyz     :     0.007838
      dx2y2   :     0.007747
      dxy     :     0.007942
 33 H s       :     0.848194  s :     0.848194
      pz      :     0.058891  p :     0.159040
      px      :     0.052223
      py      :     0.047926
      dz2     :     0.006593  d :     0.027755
      dxz     :     0.005325
      dyz     :     0.005948
      dx2y2   :     0.005137
      dxy     :     0.004752
 34 H s       :     0.706136  s :     0.706136
      pz      :     0.111328  p :     0.347597
      px      :     0.094348
      py      :     0.141920
      dz2     :     0.023682  d :     0.099517
      dxz     :     0.013159
      dyz     :     0.023566
      dx2y2   :     0.019441
      dxy     :     0.019670
 35 H s       :     0.838248  s :     0.838248
      pz      :     0.037998  p :     0.157149
      px      :     0.040304
      py      :     0.078847
      dz2     :     0.002712  d :     0.028041
      dxz     :     0.000282
      dyz     :     0.008572
      dx2y2   :     0.007884
      dxy     :     0.008591


                      *****************************
                      * MAYER POPULATION ANALYSIS *
                      *****************************

  NA   - Mulliken gross atomic population
  ZA   - Total nuclear charge
  QA   - Mulliken gross atomic charge
  VA   - Mayer's total valence
  BVA  - Mayer's bonded valence
  FA   - Mayer's free valence

  ATOM       NA         ZA         QA         VA         BVA        FA
  0 C      6.2628     6.0000    -0.2628     3.9016     3.9016    -0.0000
  1 C      5.9934     6.0000     0.0066     3.8310     3.8310    -0.0000
  2 O      8.3740     8.0000    -0.3740     2.0233     2.0233     0.0000
  3 C      5.5098     6.0000     0.4902     4.2373     4.2373     0.0000
  4 O      8.4208     8.0000    -0.4208     2.0941     2.0941     0.0000
  5 C      6.2639     6.0000    -0.2639     3.6638     3.6638    -0.0000
  6 C      5.8391     6.0000     0.1609     3.8750     3.8750     0.0000
  7 C      6.2699     6.0000    -0.2699     3.9043     3.9043    -0.0000
  8 N      7.1235     7.0000    -0.1235     3.3097     3.3097    -0.0000
  9 C      5.7872     6.0000     0.2128     4.1514     4.1514    -0.0000
 10 S     16.4393    16.0000    -0.4393     1.7554     1.7554     0.0000
 11 N      7.2060     7.0000    -0.2060     3.2499     3.2499    -0.0000
 12 C      5.9320     6.0000     0.0680     3.9362     3.9362     0.0000
 13 C      5.9713     6.0000     0.0287     3.7263     3.7263    -0.0000
 14 C      6.1731     6.0000    -0.1731     3.8415     3.8415    -0.0000
 15 C      6.1336     6.0000    -0.1336     3.7993     3.7993    -0.0000
 16 C      6.2780     6.0000    -0.2780     3.7892     3.7892    -0.0000
 17 C      5.6901     6.0000     0.3099     3.8830     3.8830     0.0000
 18 O      8.3557     8.0000    -0.3557     2.1208     2.1208    -0.0000
 19 C      6.2507     6.0000    -0.2507     3.8449     3.8449     0.0000
 20 H      0.9113     1.0000     0.0887     0.9838     0.9838     0.0000
 21 H      0.9113     1.0000     0.0887     0.9861     0.9861     0.0000
 22 H      0.8986     1.0000     0.1014     0.9859     0.9859    -0.0000
 23 H      0.8719     1.0000     0.1281     0.9862     0.9862    -0.0000
 24 H      0.8874     1.0000     0.1126     0.9636     0.9636    -0.0000
 25 H      0.8676     1.0000     0.1324     0.9794     0.9794     0.0000
 26 H      0.8695     1.0000     0.1305     0.9809     0.9809    -0.0000
 27 H      0.9047     1.0000     0.0953     0.9859     0.9859    -0.0000
 28 H      0.8022     1.0000     0.1978     1.0224     1.0224    -0.0000
 29 H      0.8050     1.0000     0.1950     1.0188     1.0188     0.0000
 30 H      0.8508     1.0000     0.1492     0.9934     0.9934     0.0000
 31 H      0.8485     1.0000     0.1515     0.9848     0.9848     0.0000
 32 H      0.8375     1.0000     0.1625     0.9766     0.9766     0.0000
 33 H      0.8675     1.0000     0.1325     0.9911     0.9911    -0.0000
 34 H      0.7588     1.0000     0.2412     1.0103     1.0103    -0.0000
 35 H      0.8330     1.0000     0.1670     0.9857     0.9857     0.0000

  Mayer bond orders larger than 0.100000
B(  0-C ,  1-C ) :   0.9772 B(  0-C , 20-H ) :   0.9766 B(  0-C , 21-H ) :   0.9792 
B(  0-C , 22-H ) :   0.9783 B(  1-C ,  2-O ) :   0.8726 B(  1-C , 23-H ) :   0.9769 
B(  1-C , 24-H ) :   0.9668 B(  2-O ,  3-C ) :   1.1309 B(  3-C ,  4-O ) :   2.0005 
B(  3-C ,  5-C ) :   1.0650 B(  5-C ,  6-C ) :   1.6505 B(  5-C , 12-C ) :   0.9716 
B(  6-C ,  7-C ) :   0.9661 B(  6-C ,  8-N ) :   1.1611 B(  7-C , 25-H ) :   0.9593 
B(  7-C , 26-H ) :   0.9610 B(  7-C , 27-H ) :   0.9904 B(  8-N ,  9-C ) :   1.1831 
B(  8-N , 28-H ) :   0.9478 B(  9-C , 10-S ) :   1.6073 B(  9-C , 11-N ) :   1.3060 
B( 11-N , 12-C ) :   0.9810 B( 11-N , 29-H ) :   0.9519 B( 12-C , 13-C ) :   0.9366 
B( 12-C , 30-H ) :   1.0017 B( 13-C , 14-C ) :   1.3590 B( 13-C , 19-C ) :   1.3824 
B( 14-C , 15-C ) :   1.3902 B( 14-C , 31-H ) :   0.9731 B( 15-C , 16-C ) :   1.3617 
B( 15-C , 32-H ) :   0.9703 B( 16-C , 17-C ) :   1.3302 B( 16-C , 33-H ) :   0.9845 
B( 17-C , 18-O ) :   1.1131 B( 17-C , 19-C ) :   1.3723 B( 18-O , 34-H ) :   0.9793 
B( 19-C , 35-H ) :   0.9575 

-------
TIMINGS
-------

Total SCF time: 0 days 1 hours 41 min 23 sec 

Total time                  ....    6083.226 sec
Sum of individual times     ....    6069.778 sec  ( 99.8%)

Fock matrix formation       ....    6030.477 sec  ( 99.1%)
Diagonalization             ....       1.915 sec  (  0.0%)
Density matrix formation    ....       0.247 sec  (  0.0%)
Population analysis         ....       1.235 sec  (  0.0%)
Initial guess               ....       6.018 sec  (  0.1%)
Orbital Transformation      ....       0.000 sec  (  0.0%)
Orbital Orthonormalization  ....       0.000 sec  (  0.0%)
DIIS solution               ....      20.868 sec  (  0.3%)
SOSCF solution              ....       7.472 sec  (  0.1%)

Maximum memory used throughout the entire SCF-calculation: 740.3 MB

------------------------------------------------------------------------------
                                ORCA  MP2 
------------------------------------------------------------------------------

Freezing NCore=48 chemical core electrons

-------------
RI-MP2 ENERGY
-------------
Dimension of the basis                    ...  828
Memory devoted to MP2                     ...  256 MB   
Data format for buffers                   ... DOUBLE
Compression type for matrix containers    ... UNCOMPRESSED
Overall scaling of the MP2 energy         ...   1.000e+00
Calculating two index integrals           ... done (    0.033 sec)
Cholesky decomposition of V**-1           ... done (    0.814 sec)

-----------------
RI-TRANSFORMATION (AUX index driven)
-----------------

Dimension of the orbital-basis         ... 828
Dimension of the aux-basis             ... 2141
Transformation of internal/external MOs...   24-  76 to   77- 827
Number Format for Storage              ... Double (8 Byte)
Integral mode                          ... Direct

First Phase: integral generation and transformation of MO indices
  Aux angular momentum 0               ... done (    5.947 sec)
  Aux angular momentum 1               ... done (   17.280 sec)
  Aux angular momentum 2               ... done (   13.053 sec)
  Aux angular momentum 3               ... done (   11.288 sec)
  Aux angular momentum 4               ... done (    3.350 sec)
Closing buffer VIA ( 0.63 GB; CompressionRatio= 1.00)
  Phase 1 completed in    52.264 sec
Second Phase: sorting and transformation of aux index

IA-Transformation
Memory available                       ... 157 MB 
Max. # MO pairs treated in a batch     ... 11    
# of internal orbitals                 ... 53
# batches for internal orbitals        ... 5
Closing buffer IAV ( 0.63 GB; CompressionRatio= 1.00)
(ia|v) transformation done in   161.125 sec

  Phase 2 completed in   161.142 sec
RI-Integral transformation completed in   213.529 sec
Opening buffers                              ... done

Starting loop over batches of integrals:

Operator 0  - window                       ... ( 24- 76)x( 77-827)
Operator 0  - Memory available             ...   256 MB
Operator 0  - Memory needed per MO         ...  12.3 MB
Operator 0  - Number of orbitals per batch ... 13
Operator 0  - Number of batches            ... 5

OPERATOR  0   PASS   0:  MOs    24 ...   36
  Reading integrals       ... ok
  Internal MO  26
  Internal MO  29
  Internal MO  32
  Internal MO  35
OPERATOR  0   PASS   1:  MOs    37 ...   49
  Reading integrals       ... ok
  Internal MO  38
  Internal MO  41
  Internal MO  44
  Internal MO  47
OPERATOR  0   PASS   2:  MOs    50 ...   62
  Reading integrals       ... ok
  Internal MO  50
  Internal MO  53
  Internal MO  56
  Internal MO  59
  Internal MO  62
OPERATOR  0   PASS   3:  MOs    63 ...   75
  Reading integrals       ... ok
  Internal MO  65
  Internal MO  68
  Internal MO  71
  Internal MO  74
OPERATOR  0   PASS   4:  MOs    76 ...   76
  Reading integrals       ... ok
Time spent in pair loops =   174.611 sec
Deleting buffer (Ka|jb)[aa] ...done

-----------------------------------------------
 RI-MP2 CORRELATION ENERGY:     -3.532280362 Eh
-----------------------------------------------


-------
TIMINGS
-------

Total time                :  390.813 sec
Integral trafo            :  213.554 sec ( 54.6%)
I/O of integrals          :    5.145 sec (  1.3%)
K(i,j) Operators          :   84.904 sec ( 21.7%)
T(i,j) pair energies      :    3.259 sec (  0.8%)
V-calculation             :    0.033 sec (  0.0%)
V**(-1/2)                 :    0.814 sec (  0.2%)
Gamma(ia|P)               :    0.000 sec (  0.0%)
Gamma-Trafo               :    0.000 sec (  0.0%)
D(virtual)                :    0.000 sec (  0.0%)
D(internal)               :    0.000 sec (  0.0%)
W(virtual)                :    0.000 sec (  0.0%)
W(internal)               :    0.000 sec (  0.0%)
L(virtual)                :    0.000 sec (  0.0%)
L(internal)               :    0.000 sec (  0.0%)
G(D)                      :    0.000 sec (  0.0%)
G(Z)                      :    0.000 sec (  0.0%)
Z-Vector Solution         :    0.000 sec (  0.0%)
3-Index Derivative        :    0.000 sec (  0.0%)
2-Index Derivative        :    0.000 sec (  0.0%)
Separable Gradient        :    0.000 sec (  0.0%)


---------------------------------------
MP2 TOTAL ENERGY:    -1274.341258231 Eh
---------------------------------------

Maximum memory used throughout the entire MP2-calculation: 304.6 MB

-------------------------   --------------------
FINAL SINGLE POINT ENERGY     -1274.341258230929
-------------------------   --------------------


                            ***************************************
                            *     ORCA property calculations      *
                            ***************************************


  WARNING: The energy has been calculated at the MP2 level but the densities
           used in the property calculations are still SCF densities
           MP2 response densities have not been calculated 
           use %mp2 Density relaxed end
           or  %mp2 Density unrelaxed end

                                    ---------------------
                                    Active property flags
                                    ---------------------
   (+) Dipole Moment


------------------------------------------------------------------------------
                       ORCA ELECTRIC PROPERTIES CALCULATION
------------------------------------------------------------------------------

Dipole Moment Calculation                       ... on
Quadrupole Moment Calculation                   ... off
Polarizability Calculation                      ... off
GBWName                                         ... CONFS/Conf894.orca.gbw
Electron density file                           ... CONFS/Conf894.orca.scfp
The origin for moment calculation is the CENTER OF MASS  = (32.871820, 31.545374 35.244997)

-------------
DIPOLE MOMENT
-------------
                                X             Y             Z
Electronic contribution:      9.34651      11.14527       6.82930
Nuclear contribution   :    -10.45312     -12.67691      -6.93025
                        -----------------------------------------
Total Dipole Moment    :     -1.10661      -1.53163      -0.10095
                        -----------------------------------------
Magnitude (a.u.)       :      1.89227
Magnitude (Debye)      :      4.80977



--------------------
Rotational spectrum 
--------------------
 
Rotational constants in cm-1:     0.012463     0.008468     0.006301 
Rotational constants in MHz :   373.640191   253.873403   188.909861 

 Dipole components along the rotational axes: 
x,y,z [a.u.] :    -1.887481    -0.073883     0.112461 
x,y,z [Debye]:    -4.797594    -0.187795     0.285854 

 

Timings for individual modules:

Sum of individual times         ...     6481.800 sec (= 108.030 min)
GTO integral calculation        ...        3.972 sec (=   0.066 min)   0.1 %
SCF iterations                  ...     6083.349 sec (= 101.389 min)  93.9 %
MP2 module                      ...      394.479 sec (=   6.575 min)   6.1 %
                             ****ORCA TERMINATED NORMALLY****
TOTAL RUN TIME: 0 days 1 hours 48 minutes 3 seconds 334 msec
