
                                        *****************
                                        * O   R   C   A *
                                        *****************

                                            #,                                       
                                            ###                                      
                                            ####                                     
                                            #####                                    
                                            ######                                   
                                           ########,                                 
                                     ,,################,,,,,                         
                               ,,#################################,,                 
                          ,,##########################################,,             
                       ,#########################################, ''#####,          
                    ,#############################################,,   '####,        
                  ,##################################################,,,,####,       
                ,###########''''           ''''###############################       
              ,#####''   ,,,,##########,,,,          '''####'''          '####       
            ,##' ,,,,###########################,,,                        '##       
           ' ,,###''''                  '''############,,,                           
         ,,##''                                '''############,,,,        ,,,,,,###''
      ,#''                                            '''#######################'''  
     '                                                          ''''####''''         
             ,#######,   #######,   ,#######,      ##                                
            ,#'     '#,  ##    ##  ,#'     '#,    #''#        ######   ,####,        
            ##       ##  ##   ,#'  ##            #'  '#       #        #'  '#        
            ##       ##  #######   ##           ,######,      #####,   #    #        
            '#,     ,#'  ##    ##  '#,     ,#' ,#      #,         ##   #,  ,#        
             '#######'   ##     ##  '#######'  #'      '#     #####' # '####'        



                  #######################################################
                  #                        -***-                        #
                  #          Department of theory and spectroscopy      #
                  #    Directorship and core code : Frank Neese         #
                  #        Max Planck Institute fuer Kohlenforschung    #
                  #                Kaiser Wilhelm Platz 1               #
                  #                 D-45470 Muelheim/Ruhr               #
                  #                      Germany                        #
                  #                                                     #
                  #                  All rights reserved                #
                  #                        -***-                        #
                  #######################################################


                         Program Version 5.0.0 -  RELEASE  -
                                (SVN: $Rev: 19529$)
                ($Date: 2021-06-28 11:36:33 +0200 (Mo, 28 Jun 2021) $)


 With contributions from (in alphabetic order):
   Daniel Aravena         : Magnetic Suceptibility
   Michael Atanasov       : Ab Initio Ligand Field Theory (pilot matlab implementation)
   Alexander A. Auer      : GIAO ZORA, VPT2 properties, NMR spectrum
   Ute Becker             : Parallelization
   Giovanni Bistoni       : ED, misc. LED, open-shell LED, HFLD
   Martin Brehm           : Molecular dynamics
   Dmytro Bykov           : SCF Hessian
   Vijay G. Chilkuri      : MRCI spin determinant printing, contributions to CSF-ICE
   Dipayan Datta          : RHF DLPNO-CCSD density
   Achintya Kumar Dutta   : EOM-CC, STEOM-CC
   Dmitry Ganyushin       : Spin-Orbit,Spin-Spin,Magnetic field MRCI
   Miquel Garcia          : C-PCM Hessian, Gaussian charge scheme
   Yang Guo               : DLPNO-NEVPT2, F12-NEVPT2, CIM, IAO-localization
   Andreas Hansen         : Spin unrestricted coupled pair/coupled cluster methods
   Benjamin Helmich-Paris : MC-RPA, TRAH-SCF, COSX integrals
   Lee Huntington         : MR-EOM, pCC
   Robert Izsak           : Overlap fitted RIJCOSX, COSX-SCS-MP3, EOM
   Marcus Kettner         : VPT2
   Christian Kollmar      : KDIIS, OOCD, Brueckner-CCSD(T), CCSD density, CASPT2, CASPT2-K
   Simone Kossmann        : Meta GGA functionals, TD-DFT gradient, OOMP2, MP2 Hessian
   Martin Krupicka        : Initial AUTO-CI
   Lucas Lang             : DCDCAS
   Marvin Lechner         : AUTO-CI (C++ implementation), FIC-MRCC
   Dagmar Lenk            : GEPOL surface, SMD
   Dimitrios Liakos       : Extrapolation schemes; Compound Job, initial MDCI parallelization
   Dimitrios Manganas     : Further ROCIS development; embedding schemes
   Dimitrios Pantazis     : SARC Basis sets
   Anastasios Papadopoulos: AUTO-CI, single reference methods and gradients
   Taras Petrenko         : DFT Hessian,TD-DFT gradient, ASA, ECA, R-Raman, ABS, FL, XAS/XES, NRVS
   Peter Pinski           : DLPNO-MP2, DLPNO-MP2 Gradient
   Christoph Reimann      : Effective Core Potentials
   Marius Retegan         : Local ZFS, SOC
   Christoph Riplinger    : Optimizer, TS searches, QM/MM, DLPNO-CCSD(T), (RO)-DLPNO pert. Triples
   Tobias Risthaus        : Range-separated hybrids, TD-DFT gradient, RPA, STAB
   Michael Roemelt        : Original ROCIS implementation
   Masaaki Saitow         : Open-shell DLPNO-CCSD energy and density
   Barbara Sandhoefer     : DKH picture change effects
   Avijit Sen             : IP-ROCIS
   Kantharuban Sivalingam : CASSCF convergence, NEVPT2, FIC-MRCI
   Bernardo de Souza      : ESD, SOC TD-DFT
   Georgi Stoychev        : AutoAux, RI-MP2 NMR
   Willem Van den Heuvel  : Paramagnetic NMR
   Boris Wezisla          : Elementary symmetry handling
   Frank Wennmohs         : Technical directorship


 We gratefully acknowledge several colleagues who have allowed us to
 interface, adapt or use parts of their codes:
   Stefan Grimme, W. Hujo, H. Kruse, P. Pracht,  : VdW corrections, initial TS optimization,
                  C. Bannwarth, S. Ehlert          DFT functionals, gCP, sTDA/sTD-DF
   Ed Valeev, F. Pavosevic, A. Kumar             : LibInt (2-el integral package), F12 methods
   Garnet Chan, S. Sharma, J. Yang, R. Olivares  : DMRG
   Ulf Ekstrom                                   : XCFun DFT Library
   Mihaly Kallay                                 : mrcc  (arbitrary order and MRCC methods)
   Jiri Pittner, Ondrej Demel                    : Mk-CCSD
   Frank Weinhold                                : gennbo (NPA and NBO analysis)
   Christopher J. Cramer and Donald G. Truhlar   : smd solvation model
   Lars Goerigk                                  : TD-DFT with DH, B97 family of functionals
   V. Asgeirsson, H. Jonsson                     : NEB implementation
   FAccTs GmbH                                   : IRC, NEB, NEB-TS, DLPNO-Multilevel, CI-OPT
                                                   MM, QMMM, 2- and 3-layer-ONIOM, Crystal-QMMM,
                                                   LR-CPCM, SF, NACMEs, symmetry and pop. for TD-DFT,
                                                   nearIR, NL-DFT gradient (VV10), updates on ESD,
                                                   ML-optimized integration grids
   S Lehtola, MJT Oliveira, MAL Marques          : LibXC Library
   Liviu Ungur et al                             : ANISO software


 Your calculation uses the libint2 library for the computation of 2-el integrals
 For citations please refer to: http://libint.valeyev.net

 Your ORCA version has been built with support for libXC version: 5.1.0
 For citations please refer to: https://tddft.org/programs/libxc/

 This ORCA versions uses:
   CBLAS   interface :  Fast vector & matrix operations
   LAPACKE interface :  Fast linear algebra routines
   SCALAPACK package :  Parallel linear algebra routines
   Shared memory     :  Shared parallel matrices
   BLAS/LAPACK       :  OpenBLAS 0.3.15  USE64BITINT DYNAMIC_ARCH NO_AFFINITY Zen SINGLE_THREADED
        Core in use  :  Zen
   Copyright (c) 2011-2014, The OpenBLAS Project


================================================================================

----- Orbital basis set information -----
Your calculation utilizes the basis: cc-pVTZ 
       H, B-Ne : Obtained from the ccRepo (grant-hill.group.shef.ac.uk/ccrepo) Feb. 2017
                 T. H. Dunning, Jr., J. Chem. Phys. 90, 1007 (1989)
            He : Obtained from the ccRepo (grant-hill.group.shef.ac.uk/ccrepo) Feb. 2017
                 D. E. Woon, T. H. Dunning, Jr., J. Chem. Phys. 100, 2975 (1994)
  Li-Be, Na-Mg : Obtained from the ccRepo (grant-hill.group.shef.ac.uk/ccrepo) Feb. 2017
                 B. P. Prascher, D. E. Woon, K. A. Peterson, T. H. Dunning, Jr., A. K. Wilson, Theor. Chem. Acc. 128, 69 (2011)
         Al-Ar : Obtained from the ccRepo (grant-hill.group.shef.ac.uk/ccrepo) Feb. 2017
                 D. E. Woon, T. H. Dunning, Jr., J. Chem. Phys. 98, 1358 (1993)
            Ca : Obtained from the Peterson Research Group Website (tyr0.chem.wsu.edu/~kipeters) Feb. 2017
                 J. Koput, K. A. Peterson, J. Phys. Chem. 106, 9595 (2002)
         Sc-Zn : Obtained from the ccRepo (grant-hill.group.shef.ac.uk/ccrepo) Feb. 2017
                 N. B. Balabanov, K. A. Peterson, J. Chem. Phys. 123, 064107 (2005)
                 N. B. Balabanov, K. A. Peterson, J. Chem. Phys. 125, 074110 (2006)
         Ga-Kr : Obtained from the ccRepo (grant-hill.group.shef.ac.uk/ccrepo) Feb. 2017
                 A. K. Wilson, D. E. Woon, K. A. Peterson, T. H. Dunning, Jr., J. Chem. Phys. 110, 7667 (1999)
             Y : Obtained from the ccRepo (grant-hill.group.shef.ac.uk/ccrepo) Feb. 2017
                 K. A. Peterson, D. Figgen, M. Dolg, H. Stoll, J. Chem. Phys. 126, 124101 (2007)
        Ag, Au : Obtained from the Peterson Research Group Website (tyr0.chem.wsu.edu/~kipeters) Feb. 2017
                 K. A. Peterson, C. Puzzarini, Theor. Chem. Acc. 114, 283 (2005)

----- AuxC basis set information -----
Your calculation utilizes the auxiliary basis: cc-pVTZ/C 
  Obtained from the EMSL Basis Set Exchange (bse.pnl.gov) Feb. 2017
  H-He, B-F, Al-Ar, Ga-Kr : F. Weigend, A. Kohn, C. Hattig, J. Chem. Phys. 116, 3175 (2002)
             Li-Be, Na-Mg : C. Haettig, Phys. Chem. Chem. Phys. 7, 59 (2005)
                       Ne : C. Haettig, Phys. Chem. Chem. Phys. 7, 59 (2005)
                            F. Weigend, A. Kohn, C. Hattig, J. Chem. Phys. 116, 3175 (2002)
                    Sc-Zn : J. G. Hill, J. A. Platts, J. Chem. Phys. 128, 044104 (2008)

================================================================================
                                        WARNINGS
                       Please study these warnings very carefully!
================================================================================


WARNING: No MP2 level density has been requested!
         To caclulate MP2 level properties use
         %mp2 Density relaxed end
         or
         %mp2 Density unrelaxed end

WARNING: Post HF methods need fully converged wavefunctions
  ===> : Setting SCFConvForced true
         You can overwrite this default with %scf ConvForced false 


INFO   : the flag for use of the SHARK integral package has been found!

================================================================================
                                       INPUT FILE
================================================================================
NAME = CONFS/Conf199.orca
|  1> ! ri-mp2 cc-pvtz cc-pvtz/c TightSCF NoKeepInts
|  2> 
|  3> %scf
|  4>   MaxCore 4096
|  5> end
|  6> *xyz  0  1
|  7>     C       14.9669239   14.3292937   17.2051488
|  8>     C       15.4703487   15.6681264   16.6405670
|  9>     O       16.7101989   15.4016397   15.9517136
| 10>     C       17.9308444   15.6661671   16.5156105
| 11>     O       18.8020244   14.8159449   16.5208637
| 12>     C       18.0259362   16.8925423   17.3684552
| 13>     C       17.5487286   18.1030658   16.9917675
| 14>     C       16.8999341   18.4596743   15.6710941
| 15>     N       17.7024895   19.2042068   17.8375175
| 16>     C       18.4044965   19.1923457   19.0148282
| 17>     S       18.5911675   20.5583259   19.9275850
| 18>     N       18.9391740   17.9880410   19.4019745
| 19>     C       18.7307012   16.7006392   18.7103186
| 20>     C       17.9376289   15.7293349   19.5793035
| 21>     C       18.3731594   14.4012290   19.7385673
| 22>     C       17.6283971   13.4905081   20.5063032
| 23>     C       16.4341381   13.9090875   21.1171321
| 24>     C       15.9931236   15.2291888   20.9551735
| 25>     O       14.8320697   15.6328746   21.5290548
| 26>     C       16.7371470   16.1341399   20.1917114
| 27>     H       15.6832433   13.9236026   17.9313323
| 28>     H       14.8375118   13.5934398   16.4016241
| 29>     H       14.0035209   14.4609411   17.7122953
| 30>     H       14.7308069   16.0493550   15.9247577
| 31>     H       15.5694802   16.3972164   17.4532744
| 32>     H       17.1738514   17.7525307   14.8780113
| 33>     H       17.2169642   19.4516340   15.3249878
| 34>     H       15.8068332   18.4670711   15.7557577
| 35>     H       17.3269127   20.0998717   17.5675819
| 36>     H       19.4312501   18.0043552   20.2864502
| 37>     H       19.7193192   16.2609583   18.5114844
| 38>     H       19.2843205   14.0680098   19.2463040
| 39>     H       17.9740043   12.4639618   20.6165564
| 40>     H       15.8537218   13.2069255   21.7065286
| 41>     H       14.5004127   14.8948516   22.0629261
| 42>     H       16.3762150   17.1508999   20.0794374
| 43> *
| 44> 
| 45>                          ****END OF INPUT****
================================================================================

                       ****************************
                       * Single Point Calculation *
                       ****************************

---------------------------------
CARTESIAN COORDINATES (ANGSTROEM)
---------------------------------
  C     14.966924   14.329294   17.205149
  C     15.470349   15.668126   16.640567
  O     16.710199   15.401640   15.951714
  C     17.930844   15.666167   16.515611
  O     18.802024   14.815945   16.520864
  C     18.025936   16.892542   17.368455
  C     17.548729   18.103066   16.991768
  C     16.899934   18.459674   15.671094
  N     17.702489   19.204207   17.837518
  C     18.404497   19.192346   19.014828
  S     18.591167   20.558326   19.927585
  N     18.939174   17.988041   19.401975
  C     18.730701   16.700639   18.710319
  C     17.937629   15.729335   19.579304
  C     18.373159   14.401229   19.738567
  C     17.628397   13.490508   20.506303
  C     16.434138   13.909088   21.117132
  C     15.993124   15.229189   20.955174
  O     14.832070   15.632875   21.529055
  C     16.737147   16.134140   20.191711
  H     15.683243   13.923603   17.931332
  H     14.837512   13.593440   16.401624
  H     14.003521   14.460941   17.712295
  H     14.730807   16.049355   15.924758
  H     15.569480   16.397216   17.453274
  H     17.173851   17.752531   14.878011
  H     17.216964   19.451634   15.324988
  H     15.806833   18.467071   15.755758
  H     17.326913   20.099872   17.567582
  H     19.431250   18.004355   20.286450
  H     19.719319   16.260958   18.511484
  H     19.284320   14.068010   19.246304
  H     17.974004   12.463962   20.616556
  H     15.853722   13.206925   21.706529
  H     14.500413   14.894852   22.062926
  H     16.376215   17.150900   20.079437

----------------------------
CARTESIAN COORDINATES (A.U.)
----------------------------
  NO LB      ZA    FRAG     MASS         X           Y           Z
   0 C     6.0000    0    12.011   28.283387   27.078441   32.513019
   1 C     6.0000    0    12.011   29.234722   29.608468   31.446114
   2 O     8.0000    0    15.999   31.577700   29.104881   30.144370
   3 C     6.0000    0    12.011   33.884385   29.604765   31.209981
   4 O     8.0000    0    15.999   35.530677   27.998078   31.219908
   5 C     6.0000    0    12.011   34.064083   31.922279   32.821624
   6 C     6.0000    0    12.011   33.162291   34.209837   32.109787
   7 C     6.0000    0    12.011   31.936247   34.883729   29.614076
   8 N     7.0000    0    14.007   33.452857   36.290691   33.708023
   9 C     6.0000    0    12.011   34.779458   36.268277   35.932818
  10 S    16.0000    0    32.060   35.132215   38.849606   37.657678
  11 N     7.0000    0    14.007   35.789852   33.992471   36.664418
  12 C     6.0000    0    12.011   35.395896   31.559634   35.357378
  13 C     6.0000    0    12.011   33.897206   29.724135   36.999522
  14 C     6.0000    0    12.011   34.720239   27.214379   37.300486
  15 C     6.0000    0    12.011   33.312843   25.493366   38.751297
  16 C     6.0000    0    12.011   31.056020   26.284366   39.905596
  17 C     6.0000    0    12.011   30.222624   28.778996   39.599539
  18 O     8.0000    0    15.999   28.028550   29.541852   40.684017
  19 C     6.0000    0    12.011   31.628624   30.489106   38.156805
  20 H     1.0000    0     1.008   29.637035   26.311796   33.885307
  21 H     1.0000    0     1.008   28.038834   25.687878   30.994578
  22 H     1.0000    0     1.008   26.462819   27.327218   33.471387
  23 H     1.0000    0     1.008   27.837191   30.328886   30.093431
  24 H     1.0000    0     1.008   29.422054   30.986248   32.981909
  25 H     1.0000    0     1.008   32.453876   33.547421   28.115367
  26 H     1.0000    0     1.008   32.535347   36.758261   28.960030
  27 H     1.0000    0     1.008   29.870586   34.897707   29.774067
  28 H     1.0000    0     1.008   32.743120   37.983253   33.197919
  29 H     1.0000    0     1.008   36.719741   34.023301   38.335835
  30 H     1.0000    0     1.008   37.264113   30.728758   34.981636
  31 H     1.0000    0     1.008   36.442084   26.584686   36.370244
  32 H     1.0000    0     1.008   33.965946   23.553474   38.959645
  33 H     1.0000    0     1.008   29.959192   24.957472   41.019394
  34 H     1.0000    0     1.008   27.401809   28.147190   41.692888
  35 H     1.0000    0     1.008   30.946561   32.410504   37.944638

--------------------------------
INTERNAL COORDINATES (ANGSTROEM)
--------------------------------
 C      0   0   0     0.000000000000     0.00000000     0.00000000
 C      1   0   0     1.537745797177     0.00000000     0.00000000
 O      2   1   0     1.443177981542   107.20153866     0.00000000
 C      3   2   1     1.370375822850   122.22105271   259.23764464
 O      4   3   2     1.217316712234   120.29258316   130.33274139
 C      4   3   2     1.496790788294   116.69286790   323.57738429
 C      6   4   3     1.354617237777   123.46021650   312.48279987
 C      7   6   4     1.514028452497   127.15736984   357.53562546
 N      7   6   4     1.396942009802   119.81964404   181.29012310
 C      9   7   6     1.370771679776   124.71762284     5.21130523
 S     10   9   7     1.653442755277   121.65434682   177.40308743
 N     10   9   7     1.373357963916   116.68477764   357.07739935
 C     12  10   9     1.476229042862   125.28763905   355.05340524
 C     13  12  10     1.525624617215   111.20856482   246.16692528
 C     14  13  12     1.406739867934   120.30587995   227.47489879
 C     15  14  13     1.404813814478   120.64946424   181.80702412
 C     16  15  14     1.405195793568   119.67096318     0.23206933
 C     17  16  15     1.401210840518   119.86018271     0.10649808
 O     18  17  16     1.356594313093   120.05449881   179.16282245
 C     18  17  16     1.398349631271   120.35381764   359.81906306
 H      1   2   3     1.097743698277   110.54935200    62.22043177
 H      1   2   3     1.097214836430   110.71027703   302.23796645
 H      1   2   3     1.096664921842   110.66280187   182.03060941
 H      2   1   3     1.097561056785   108.73977158   118.14543090
 H      2   1   3     1.096308624616   109.66047508   236.35126242
 H      8   7   6     1.097298084349   111.82026232   338.28071685
 H      8   7   6     1.097397695291   111.35954680   219.38106037
 H      8   7   6     1.096399660432   111.19011538    99.09419554
 H      9   7   6     1.008037089564   119.81794953   181.54047088
 H     12  10   9     1.012275804909   114.92476960   181.51750558
 H     13  12  10     1.100099942205   107.83786812   127.44557483
 H     15  14  13     1.087921293995   119.81765130     0.51388929
 H     16  15  14     1.088759574399   119.88738549   179.64437264
 H     17  16  15     1.085035847224   119.86702060   179.68115081
 H     19  18  17     0.969377573055   107.41218124     4.70073921
 H     20  18  17     1.084748015578   119.08236175   179.96121043

---------------------------
INTERNAL COORDINATES (A.U.)
---------------------------
 C      0   0   0     0.000000000000     0.00000000     0.00000000
 C      1   0   0     2.905918420253     0.00000000     0.00000000
 O      2   1   0     2.727211147620   107.20153866     0.00000000
 C      3   2   1     2.589635005733   122.22105271   259.23764464
 O      4   3   2     2.300395204367   120.29258316   130.33274139
 C      4   3   2     2.828524669651   116.69286790   323.57738429
 C      6   4   3     2.559855595687   123.46021650   312.48279987
 C      7   6   4     2.861099134184   127.15736984   357.53562546
 N      7   6   4     2.639837823495   119.81964404   181.29012310
 C      9   7   6     2.590383066912   124.71762284     5.21130523
 S     10   9   7     3.124553985590   121.65434682   177.40308743
 N     10   9   7     2.595270435641   116.68477764   357.07739935
 C     12  10   9     2.789668601949   125.28763905   355.05340524
 C     13  12  10     2.883012709706   111.20856482   246.16692528
 C     14  13  12     2.658353092064   120.30587995   227.47489879
 C     15  14  13     2.654713378512   120.64946424   181.80702412
 C     16  15  14     2.655435214381   119.67096318     0.23206933
 C     17  16  15     2.647904744461   119.86018271     0.10649808
 O     18  17  16     2.563591726581   120.05449881   179.16282245
 C     18  17  16     2.642497842572   120.35381764   359.81906306
 H      1   2   3     2.074434954982   110.54935200    62.22043177
 H      1   2   3     2.073435550928   110.71027703   302.23796645
 H      1   2   3     2.072396362959   110.66280187   182.03060941
 H      2   1   3     2.074089812581   108.73977158   118.14543090
 H      2   1   3     2.071723058780   109.66047508   236.35126242
 H      8   7   6     2.073592866696   111.82026232   338.28071685
 H      8   7   6     2.073781104096   111.35954680   219.38106037
 H      8   7   6     2.071895091541   111.19011538    99.09419554
 H      9   7   6     1.904914032112   119.81794953   181.54047088
 H     12  10   9     1.912924043272   114.92476960   181.51750558
 H     13  12  10     2.078887610709   107.83786812   127.44557483
 H     15  14  13     2.055873300913   119.81765130     0.51388929
 H     16  15  14     2.057457421299   119.88738549   179.64437264
 H     17  16  15     2.050420596741   119.86702060   179.68115081
 H     19  18  17     1.831858133439   107.41218124     4.70073921
 H     20  18  17     2.049876673757   119.08236175   179.96121043

---------------------
BASIS SET INFORMATION
---------------------
There are 5 groups of distinct atoms

 Group   1 Type C   : 18s5p2d1f contracted to 4s3p2d1f pattern {8811/311/11/1}
 Group   2 Type O   : 18s5p2d1f contracted to 4s3p2d1f pattern {8811/311/11/1}
 Group   3 Type N   : 18s5p2d1f contracted to 4s3p2d1f pattern {8811/311/11/1}
 Group   4 Type S   : 41s16p2d1f contracted to 5s4p2d1f pattern {13131311/7711/11/1}
 Group   5 Type H   : 5s2p1d contracted to 3s2p1d pattern {311/11/1}

Atom   0C    basis set group =>   1
Atom   1C    basis set group =>   1
Atom   2O    basis set group =>   2
Atom   3C    basis set group =>   1
Atom   4O    basis set group =>   2
Atom   5C    basis set group =>   1
Atom   6C    basis set group =>   1
Atom   7C    basis set group =>   1
Atom   8N    basis set group =>   3
Atom   9C    basis set group =>   1
Atom  10S    basis set group =>   4
Atom  11N    basis set group =>   3
Atom  12C    basis set group =>   1
Atom  13C    basis set group =>   1
Atom  14C    basis set group =>   1
Atom  15C    basis set group =>   1
Atom  16C    basis set group =>   1
Atom  17C    basis set group =>   1
Atom  18O    basis set group =>   2
Atom  19C    basis set group =>   1
Atom  20H    basis set group =>   5
Atom  21H    basis set group =>   5
Atom  22H    basis set group =>   5
Atom  23H    basis set group =>   5
Atom  24H    basis set group =>   5
Atom  25H    basis set group =>   5
Atom  26H    basis set group =>   5
Atom  27H    basis set group =>   5
Atom  28H    basis set group =>   5
Atom  29H    basis set group =>   5
Atom  30H    basis set group =>   5
Atom  31H    basis set group =>   5
Atom  32H    basis set group =>   5
Atom  33H    basis set group =>   5
Atom  34H    basis set group =>   5
Atom  35H    basis set group =>   5
---------------------------------
AUXILIARY/C BASIS SET INFORMATION
---------------------------------
There are 5 groups of distinct atoms

 Group   1 Type C   : 8s6p5d3f1g contracted to 8s6p5d3f1g pattern {11111111/111111/11111/111/1}
 Group   2 Type O   : 8s6p5d3f1g contracted to 8s6p5d3f1g pattern {11111111/111111/11111/111/1}
 Group   3 Type N   : 8s6p5d3f1g contracted to 8s6p5d3f1g pattern {11111111/111111/11111/111/1}
 Group   4 Type S   : 10s8p7d5f2g contracted to 10s8p7d5f2g pattern {1111111111/11111111/1111111/11111/11}
 Group   5 Type H   : 4s3p2d1f contracted to 4s3p2d1f pattern {1111/111/11/1}

Atom   0C    basis set group =>   1
Atom   1C    basis set group =>   1
Atom   2O    basis set group =>   2
Atom   3C    basis set group =>   1
Atom   4O    basis set group =>   2
Atom   5C    basis set group =>   1
Atom   6C    basis set group =>   1
Atom   7C    basis set group =>   1
Atom   8N    basis set group =>   3
Atom   9C    basis set group =>   1
Atom  10S    basis set group =>   4
Atom  11N    basis set group =>   3
Atom  12C    basis set group =>   1
Atom  13C    basis set group =>   1
Atom  14C    basis set group =>   1
Atom  15C    basis set group =>   1
Atom  16C    basis set group =>   1
Atom  17C    basis set group =>   1
Atom  18O    basis set group =>   2
Atom  19C    basis set group =>   1
Atom  20H    basis set group =>   5
Atom  21H    basis set group =>   5
Atom  22H    basis set group =>   5
Atom  23H    basis set group =>   5
Atom  24H    basis set group =>   5
Atom  25H    basis set group =>   5
Atom  26H    basis set group =>   5
Atom  27H    basis set group =>   5
Atom  28H    basis set group =>   5
Atom  29H    basis set group =>   5
Atom  30H    basis set group =>   5
Atom  31H    basis set group =>   5
Atom  32H    basis set group =>   5
Atom  33H    basis set group =>   5
Atom  34H    basis set group =>   5
Atom  35H    basis set group =>   5
------------------------------------------------------------------------------
                           ORCA GTO INTEGRAL CALCULATION
------------------------------------------------------------------------------
------------------------------------------------------------------------------
                   ___                                                        
                  /   \      - P O W E R E D   B Y -                         
                 /     \                                                     
                 |  |  |   _    _      __       _____    __    __             
                 |  |  |  | |  | |    /  \     |  _  \  |  |  /  |          
                  \  \/   | |  | |   /    \    | | | |  |  | /  /          
                 / \  \   | |__| |  /  /\  \   | |_| |  |  |/  /          
                |  |  |   |  __  | /  /__\  \  |    /   |      \           
                |  |  |   | |  | | |   __   |  |    \   |  |\   \          
                \     /   | |  | | |  |  |  |  | |\  \  |  | \   \       
                 \___/    |_|  |_| |__|  |__|  |_| \__\ |__|  \__/        
                                                                              
                      - O R C A' S   B I G   F R I E N D -                    
                                      &                                       
                       - I N T E G R A L  F E E D E R -                       
                                                                              
 v1 FN, 2020, v2 2021                                                         
------------------------------------------------------------------------------


Reading SHARK input file CONFS/Conf199.orca.SHARKINP.tmp ... ok
----------------------
SHARK INTEGRAL PACKAGE
----------------------

Number of atoms                             ...     36
Number of basis functions                   ...    828
Number of shells                            ...    298
Maximum angular momentum                    ...      3
Integral batch strategy                     ... SHARK/LIBINT Hybrid
RI-J (if used) integral strategy            ... SPLIT-RIJ (Revised 2003 algorithm where possible)
Printlevel                                  ...      1
Contraction scheme used                     ... SEGMENTED contraction
Coulomb Range Separation                    ... NOT USED
Exchange Range Separation                   ... NOT USED
Finite Nucleus Model                        ... NOT USED
Auxiliary Coulomb fitting basis             ... NOT available
Auxiliary J/K fitting basis                 ... NOT available
Auxiliary Correlation fitting basis         ... AVAILABLE
   # of basis functions in Aux-C            ...   2141
   # of shells in Aux-C                     ...    629
   Maximum angular momentum in Aux-C        ...      4
Auxiliary 'external' fitting basis          ... NOT available
Integral threshold                          ...     2.500000e-11
Primitive cut-off                           ...     2.500000e-12
Primitive pair pre-selection threshold      ...     2.500000e-12

Calculating pre-screening integrals         ... done (  0.5 sec) Dimension = 298
Organizing shell pair data                  ... done (  0.8 sec)
Shell pair information
Total number of shell pairs                 ...     44551
Shell pairs after pre-screening             ...     34864
Total number of primitive shell pairs       ...    234348
Primitive shell pairs kept                  ...     99521
          la=0 lb=0:   6923 shell pairs
          la=1 lb=0:   9671 shell pairs
          la=1 lb=1:   3418 shell pairs
          la=2 lb=0:   5586 shell pairs
          la=2 lb=1:   3846 shell pairs
          la=2 lb=2:   1094 shell pairs
          la=3 lb=0:   2005 shell pairs
          la=3 lb=1:   1384 shell pairs
          la=3 lb=2:    780 shell pairs
          la=3 lb=3:    157 shell pairs

Calculating one electron integrals          ... done (  0.3 sec)
Calculating RI/C V-Matrix + Cholesky decomp.... done (  0.9 sec)
Calculating Nuclear repulsion               ... done (  0.1 sec) ENN=   1736.628257816582 Eh

SHARK setup successfully completed in   3.2 seconds

Maximum memory used throughout the entire GTOINT-calculation: 519.5 MB
-------------------------------------------------------------------------------
                                 ORCA SCF
-------------------------------------------------------------------------------

------------
SCF SETTINGS
------------
Hamiltonian:
 Ab initio Hamiltonian  Method          .... Hartree-Fock(GTOs)


General Settings:
 Integral files         IntName         .... CONFS/Conf199.orca
 Hartree-Fock type      HFTyp           .... RHF
 Total Charge           Charge          ....    0
 Multiplicity           Mult            ....    1
 Number of Electrons    NEL             ....  154
 Basis Dimension        Dim             ....  828
 Nuclear Repulsion      ENuc            ....   1736.6282578166 Eh

Convergence Acceleration:
 DIIS                   CNVDIIS         .... on
   Start iteration      DIISMaxIt       ....    12
   Startup error        DIISStart       ....  0.200000
   # of expansion vecs  DIISMaxEq       ....     5
   Bias factor          DIISBfac        ....   1.050
   Max. coefficient     DIISMaxC        ....  10.000
 Trust-Rad. Augm. Hess. CNVTRAH         .... auto
   Auto Start mean grad. ratio tolernc. ....  1.125000
   Auto Start start iteration           ....    20
   Auto Start num. interpolation iter.  ....    10
   Max. Number of Micro iterations      ....    16
   Max. Number of Macro iterations      .... Maxiter - #DIIS iter
   Number of Davidson start vectors     ....     2
   Converg. threshold I  (grad. norm)   ....   1.000e-05
   Converg. threshold II (energy diff.) ....   1.000e-08
   Grad. Scal. Fac. for Micro threshold ....   0.100
   Minimum threshold for Micro iter.    ....   0.010
   NR start threshold (gradient norm)   ....   0.001
   Initial trust radius                 ....   0.400
   Minimum AH scaling param. (alpha)    ....   1.000
   Maximum AH scaling param. (alpha)    .... 1000.000
   Orbital update algorithm             .... Taylor
   White noise on init. David. guess    .... on
   Maximum white noise                  ....   0.010
   Quad. conv. algorithm                .... NR
 SOSCF                  CNVSOSCF        .... on
   Start iteration      SOSCFMaxIt      ....   150
   Startup grad/error   SOSCFStart      ....  0.003300
 Level Shifting         CNVShift        .... on
   Level shift para.    LevelShift      ....    0.2500
   Turn off err/grad.   ShiftErr        ....    0.0010
 Zerner damping         CNVZerner       .... off
 Static damping         CNVDamp         .... on
   Fraction old density DampFac         ....    0.7000
   Max. Damping (<1)    DampMax         ....    0.9800
   Min. Damping (>=0)   DampMin         ....    0.0000
   Turn off err/grad.   DampErr         ....    0.1000
 Fernandez-Rico         CNVRico         .... off

SCF Procedure:
 Maximum # iterations   MaxIter         ....   125
 SCF integral mode      SCFMode         .... Direct
   Integral package                     .... SHARK and LIBINT hybrid scheme
 Reset frequency        DirectResetFreq ....    20
 Integral Threshold     Thresh          ....  2.500e-11 Eh
 Primitive CutOff       TCut            ....  2.500e-12 Eh

Convergence Tolerance:
 Convergence Check Mode ConvCheckMode   .... Total+1el-Energy
 Convergence forced     ConvForced      .... 1
 Energy Change          TolE            ....  1.000e-08 Eh
 1-El. energy change                    ....  1.000e-05 Eh
 Orbital Gradient       TolG            ....  1.000e-05
 Orbital Rotation angle TolX            ....  1.000e-05
 DIIS Error             TolErr          ....  5.000e-07


Diagonalization of the overlap matrix:
Smallest eigenvalue                        ... 3.350e-05
Time for diagonalization                   ...    0.106 sec
Threshold for overlap eigenvalues          ... 1.000e-08
Number of eigenvalues below threshold      ... 0
Time for construction of square roots      ...    0.105 sec
Total time needed                          ...    0.212 sec

Time for model grid setup =    1.497 sec

------------------------------
INITIAL GUESS: MODEL POTENTIAL
------------------------------
Loading Hartree-Fock densities                     ... done
Calculating cut-offs                               ... done
Initializing the effective Hamiltonian             ... done
Setting up the integral package (SHARK)            ... done
Starting the Coulomb interaction                   ... done (   5.2 sec)
Reading the grid                                   ... done
Mapping shells                                     ... done
Starting the XC term evaluation                    ... done (   1.3 sec)
Transforming the Hamiltonian                       ... done (   0.1 sec)
Diagonalizing the Hamiltonian                      ... done (   0.1 sec)
Back transforming the eigenvectors                 ... done (   0.0 sec)
Now organizing SCF variables                       ... done
                      ------------------
                      INITIAL GUESS DONE (   8.2 sec)
                      ------------------
--------------
SCF ITERATIONS
--------------
ITER       Energy         Delta-E        Max-DP      RMS-DP      [F,P]     Damp
               ***  Starting incremental Fock matrix formation  ***
  0  -1270.0034747264   0.000000000000 0.04928896  0.00044162  0.3167231 0.7000
  1  -1270.2703374995  -0.266862773111 0.03607214  0.00035843  0.1869333 0.7000
                               ***Turning on DIIS***
  2  -1270.4365625524  -0.166225052856 0.02583838  0.00023903  0.1098562 0.7000
  3  -1272.5552566093  -2.118694056988 0.06316471  0.00051223  0.0830050 0.0000
  4  -1270.7466797530   1.808576856392 0.01315190  0.00010295  0.0067090 0.0000
  5  -1270.8034522725  -0.056772519556 0.00675844  0.00005503  0.0038550 0.0000
                      *** Initiating the SOSCF procedure ***
                           *** Shutting down DIIS ***
                      *** Re-Reading the Fockian *** 
                      *** Removing any level shift *** 
ITER      Energy       Delta-E        Grad      Rot      Max-DP    RMS-DP
  6  -1270.78300113   0.0204511432  0.001721  0.001721  0.003246  0.000028
               *** Restarting incremental Fock matrix formation ***
  7  -1270.79778043  -0.0147793032  0.000995  0.002518  0.001769  0.000018
  8  -1270.79782986  -0.0000494258  0.000449  0.003001  0.001999  0.000020
  9  -1270.79784932  -0.0000194587  0.000161  0.000325  0.000384  0.000005
 10  -1270.79785185  -0.0000025312  0.000047  0.000126  0.000127  0.000001
 11  -1270.79785209  -0.0000002457  0.000022  0.000121  0.000087  0.000001
 12  -1270.79785216  -0.0000000684  0.000010  0.000038  0.000029  0.000000
 13  -1270.79785217  -0.0000000076  0.000003  0.000009  0.000007  0.000000
                  ***Gradient check signals convergence***
              ***Rediagonalizing the Fockian in SOSCF/NRSCF***

               *****************************************************
               *                     SUCCESS                       *
               *           SCF CONVERGED AFTER  14 CYCLES          *
               *****************************************************


----------------
TOTAL SCF ENERGY
----------------

Total Energy       :        -1270.79785217 Eh          -34580.16758 eV

Components:
Nuclear Repulsion  :         1736.62825782 Eh           47256.05735 eV
Electronic Energy  :        -3007.42610998 Eh          -81836.22493 eV
One Electron Energy:        -5193.95794626 Eh         -141334.78104 eV
Two Electron Energy:         2186.53183628 Eh           59498.55611 eV

Virial components:
Potential Energy   :        -2539.79498074 Eh          -69111.33498 eV
Kinetic Energy     :         1268.99712857 Eh           34531.16740 eV
Virial Ratio       :            2.00141901


---------------
SCF CONVERGENCE
---------------

  Last Energy change         ...    1.9354e-09  Tolerance :   1.0000e-08
  Last MAX-Density change    ...    3.9900e-06  Tolerance :   1.0000e-07
  Last RMS-Density change    ...    3.8461e-08  Tolerance :   5.0000e-09
  Last Orbital Gradient      ...    1.6116e-06  Tolerance :   1.0000e-05
  Last Orbital Rotation      ...    4.3271e-06  Tolerance :   1.0000e-05

             **** THE GBW FILE WAS UPDATED (CONFS/Conf199.orca.gbw) ****
             **** DENSITY CONFS/Conf199.orca.scfp WAS UPDATED ****
             **** ENERGY FILE WAS UPDATED (CONFS/Conf199.orca.en.tmp) ****
             **** THE GBW FILE WAS UPDATED (CONFS/Conf199.orca.gbw) ****
             **** DENSITY CONFS/Conf199.orca.scfp WAS UPDATED ****
----------------
ORBITAL ENERGIES
----------------

  NO   OCC          E(Eh)            E(eV) 
   0   2.0000     -91.891218     -2500.4872 
   1   2.0000     -20.600283      -560.5622 
   2   2.0000     -20.596545      -560.4605 
   3   2.0000     -20.550136      -559.1976 
   4   2.0000     -15.629888      -425.3109 
   5   2.0000     -15.611749      -424.8173 
   6   2.0000     -11.396463      -310.1135 
   7   2.0000     -11.387565      -309.8714 
   8   2.0000     -11.334125      -308.4172 
   9   2.0000     -11.316881      -307.9480 
  10   2.0000     -11.312823      -307.8376 
  11   2.0000     -11.303919      -307.5953 
  12   2.0000     -11.266914      -306.5883 
  13   2.0000     -11.263632      -306.4990 
  14   2.0000     -11.262956      -306.4806 
  15   2.0000     -11.256659      -306.3093 
  16   2.0000     -11.246177      -306.0240 
  17   2.0000     -11.242730      -305.9302 
  18   2.0000     -11.239296      -305.8368 
  19   2.0000     -11.225626      -305.4648 
  20   2.0000      -8.896310      -242.0809 
  21   2.0000      -6.577890      -178.9935 
  22   2.0000      -6.575873      -178.9386 
  23   2.0000      -6.575291      -178.9228 
  24   2.0000      -1.447779       -39.3961 
  25   2.0000      -1.420054       -38.6416 
  26   2.0000      -1.359041       -36.9814 
  27   2.0000      -1.342007       -36.5179 
  28   2.0000      -1.240893       -33.7664 
  29   2.0000      -1.161555       -31.6075 
  30   2.0000      -1.125614       -30.6295 
  31   2.0000      -1.048738       -28.5376 
  32   2.0000      -1.035576       -28.1795 
  33   2.0000      -1.018796       -27.7228 
  34   2.0000      -1.005054       -27.3489 
  35   2.0000      -0.989712       -26.9314 
  36   2.0000      -0.927890       -25.2492 
  37   2.0000      -0.883791       -24.0492 
  38   2.0000      -0.855342       -23.2750 
  39   2.0000      -0.842660       -22.9300 
  40   2.0000      -0.837119       -22.7792 
  41   2.0000      -0.835260       -22.7286 
  42   2.0000      -0.751809       -20.4578 
  43   2.0000      -0.739956       -20.1352 
  44   2.0000      -0.731445       -19.9036 
  45   2.0000      -0.698356       -19.0032 
  46   2.0000      -0.688397       -18.7322 
  47   2.0000      -0.679553       -18.4916 
  48   2.0000      -0.677658       -18.4400 
  49   2.0000      -0.661042       -17.9879 
  50   2.0000      -0.656823       -17.8731 
  51   2.0000      -0.649260       -17.6672 
  52   2.0000      -0.640853       -17.4385 
  53   2.0000      -0.611432       -16.6379 
  54   2.0000      -0.609290       -16.5796 
  55   2.0000      -0.605206       -16.4685 
  56   2.0000      -0.599251       -16.3065 
  57   2.0000      -0.582573       -15.8526 
  58   2.0000      -0.578517       -15.7422 
  59   2.0000      -0.570686       -15.5292 
  60   2.0000      -0.561095       -15.2682 
  61   2.0000      -0.558504       -15.1977 
  62   2.0000      -0.545195       -14.8355 
  63   2.0000      -0.527845       -14.3634 
  64   2.0000      -0.518898       -14.1199 
  65   2.0000      -0.514220       -13.9926 
  66   2.0000      -0.502924       -13.6852 
  67   2.0000      -0.499030       -13.5793 
  68   2.0000      -0.488949       -13.3050 
  69   2.0000      -0.471235       -12.8229 
  70   2.0000      -0.456414       -12.4196 
  71   2.0000      -0.448136       -12.1944 
  72   2.0000      -0.357598        -9.7307 
  73   2.0000      -0.352677        -9.5968 
  74   2.0000      -0.330701        -8.9988 
  75   2.0000      -0.324462        -8.8291 
  76   2.0000      -0.319294        -8.6884 
  77   0.0000       0.076650         2.0857 
  78   0.0000       0.102767         2.7964 
  79   0.0000       0.116299         3.1647 
  80   0.0000       0.127490         3.4692 
  81   0.0000       0.135841         3.6964 
  82   0.0000       0.145169         3.9503 
  83   0.0000       0.149457         4.0669 
  84   0.0000       0.155573         4.2334 
  85   0.0000       0.158082         4.3016 
  86   0.0000       0.168373         4.5817 
  87   0.0000       0.170455         4.6383 
  88   0.0000       0.190247         5.1769 
  89   0.0000       0.196795         5.3551 
  90   0.0000       0.199706         5.4343 
  91   0.0000       0.207597         5.6490 
  92   0.0000       0.210771         5.7354 
  93   0.0000       0.218680         5.9506 
  94   0.0000       0.229642         6.2489 
  95   0.0000       0.236507         6.4357 
  96   0.0000       0.243348         6.6218 
  97   0.0000       0.245683         6.6854 
  98   0.0000       0.256992         6.9931 
  99   0.0000       0.274818         7.4782 
 100   0.0000       0.283538         7.7155 
 101   0.0000       0.296237         8.0610 
 102   0.0000       0.306070         8.3286 
 103   0.0000       0.316392         8.6095 
 104   0.0000       0.319481         8.6935 
 105   0.0000       0.334964         9.1148 
 106   0.0000       0.338626         9.2145 
 107   0.0000       0.343403         9.3445 
 108   0.0000       0.350829         9.5465 
 109   0.0000       0.357939         9.7400 
 110   0.0000       0.369390        10.0516 
 111   0.0000       0.371628        10.1125 
 112   0.0000       0.377279        10.2663 
 113   0.0000       0.383377        10.4322 
 114   0.0000       0.401700        10.9308 
 115   0.0000       0.413049        11.2396 
 116   0.0000       0.419757        11.4222 
 117   0.0000       0.426567        11.6075 
 118   0.0000       0.431001        11.7281 
 119   0.0000       0.437560        11.9066 
 120   0.0000       0.445332        12.1181 
 121   0.0000       0.446111        12.1393 
 122   0.0000       0.453306        12.3351 
 123   0.0000       0.460750        12.5376 
 124   0.0000       0.469787        12.7836 
 125   0.0000       0.473845        12.8940 
 126   0.0000       0.478614        13.0238 
 127   0.0000       0.486993        13.2517 
 128   0.0000       0.490040        13.3347 
 129   0.0000       0.501813        13.6550 
 130   0.0000       0.504465        13.7272 
 131   0.0000       0.513178        13.9643 
 132   0.0000       0.513592        13.9756 
 133   0.0000       0.521989        14.2041 
 134   0.0000       0.525528        14.3004 
 135   0.0000       0.531173        14.4540 
 136   0.0000       0.536372        14.5954 
 137   0.0000       0.545202        14.8357 
 138   0.0000       0.549860        14.9625 
 139   0.0000       0.556004        15.1296 
 140   0.0000       0.559482        15.2243 
 141   0.0000       0.564941        15.3728 
 142   0.0000       0.567846        15.4519 
 143   0.0000       0.571121        15.5410 
 144   0.0000       0.577833        15.7236 
 145   0.0000       0.583448        15.8764 
 146   0.0000       0.589334        16.0366 
 147   0.0000       0.592928        16.1344 
 148   0.0000       0.594373        16.1737 
 149   0.0000       0.598825        16.2949 
 150   0.0000       0.602937        16.4068 
 151   0.0000       0.608788        16.5660 
 152   0.0000       0.612316        16.6620 
 153   0.0000       0.618810        16.8387 
 154   0.0000       0.621368        16.9083 
 155   0.0000       0.624245        16.9866 
 156   0.0000       0.628711        17.1081 
 157   0.0000       0.632182        17.2025 
 158   0.0000       0.636665        17.3245 
 159   0.0000       0.646577        17.5942 
 160   0.0000       0.649929        17.6855 
 161   0.0000       0.653943        17.7947 
 162   0.0000       0.661660        18.0047 
 163   0.0000       0.668698        18.1962 
 164   0.0000       0.671600        18.2752 
 165   0.0000       0.681019        18.5315 
 166   0.0000       0.684745        18.6329 
 167   0.0000       0.690877        18.7997 
 168   0.0000       0.694158        18.8890 
 169   0.0000       0.702001        19.1024 
 170   0.0000       0.706861        19.2347 
 171   0.0000       0.709992        19.3199 
 172   0.0000       0.714829        19.4515 
 173   0.0000       0.731807        19.9135 
 174   0.0000       0.738114        20.0851 
 175   0.0000       0.739416        20.1205 
 176   0.0000       0.741522        20.1779 
 177   0.0000       0.743417        20.2294 
 178   0.0000       0.746684        20.3183 
 179   0.0000       0.764778        20.8107 
 180   0.0000       0.770310        20.9612 
 181   0.0000       0.779385        21.2081 
 182   0.0000       0.789181        21.4747 
 183   0.0000       0.793871        21.6023 
 184   0.0000       0.796742        21.6805 
 185   0.0000       0.807649        21.9773 
 186   0.0000       0.808988        22.0137 
 187   0.0000       0.824647        22.4398 
 188   0.0000       0.832502        22.6535 
 189   0.0000       0.840395        22.8683 
 190   0.0000       0.850338        23.1389 
 191   0.0000       0.855351        23.2753 
 192   0.0000       0.862058        23.4578 
 193   0.0000       0.867979        23.6189 
 194   0.0000       0.875295        23.8180 
 195   0.0000       0.886487        24.1225 
 196   0.0000       0.889481        24.2040 
 197   0.0000       0.895897        24.3786 
 198   0.0000       0.903999        24.5991 
 199   0.0000       0.913699        24.8630 
 200   0.0000       0.921630        25.0788 
 201   0.0000       0.931369        25.3438 
 202   0.0000       0.932660        25.3790 
 203   0.0000       0.937042        25.4982 
 204   0.0000       0.943124        25.6637 
 205   0.0000       0.952301        25.9134 
 206   0.0000       0.955132        25.9905 
 207   0.0000       0.959718        26.1153 
 208   0.0000       0.969138        26.3716 
 209   0.0000       0.974240        26.5104 
 210   0.0000       0.975068        26.5330 
 211   0.0000       0.995639        27.0927 
 212   0.0000       1.004909        27.3450 
 213   0.0000       1.012199        27.5433 
 214   0.0000       1.016937        27.6723 
 215   0.0000       1.023167        27.8418 
 216   0.0000       1.026894        27.9432 
 217   0.0000       1.034886        28.1607 
 218   0.0000       1.039522        28.2868 
 219   0.0000       1.047536        28.5049 
 220   0.0000       1.053311        28.6620 
 221   0.0000       1.061143        28.8752 
 222   0.0000       1.066299        29.0155 
 223   0.0000       1.074998        29.2522 
 224   0.0000       1.086078        29.5537 
 225   0.0000       1.092615        29.7316 
 226   0.0000       1.100664        29.9506 
 227   0.0000       1.105718        30.0881 
 228   0.0000       1.111857        30.2552 
 229   0.0000       1.117190        30.4003 
 230   0.0000       1.128920        30.7195 
 231   0.0000       1.132276        30.8108 
 232   0.0000       1.144191        31.1350 
 233   0.0000       1.150757        31.3137 
 234   0.0000       1.155591        31.4452 
 235   0.0000       1.166471        31.7413 
 236   0.0000       1.174414        31.9574 
 237   0.0000       1.181367        32.1466 
 238   0.0000       1.183565        32.2064 
 239   0.0000       1.189502        32.3680 
 240   0.0000       1.202107        32.7110 
 241   0.0000       1.208229        32.8776 
 242   0.0000       1.211714        32.9724 
 243   0.0000       1.224351        33.3163 
 244   0.0000       1.229255        33.4497 
 245   0.0000       1.237359        33.6702 
 246   0.0000       1.241923        33.7945 
 247   0.0000       1.246557        33.9205 
 248   0.0000       1.250808        34.0362 
 249   0.0000       1.263541        34.3827 
 250   0.0000       1.270652        34.5762 
 251   0.0000       1.272876        34.6367 
 252   0.0000       1.288092        35.0508 
 253   0.0000       1.292518        35.1712 
 254   0.0000       1.302993        35.4562 
 255   0.0000       1.306284        35.5458 
 256   0.0000       1.312757        35.7219 
 257   0.0000       1.322255        35.9804 
 258   0.0000       1.328294        36.1447 
 259   0.0000       1.331991        36.2453 
 260   0.0000       1.341222        36.4965 
 261   0.0000       1.358527        36.9674 
 262   0.0000       1.362769        37.0828 
 263   0.0000       1.368429        37.2368 
 264   0.0000       1.380119        37.5550 
 265   0.0000       1.388499        37.7830 
 266   0.0000       1.399626        38.0858 
 267   0.0000       1.409716        38.3603 
 268   0.0000       1.411568        38.4107 
 269   0.0000       1.422690        38.7134 
 270   0.0000       1.428599        38.8741 
 271   0.0000       1.435973        39.0748 
 272   0.0000       1.439956        39.1832 
 273   0.0000       1.446090        39.3501 
 274   0.0000       1.455194        39.5978 
 275   0.0000       1.457390        39.6576 
 276   0.0000       1.469588        39.9895 
 277   0.0000       1.482382        40.3377 
 278   0.0000       1.487408        40.4744 
 279   0.0000       1.493305        40.6349 
 280   0.0000       1.502223        40.8776 
 281   0.0000       1.503856        40.9220 
 282   0.0000       1.514064        41.1998 
 283   0.0000       1.519533        41.3486 
 284   0.0000       1.527518        41.5659 
 285   0.0000       1.536262        41.8038 
 286   0.0000       1.540079        41.9077 
 287   0.0000       1.545101        42.0443 
 288   0.0000       1.552311        42.2405 
 289   0.0000       1.564376        42.5688 
 290   0.0000       1.567601        42.6566 
 291   0.0000       1.578001        42.9396 
 292   0.0000       1.579923        42.9919 
 293   0.0000       1.590720        43.2857 
 294   0.0000       1.608008        43.7561 
 295   0.0000       1.609522        43.7973 
 296   0.0000       1.618025        44.0287 
 297   0.0000       1.621012        44.1100 
 298   0.0000       1.628782        44.3214 
 299   0.0000       1.636598        44.5341 
 300   0.0000       1.641504        44.6676 
 301   0.0000       1.646282        44.7976 
 302   0.0000       1.653706        44.9996 
 303   0.0000       1.665371        45.3170 
 304   0.0000       1.677837        45.6563 
 305   0.0000       1.684820        45.8463 
 306   0.0000       1.688790        45.9543 
 307   0.0000       1.696581        46.1663 
 308   0.0000       1.705701        46.4145 
 309   0.0000       1.722315        46.8666 
 310   0.0000       1.725580        46.9554 
 311   0.0000       1.735992        47.2388 
 312   0.0000       1.737291        47.2741 
 313   0.0000       1.744923        47.4818 
 314   0.0000       1.750741        47.6401 
 315   0.0000       1.764779        48.0221 
 316   0.0000       1.781776        48.4846 
 317   0.0000       1.786777        48.6207 
 318   0.0000       1.800637        48.9978 
 319   0.0000       1.806754        49.1643 
 320   0.0000       1.824472        49.6464 
 321   0.0000       1.838978        50.0411 
 322   0.0000       1.839834        50.0644 
 323   0.0000       1.852074        50.3975 
 324   0.0000       1.854736        50.4699 
 325   0.0000       1.859297        50.5940 
 326   0.0000       1.888540        51.3898 
 327   0.0000       1.896704        51.6119 
 328   0.0000       1.902849        51.7791 
 329   0.0000       1.909849        51.9696 
 330   0.0000       1.922343        52.3096 
 331   0.0000       1.932276        52.5799 
 332   0.0000       1.939624        52.7799 
 333   0.0000       1.947579        52.9963 
 334   0.0000       1.974578        53.7310 
 335   0.0000       1.978636        53.8414 
 336   0.0000       1.996418        54.3253 
 337   0.0000       2.003045        54.5056 
 338   0.0000       2.014103        54.8065 
 339   0.0000       2.020841        54.9899 
 340   0.0000       2.028119        55.1879 
 341   0.0000       2.032708        55.3128 
 342   0.0000       2.053557        55.8801 
 343   0.0000       2.072469        56.3948 
 344   0.0000       2.088677        56.8358 
 345   0.0000       2.097205        57.0678 
 346   0.0000       2.123979        57.7964 
 347   0.0000       2.138603        58.1943 
 348   0.0000       2.155299        58.6487 
 349   0.0000       2.171163        59.0804 
 350   0.0000       2.181966        59.3743 
 351   0.0000       2.208737        60.1028 
 352   0.0000       2.216255        60.3074 
 353   0.0000       2.229601        60.6705 
 354   0.0000       2.249938        61.2239 
 355   0.0000       2.272905        61.8489 
 356   0.0000       2.280624        62.0589 
 357   0.0000       2.289932        62.3122 
 358   0.0000       2.303376        62.6780 
 359   0.0000       2.313106        62.9428 
 360   0.0000       2.319079        63.1054 
 361   0.0000       2.341337        63.7110 
 362   0.0000       2.353120        64.0317 
 363   0.0000       2.364017        64.3282 
 364   0.0000       2.370544        64.5058 
 365   0.0000       2.384825        64.8944 
 366   0.0000       2.386817        64.9486 
 367   0.0000       2.403488        65.4022 
 368   0.0000       2.411218        65.6126 
 369   0.0000       2.428171        66.0739 
 370   0.0000       2.443825        66.4999 
 371   0.0000       2.466875        67.1271 
 372   0.0000       2.475446        67.3603 
 373   0.0000       2.483575        67.5815 
 374   0.0000       2.504265        68.1445 
 375   0.0000       2.507647        68.2365 
 376   0.0000       2.531614        68.8887 
 377   0.0000       2.542280        69.1790 
 378   0.0000       2.553166        69.4752 
 379   0.0000       2.563571        69.7583 
 380   0.0000       2.584997        70.3413 
 381   0.0000       2.591023        70.5053 
 382   0.0000       2.598719        70.7147 
 383   0.0000       2.602055        70.8055 
 384   0.0000       2.612959        71.1022 
 385   0.0000       2.634441        71.6868 
 386   0.0000       2.638323        71.7924 
 387   0.0000       2.655292        72.2542 
 388   0.0000       2.661795        72.4311 
 389   0.0000       2.668201        72.6055 
 390   0.0000       2.695295        73.3427 
 391   0.0000       2.698721        73.4359 
 392   0.0000       2.711083        73.7723 
 393   0.0000       2.715064        73.8807 
 394   0.0000       2.727134        74.2091 
 395   0.0000       2.739821        74.5543 
 396   0.0000       2.747934        74.7751 
 397   0.0000       2.757260        75.0289 
 398   0.0000       2.767334        75.3030 
 399   0.0000       2.770690        75.3943 
 400   0.0000       2.784339        75.7657 
 401   0.0000       2.794232        76.0349 
 402   0.0000       2.800478        76.2049 
 403   0.0000       2.815670        76.6183 
 404   0.0000       2.820792        76.7577 
 405   0.0000       2.829073        76.9830 
 406   0.0000       2.839318        77.2618 
 407   0.0000       2.845106        77.4193 
 408   0.0000       2.852492        77.6203 
 409   0.0000       2.870747        78.1170 
 410   0.0000       2.877368        78.2972 
 411   0.0000       2.887932        78.5846 
 412   0.0000       2.892032        78.6962 
 413   0.0000       2.911183        79.2173 
 414   0.0000       2.917088        79.3780 
 415   0.0000       2.935825        79.8879 
 416   0.0000       2.942789        80.0774 
 417   0.0000       2.949764        80.2671 
 418   0.0000       2.958101        80.4940 
 419   0.0000       2.965208        80.6874 
 420   0.0000       2.973997        80.9266 
 421   0.0000       2.982782        81.1656 
 422   0.0000       2.992376        81.4267 
 423   0.0000       2.996624        81.5423 
 424   0.0000       3.001666        81.6795 
 425   0.0000       3.010251        81.9131 
 426   0.0000       3.018435        82.1358 
 427   0.0000       3.026727        82.3614 
 428   0.0000       3.035908        82.6113 
 429   0.0000       3.038334        82.6773 
 430   0.0000       3.045212        82.8644 
 431   0.0000       3.052360        83.0589 
 432   0.0000       3.068670        83.5028 
 433   0.0000       3.075942        83.7006 
 434   0.0000       3.078384        83.7671 
 435   0.0000       3.089710        84.0753 
 436   0.0000       3.101209        84.3882 
 437   0.0000       3.101625        84.3995 
 438   0.0000       3.108108        84.5759 
 439   0.0000       3.111687        84.6733 
 440   0.0000       3.120105        84.9024 
 441   0.0000       3.130516        85.1857 
 442   0.0000       3.133168        85.2578 
 443   0.0000       3.139660        85.4345 
 444   0.0000       3.149562        85.7039 
 445   0.0000       3.156000        85.8791 
 446   0.0000       3.167401        86.1894 
 447   0.0000       3.172574        86.3301 
 448   0.0000       3.182872        86.6103 
 449   0.0000       3.190002        86.8044 
 450   0.0000       3.203898        87.1825 
 451   0.0000       3.204676        87.2037 
 452   0.0000       3.217549        87.5540 
 453   0.0000       3.222863        87.6986 
 454   0.0000       3.225692        87.7755 
 455   0.0000       3.233050        87.9758 
 456   0.0000       3.235414        88.0401 
 457   0.0000       3.241169        88.1967 
 458   0.0000       3.250810        88.4590 
 459   0.0000       3.264245        88.8246 
 460   0.0000       3.269574        88.9696 
 461   0.0000       3.275767        89.1382 
 462   0.0000       3.280792        89.2749 
 463   0.0000       3.289513        89.5122 
 464   0.0000       3.299807        89.7923 
 465   0.0000       3.303077        89.8813 
 466   0.0000       3.313301        90.1595 
 467   0.0000       3.317139        90.2639 
 468   0.0000       3.325798        90.4996 
 469   0.0000       3.334843        90.7457 
 470   0.0000       3.343030        90.9685 
 471   0.0000       3.345223        91.0281 
 472   0.0000       3.351780        91.2066 
 473   0.0000       3.355603        91.3106 
 474   0.0000       3.366495        91.6070 
 475   0.0000       3.368454        91.6603 
 476   0.0000       3.371421        91.7410 
 477   0.0000       3.375279        91.8460 
 478   0.0000       3.380054        91.9760 
 479   0.0000       3.389396        92.2302 
 480   0.0000       3.394805        92.3773 
 481   0.0000       3.398923        92.4894 
 482   0.0000       3.401991        92.5729 
 483   0.0000       3.404119        92.6308 
 484   0.0000       3.411217        92.8239 
 485   0.0000       3.425814        93.2211 
 486   0.0000       3.427383        93.2638 
 487   0.0000       3.429690        93.3266 
 488   0.0000       3.443714        93.7082 
 489   0.0000       3.447373        93.8078 
 490   0.0000       3.449917        93.8770 
 491   0.0000       3.451935        93.9319 
 492   0.0000       3.459564        94.1395 
 493   0.0000       3.469090        94.3987 
 494   0.0000       3.477234        94.6203 
 495   0.0000       3.479728        94.6882 
 496   0.0000       3.490348        94.9772 
 497   0.0000       3.495320        95.1125 
 498   0.0000       3.506428        95.4148 
 499   0.0000       3.514793        95.6424 
 500   0.0000       3.516949        95.7010 
 501   0.0000       3.521418        95.8227 
 502   0.0000       3.530634        96.0734 
 503   0.0000       3.537852        96.2699 
 504   0.0000       3.544859        96.4605 
 505   0.0000       3.560881        96.8965 
 506   0.0000       3.570864        97.1682 
 507   0.0000       3.577740        97.3552 
 508   0.0000       3.581387        97.4545 
 509   0.0000       3.587814        97.6294 
 510   0.0000       3.598824        97.9290 
 511   0.0000       3.607137        98.1552 
 512   0.0000       3.613734        98.3347 
 513   0.0000       3.620934        98.5306 
 514   0.0000       3.624984        98.6408 
 515   0.0000       3.628866        98.7465 
 516   0.0000       3.630322        98.7861 
 517   0.0000       3.637469        98.9806 
 518   0.0000       3.640174        99.0542 
 519   0.0000       3.642737        99.1239 
 520   0.0000       3.658583        99.5551 
 521   0.0000       3.661222        99.6269 
 522   0.0000       3.668497        99.8249 
 523   0.0000       3.669806        99.8605 
 524   0.0000       3.676821       100.0514 
 525   0.0000       3.685093       100.2765 
 526   0.0000       3.697074       100.6025 
 527   0.0000       3.701432       100.7211 
 528   0.0000       3.702226       100.7427 
 529   0.0000       3.709551       100.9420 
 530   0.0000       3.717979       101.1713 
 531   0.0000       3.725060       101.3640 
 532   0.0000       3.732901       101.5774 
 533   0.0000       3.742050       101.8264 
 534   0.0000       3.749874       102.0393 
 535   0.0000       3.754283       102.1592 
 536   0.0000       3.760134       102.3184 
 537   0.0000       3.761768       102.3629 
 538   0.0000       3.767707       102.5245 
 539   0.0000       3.779438       102.8437 
 540   0.0000       3.789697       103.1229 
 541   0.0000       3.796275       103.3019 
 542   0.0000       3.800085       103.4056 
 543   0.0000       3.804510       103.5260 
 544   0.0000       3.816697       103.8576 
 545   0.0000       3.819898       103.9447 
 546   0.0000       3.827728       104.1578 
 547   0.0000       3.842037       104.5471 
 548   0.0000       3.845402       104.6387 
 549   0.0000       3.846761       104.6757 
 550   0.0000       3.857127       104.9578 
 551   0.0000       3.859577       105.0244 
 552   0.0000       3.879270       105.5603 
 553   0.0000       3.887074       105.7727 
 554   0.0000       3.900508       106.1382 
 555   0.0000       3.902755       106.1994 
 556   0.0000       3.915555       106.5477 
 557   0.0000       3.920276       106.6761 
 558   0.0000       3.922423       106.7346 
 559   0.0000       3.926196       106.8372 
 560   0.0000       3.944594       107.3379 
 561   0.0000       3.952925       107.5646 
 562   0.0000       3.963778       107.8599 
 563   0.0000       3.971748       108.0768 
 564   0.0000       3.984285       108.4179 
 565   0.0000       3.989368       108.5562 
 566   0.0000       3.994542       108.6970 
 567   0.0000       4.007089       109.0384 
 568   0.0000       4.019426       109.3742 
 569   0.0000       4.024941       109.5242 
 570   0.0000       4.029133       109.6383 
 571   0.0000       4.043779       110.0368 
 572   0.0000       4.046537       110.1119 
 573   0.0000       4.058671       110.4421 
 574   0.0000       4.063322       110.5686 
 575   0.0000       4.072099       110.8075 
 576   0.0000       4.083788       111.1255 
 577   0.0000       4.089357       111.2771 
 578   0.0000       4.098323       111.5210 
 579   0.0000       4.105429       111.7144 
 580   0.0000       4.109997       111.8387 
 581   0.0000       4.122540       112.1800 
 582   0.0000       4.128350       112.3381 
 583   0.0000       4.131724       112.4299 
 584   0.0000       4.138612       112.6174 
 585   0.0000       4.151498       112.9680 
 586   0.0000       4.157256       113.1247 
 587   0.0000       4.160742       113.2195 
 588   0.0000       4.179362       113.7262 
 589   0.0000       4.180488       113.7569 
 590   0.0000       4.184110       113.8554 
 591   0.0000       4.191597       114.0591 
 592   0.0000       4.195760       114.1724 
 593   0.0000       4.198321       114.2421 
 594   0.0000       4.204511       114.4106 
 595   0.0000       4.217553       114.7655 
 596   0.0000       4.233357       115.1955 
 597   0.0000       4.234510       115.2269 
 598   0.0000       4.240247       115.3830 
 599   0.0000       4.251959       115.7017 
 600   0.0000       4.257590       115.8549 
 601   0.0000       4.265801       116.0783 
 602   0.0000       4.273419       116.2856 
 603   0.0000       4.281954       116.5179 
 604   0.0000       4.293424       116.8300 
 605   0.0000       4.301486       117.0494 
 606   0.0000       4.311528       117.3226 
 607   0.0000       4.317397       117.4824 
 608   0.0000       4.328994       117.7979 
 609   0.0000       4.339799       118.0919 
 610   0.0000       4.348414       118.3264 
 611   0.0000       4.354667       118.4965 
 612   0.0000       4.360433       118.6534 
 613   0.0000       4.369660       118.9045 
 614   0.0000       4.378840       119.1543 
 615   0.0000       4.379195       119.1640 
 616   0.0000       4.391622       119.5021 
 617   0.0000       4.403383       119.8221 
 618   0.0000       4.406746       119.9137 
 619   0.0000       4.411328       120.0383 
 620   0.0000       4.419279       120.2547 
 621   0.0000       4.425938       120.4359 
 622   0.0000       4.438473       120.7770 
 623   0.0000       4.441401       120.8567 
 624   0.0000       4.446037       120.9828 
 625   0.0000       4.458318       121.3170 
 626   0.0000       4.464873       121.4954 
 627   0.0000       4.482292       121.9694 
 628   0.0000       4.484626       122.0329 
 629   0.0000       4.498902       122.4213 
 630   0.0000       4.507896       122.6661 
 631   0.0000       4.511626       122.7676 
 632   0.0000       4.525097       123.1341 
 633   0.0000       4.526024       123.1594 
 634   0.0000       4.535829       123.4262 
 635   0.0000       4.543738       123.6414 
 636   0.0000       4.555828       123.9704 
 637   0.0000       4.564156       124.1970 
 638   0.0000       4.568267       124.3089 
 639   0.0000       4.582844       124.7055 
 640   0.0000       4.594259       125.0161 
 641   0.0000       4.602237       125.2332 
 642   0.0000       4.613414       125.5374 
 643   0.0000       4.619758       125.7100 
 644   0.0000       4.625595       125.8688 
 645   0.0000       4.635564       126.1401 
 646   0.0000       4.639513       126.2476 
 647   0.0000       4.646361       126.4339 
 648   0.0000       4.652712       126.6067 
 649   0.0000       4.654788       126.6632 
 650   0.0000       4.666960       126.9944 
 651   0.0000       4.674483       127.1992 
 652   0.0000       4.682448       127.4159 
 653   0.0000       4.686261       127.5196 
 654   0.0000       4.696415       127.7959 
 655   0.0000       4.707525       128.0983 
 656   0.0000       4.713476       128.2602 
 657   0.0000       4.719841       128.4334 
 658   0.0000       4.734309       128.8271 
 659   0.0000       4.742694       129.0553 
 660   0.0000       4.774426       129.9187 
 661   0.0000       4.783287       130.1599 
 662   0.0000       4.789761       130.3360 
 663   0.0000       4.793110       130.4272 
 664   0.0000       4.815179       131.0277 
 665   0.0000       4.830803       131.4528 
 666   0.0000       4.845508       131.8530 
 667   0.0000       4.863833       132.3516 
 668   0.0000       4.886541       132.9696 
 669   0.0000       4.903565       133.4328 
 670   0.0000       4.910857       133.6312 
 671   0.0000       4.919914       133.8777 
 672   0.0000       4.939621       134.4139 
 673   0.0000       4.957280       134.8944 
 674   0.0000       4.980062       135.5144 
 675   0.0000       4.991656       135.8299 
 676   0.0000       5.009535       136.3164 
 677   0.0000       5.015138       136.4688 
 678   0.0000       5.027201       136.7971 
 679   0.0000       5.029162       136.8505 
 680   0.0000       5.048646       137.3806 
 681   0.0000       5.066947       137.8786 
 682   0.0000       5.092445       138.5725 
 683   0.0000       5.096359       138.6790 
 684   0.0000       5.109012       139.0233 
 685   0.0000       5.123542       139.4187 
 686   0.0000       5.128456       139.5524 
 687   0.0000       5.139092       139.8418 
 688   0.0000       5.156503       140.3156 
 689   0.0000       5.158572       140.3719 
 690   0.0000       5.170217       140.6887 
 691   0.0000       5.176029       140.8469 
 692   0.0000       5.181009       140.9824 
 693   0.0000       5.201532       141.5409 
 694   0.0000       5.213142       141.8568 
 695   0.0000       5.220060       142.0450 
 696   0.0000       5.222449       142.1101 
 697   0.0000       5.227783       142.2552 
 698   0.0000       5.240895       142.6120 
 699   0.0000       5.244303       142.7047 
 700   0.0000       5.263074       143.2155 
 701   0.0000       5.275088       143.5424 
 702   0.0000       5.298450       144.1781 
 703   0.0000       5.322167       144.8235 
 704   0.0000       5.327360       144.9648 
 705   0.0000       5.337585       145.2431 
 706   0.0000       5.347895       145.5236 
 707   0.0000       5.355357       145.7267 
 708   0.0000       5.357628       145.7885 
 709   0.0000       5.380952       146.4231 
 710   0.0000       5.386357       146.5702 
 711   0.0000       5.416414       147.3881 
 712   0.0000       5.441543       148.0719 
 713   0.0000       5.461948       148.6272 
 714   0.0000       5.471355       148.8831 
 715   0.0000       5.490387       149.4010 
 716   0.0000       5.499638       149.6528 
 717   0.0000       5.503736       149.7643 
 718   0.0000       5.518505       150.1662 
 719   0.0000       5.528792       150.4461 
 720   0.0000       5.535630       150.6321 
 721   0.0000       5.544832       150.8825 
 722   0.0000       5.554686       151.1507 
 723   0.0000       5.563021       151.3775 
 724   0.0000       5.578746       151.8054 
 725   0.0000       5.604103       152.4954 
 726   0.0000       5.614627       152.7818 
 727   0.0000       5.635030       153.3370 
 728   0.0000       5.642595       153.5428 
 729   0.0000       5.645086       153.6106 
 730   0.0000       5.664434       154.1371 
 731   0.0000       5.665507       154.1663 
 732   0.0000       5.675228       154.4308 
 733   0.0000       5.684827       154.6920 
 734   0.0000       5.691834       154.8827 
 735   0.0000       5.705219       155.2469 
 736   0.0000       5.723736       155.7508 
 737   0.0000       5.735741       156.0774 
 738   0.0000       5.740722       156.2130 
 739   0.0000       5.749514       156.4522 
 740   0.0000       5.759097       156.7130 
 741   0.0000       5.772417       157.0754 
 742   0.0000       5.785980       157.4445 
 743   0.0000       5.806735       158.0093 
 744   0.0000       5.819713       158.3625 
 745   0.0000       5.848973       159.1586 
 746   0.0000       5.864642       159.5850 
 747   0.0000       5.871243       159.7646 
 748   0.0000       5.893747       160.3770 
 749   0.0000       5.907987       160.7645 
 750   0.0000       5.933274       161.4526 
 751   0.0000       5.956623       162.0879 
 752   0.0000       5.973519       162.5477 
 753   0.0000       5.997644       163.2042 
 754   0.0000       6.005624       163.4213 
 755   0.0000       6.041349       164.3935 
 756   0.0000       6.052841       164.7062 
 757   0.0000       6.062885       164.9795 
 758   0.0000       6.072035       165.2285 
 759   0.0000       6.090726       165.7371 
 760   0.0000       6.096741       165.9008 
 761   0.0000       6.175583       168.0462 
 762   0.0000       6.220077       169.2569 
 763   0.0000       6.238519       169.7587 
 764   0.0000       6.246602       169.9787 
 765   0.0000       6.286244       171.0574 
 766   0.0000       6.316568       171.8826 
 767   0.0000       6.340943       172.5458 
 768   0.0000       6.346969       172.7098 
 769   0.0000       6.359515       173.0512 
 770   0.0000       6.374017       173.4458 
 771   0.0000       6.385264       173.7519 
 772   0.0000       6.401746       174.2004 
 773   0.0000       6.438896       175.2113 
 774   0.0000       6.458758       175.7517 
 775   0.0000       6.464003       175.8945 
 776   0.0000       6.500340       176.8832 
 777   0.0000       6.554234       178.3498 
 778   0.0000       6.601603       179.6388 
 779   0.0000       6.622538       180.2084 
 780   0.0000       6.643658       180.7831 
 781   0.0000       6.689411       182.0281 
 782   0.0000       6.730486       183.1458 
 783   0.0000       6.758547       183.9094 
 784   0.0000       6.832213       185.9140 
 785   0.0000       6.852034       186.4533 
 786   0.0000       6.907442       187.9611 
 787   0.0000       6.920669       188.3210 
 788   0.0000       6.951379       189.1566 
 789   0.0000       7.007860       190.6936 
 790   0.0000       7.053641       191.9393 
 791   0.0000       7.065689       192.2672 
 792   0.0000       7.080960       192.6827 
 793   0.0000       7.130690       194.0360 
 794   0.0000       7.198971       195.8940 
 795   0.0000       7.256078       197.4479 
 796   0.0000       7.281050       198.1274 
 797   0.0000       7.287002       198.2894 
 798   0.0000       7.342045       199.7872 
 799   0.0000       7.391957       201.1454 
 800   0.0000       7.399270       201.3444 
 801   0.0000       7.533622       205.0003 
 802   0.0000       7.571811       206.0395 
 803   0.0000       7.585314       206.4069 
 804   0.0000       7.630783       207.6442 
 805   0.0000       7.775639       211.5859 
 806   0.0000       7.822153       212.8516 
 807   0.0000       7.931291       215.8214 
 808   0.0000       7.969346       216.8569 
 809   0.0000       9.431184       256.6356 
 810   0.0000       9.719765       264.4882 
 811   0.0000      10.848625       295.2061 
 812   0.0000      11.221993       305.3660 
 813   0.0000      12.008967       326.7806 
 814   0.0000      12.589745       342.5844 
 815   0.0000      12.949155       352.3644 
 816   0.0000      13.106447       356.6446 
 817   0.0000      13.258937       360.7940 
 818   0.0000      13.411776       364.9530 
 819   0.0000      13.513397       367.7182 
 820   0.0000      13.553319       368.8046 
 821   0.0000      13.681376       372.2892 
 822   0.0000      13.965356       380.0166 
 823   0.0000      14.004602       381.0846 
 824   0.0000      14.205091       386.5402 
 825   0.0000      14.483510       394.1163 
 826   0.0000      14.635927       398.2638 
 827   0.0000      15.994998       435.2460 

                    ********************************
                    * MULLIKEN POPULATION ANALYSIS *
                    ********************************

-----------------------
MULLIKEN ATOMIC CHARGES
-----------------------
   0 C :   -0.266997
   1 C :   -0.003493
   2 O :   -0.333992
   3 C :    0.425640
   4 O :   -0.385522
   5 C :   -0.218736
   6 C :    0.148291
   7 C :   -0.310631
   8 N :   -0.132112
   9 C :    0.201056
  10 S :   -0.438147
  11 N :   -0.207243
  12 C :    0.067232
  13 C :    0.032982
  14 C :   -0.182661
  15 C :   -0.131314
  16 C :   -0.278569
  17 C :    0.319026
  18 O :   -0.360763
  19 C :   -0.290931
  20 H :    0.107892
  21 H :    0.108761
  22 H :    0.091163
  23 H :    0.114700
  24 H :    0.105764
  25 H :    0.138021
  26 H :    0.125086
  27 H :    0.120277
  28 H :    0.197543
  29 H :    0.196557
  30 H :    0.160979
  31 H :    0.165024
  32 H :    0.163843
  33 H :    0.132086
  34 H :    0.242113
  35 H :    0.177075
Sum of atomic charges:   -0.0000000

--------------------------------
MULLIKEN REDUCED ORBITAL CHARGES
--------------------------------
  0 C s       :     3.258108  s :     3.258108
      pz      :     1.011032  p :     2.931867
      px      :     0.988961
      py      :     0.931874
      dz2     :     0.005787  d :     0.072513
      dxz     :     0.014624
      dyz     :     0.025597
      dx2y2   :     0.016082
      dxy     :     0.010423
      f0      :     0.000397  f :     0.004509
      f+1     :     0.000095
      f-1     :     0.000683
      f+2     :     0.001546
      f-2     :     0.000802
      f+3     :     0.000675
      f-3     :     0.000311
  1 C s       :     3.176241  s :     3.176241
      pz      :     0.917213  p :     2.652529
      px      :     0.736805
      py      :     0.998510
      dz2     :     0.017930  d :     0.162896
      dxz     :     0.040687
      dyz     :     0.034198
      dx2y2   :     0.031973
      dxy     :     0.038107
      f0      :     0.000849  f :     0.011826
      f+1     :     0.001909
      f-1     :     0.000885
      f+2     :     0.002538
      f-2     :     0.001910
      f+3     :     0.001807
      f-3     :     0.001927
  2 O s       :     3.723285  s :     3.723285
      pz      :     1.622363  p :     4.575390
      px      :     1.162018
      py      :     1.791009
      dz2     :     0.004098  d :     0.033047
      dxz     :     0.013673
      dyz     :     0.002940
      dx2y2   :     0.004729
      dxy     :     0.007607
      f0      :     0.000181  f :     0.002269
      f+1     :     0.000237
      f-1     :     0.000032
      f+2     :     0.000559
      f-2     :     0.000275
[...]
 15 C s       :     2.705679  s :     2.705679
      pz      :     0.876583  p :     2.793429
      px      :     0.951293
      py      :     0.965553
      dz2     :     0.077879  d :     0.415615
      dxz     :     0.073241
      dyz     :     0.048694
      dx2y2   :     0.116701
      dxy     :     0.099100
      f0      :     0.002790  f :     0.041038
      f+1     :     0.004791
      f-1     :     0.005227
      f+2     :     0.006936
      f-2     :     0.006022
      f+3     :     0.007936
      f-3     :     0.007336
 16 C s       :     2.701713  s :     2.701713
      pz      :     0.928563  p :     2.867364
      px      :     0.968784
      py      :     0.970017
      dz2     :     0.036042  d :     0.390729
      dxz     :     0.059831
      dyz     :     0.076439
      dx2y2   :     0.099834
      dxy     :     0.118584
      f0      :     0.003832  f :     0.040348
      f+1     :     0.004350
      f-1     :     0.003403
      f+2     :     0.006105
      f-2     :     0.004887
      f+3     :     0.009190
      f-3     :     0.008581
 17 C s       :     2.701263  s :     2.701263
      pz      :     0.843512  p :     2.683699
      px      :     0.822862
      py      :     1.017325
      dz2     :     0.109306  d :     0.709235
      dxz     :     0.115768
      dyz     :     0.122107
      dx2y2   :     0.179648
      dxy     :     0.182406
      f0      :     0.007621  f :     0.099390
      f+1     :     0.015688
      f-1     :     0.007704
      f+2     :     0.015585
      f-2     :     0.013325
      f+3     :     0.018788
      f-3     :     0.020679
 18 O s       :     3.177180  s :     3.177180
      pz      :     1.477235  p :     4.347720
      px      :     1.371559
      py      :     1.498927
      dz2     :     0.006963  d :     0.075554
      dxz     :     0.017035
      dyz     :     0.014846
      dx2y2   :     0.018241
      dxy     :     0.018469
      f0      :     0.000548  f :     0.005073
      f+1     :     0.000747
      f-1     :     0.000309
      f+2     :     0.000629
      f-2     :     0.000850
      f+3     :     0.000893
      f-3     :     0.001097
 19 C s       :     2.695228  s :     2.695228
      pz      :     0.922259  p :     2.847927
      px      :     0.961796
      py      :     0.963872
      dz2     :     0.063833  d :     0.388792
      dxz     :     0.068735
      dyz     :     0.050332
      dx2y2   :     0.103035
      dxy     :     0.102857
      f0      :     0.002982  f :     0.040826
      f+1     :     0.004721
      f-1     :     0.004759
      f+2     :     0.006957
      f-2     :     0.006482
      f+3     :     0.008003
      f-3     :     0.006923
 20 H s       :     0.843169  s :     0.843169
      pz      :     0.054753  p :     0.151939
      px      :     0.053234
      py      :     0.043951
      dz2     :     0.006748  d :     0.027523
      dxz     :     0.006063
      dyz     :     0.005220
      dx2y2   :     0.005050
      dxy     :     0.004442
 21 H s       :     0.846876  s :     0.846876
      pz      :     0.056567  p :     0.150154
      px      :     0.038909
      py      :     0.054678
      dz2     :     0.006926  d :     0.027493
      dxz     :     0.005565
      dyz     :     0.006930
      dx2y2   :     0.004094
      dxy     :     0.003978
 22 H s       :     0.848036  s :     0.848036
      pz      :     0.047563  p :     0.151364
      px      :     0.065075
      py      :     0.038726
      dz2     :     0.004597  d :     0.027455
      dxz     :     0.007774
      dyz     :     0.002459
      dx2y2   :     0.005962
      dxy     :     0.006663
 23 H s       :     0.857459  s :     0.857459
      pz      :     0.051240  p :     0.145492
      px      :     0.047370
      py      :     0.046882
      dz2     :     0.004790  d :     0.026906
      dxz     :     0.006981
      dyz     :     0.005418
      dx2y2   :     0.004982
      dxy     :     0.004734
 24 H s       :     0.854006  s :     0.854006
      pz      :     0.064294  p :     0.157161
      px      :     0.030634
      py      :     0.062232
      dz2     :     0.007979  d :     0.027797
      dxz     :     0.004305
      dyz     :     0.007964
      dx2y2   :     0.004604
      dxy     :     0.002945
 25 H s       :     0.827705  s :     0.827705
      pz      :     0.054685  p :     0.150700
      px      :     0.040398
      py      :     0.055617
      dz2     :     0.007598  d :     0.027651
      dxz     :     0.004985
      dyz     :     0.006662
      dx2y2   :     0.004712
      dxy     :     0.003693
 26 H s       :     0.835089  s :     0.835089
      pz      :     0.040126  p :     0.150311
      px      :     0.042225
      py      :     0.067961
      dz2     :     0.003383  d :     0.027681
      dxz     :     0.001546
      dyz     :     0.008148
      dx2y2   :     0.007566
      dxy     :     0.007038
 27 H s       :     0.834662  s :     0.834662
      pz      :     0.037773  p :     0.153187
      px      :     0.074446
      py      :     0.040968
      dz2     :     0.002353  d :     0.027718
      dxz     :     0.008783
      dyz     :     0.000193
      dx2y2   :     0.006941
      dxy     :     0.009448
 28 H s       :     0.742468  s :     0.742468
      pz      :     0.056612  p :     0.253415
      px      :     0.088509
      py      :     0.108295
      dz2     :     0.007150  d :     0.061686
      dxz     :     0.003260
      dyz     :     0.015897
      dx2y2   :     0.016586
      dxy     :     0.018793
 29 H s       :     0.747967  s :     0.747967
      pz      :     0.116574  p :     0.254211
      px      :     0.094379
      py      :     0.043258
      dz2     :     0.022226  d :     0.061324
      dxz     :     0.017664
      dyz     :     0.012028
      dx2y2   :     0.005682
      dxy     :     0.003724
 30 H s       :     0.826255  s :     0.826255
      pz      :     0.037855  p :     0.148566
      px      :     0.071651
      py      :     0.039060
      dz2     :     0.002744  d :     0.028273
      dxz     :     0.007845
      dyz     :     0.002021
      dx2y2   :     0.007981
      dxy     :     0.007683
 31 H s       :     0.838666  s :     0.838666
      pz      :     0.051041  p :     0.156015
      px      :     0.068703
      py      :     0.036272
      dz2     :     0.004491  d :     0.027411
      dxz     :     0.007044
      dyz     :     0.002636
      dx2y2   :     0.006461
      dxy     :     0.006778
 32 H s       :     0.841376  s :     0.841376
      pz      :     0.037706  p :     0.150946
      px      :     0.039021
      py      :     0.074219
      dz2     :     0.002639  d :     0.026428
      dxz     :     0.000890
      dyz     :     0.006975
      dx2y2   :     0.007882
      dxy     :     0.008042
 33 H s       :     0.848041  s :     0.848041
      pz      :     0.056471  p :     0.158915
      px      :     0.049117
      py      :     0.053327
      dz2     :     0.005453  d :     0.027738
      dxz     :     0.004615
      dyz     :     0.005671
      dx2y2   :     0.006307
      dxy     :     0.005692
 34 H s       :     0.705929  s :     0.705929
      pz      :     0.116133  p :     0.347381
      px      :     0.082640
      py      :     0.148609
      dz2     :     0.022784  d :     0.099453
      dxz     :     0.011149
      dyz     :     0.024139
      dx2y2   :     0.021518
      dxy     :     0.019864
 35 H s       :     0.838951  s :     0.838951
      pz      :     0.042414  p :     0.158055
      px      :     0.040396
      py      :     0.075244
      dz2     :     0.002646  d :     0.028072
      dxz     :     0.001117
      dyz     :     0.007792
      dx2y2   :     0.008118
      dxy     :     0.008398


                      *****************************
                      * MAYER POPULATION ANALYSIS *
                      *****************************

  NA   - Mulliken gross atomic population
  ZA   - Total nuclear charge
  QA   - Mulliken gross atomic charge
  VA   - Mayer's total valence
  BVA  - Mayer's bonded valence
  FA   - Mayer's free valence

  ATOM       NA         ZA         QA         VA         BVA        FA
  0 C      6.2670     6.0000    -0.2670     3.9011     3.9011     0.0000
  1 C      6.0035     6.0000    -0.0035     3.8526     3.8526    -0.0000
  2 O      8.3340     8.0000    -0.3340     2.0330     2.0330     0.0000
  3 C      5.5744     6.0000     0.4256     4.2456     4.2456     0.0000
  4 O      8.3855     8.0000    -0.3855     2.1241     2.1241     0.0000
  5 C      6.2187     6.0000    -0.2187     3.5531     3.5531    -0.0000
  6 C      5.8517     6.0000     0.1483     3.8060     3.8060     0.0000
  7 C      6.3106     6.0000    -0.3106     3.8774     3.8774     0.0000
  8 N      7.1321     7.0000    -0.1321     3.2714     3.2714     0.0000
  9 C      5.7989     6.0000     0.2011     4.1516     4.1516     0.0000
 10 S     16.4381    16.0000    -0.4381     1.7560     1.7560    -0.0000
 11 N      7.2072     7.0000    -0.2072     3.2592     3.2592     0.0000
 12 C      5.9328     6.0000     0.0672     3.9506     3.9506    -0.0000
 13 C      5.9670     6.0000     0.0330     3.7262     3.7262     0.0000
 14 C      6.1827     6.0000    -0.1827     3.8749     3.8749     0.0000
 15 C      6.1313     6.0000    -0.1313     3.8045     3.8045     0.0000
 16 C      6.2786     6.0000    -0.2786     3.7922     3.7922    -0.0000
 17 C      5.6810     6.0000     0.3190     3.8633     3.8633    -0.0000
 18 O      8.3608     8.0000    -0.3608     2.1134     2.1134    -0.0000
 19 C      6.2909     6.0000    -0.2909     3.8272     3.8272    -0.0000
 20 H      0.8921     1.0000     0.1079     0.9825     0.9825    -0.0000
 21 H      0.8912     1.0000     0.1088     0.9851     0.9851    -0.0000
 22 H      0.9088     1.0000     0.0912     0.9821     0.9821    -0.0000
 23 H      0.8853     1.0000     0.1147     0.9707     0.9707    -0.0000
 24 H      0.8942     1.0000     0.1058     0.9679     0.9679     0.0000
 25 H      0.8620     1.0000     0.1380     0.9833     0.9833    -0.0000
 26 H      0.8749     1.0000     0.1251     0.9833     0.9833     0.0000
 27 H      0.8797     1.0000     0.1203     0.9709     0.9709     0.0000
 28 H      0.8025     1.0000     0.1975     1.0215     1.0215     0.0000
 29 H      0.8034     1.0000     0.1966     1.0167     1.0167     0.0000
 30 H      0.8390     1.0000     0.1610     0.9946     0.9946    -0.0000
 31 H      0.8350     1.0000     0.1650     0.9871     0.9871     0.0000
 32 H      0.8362     1.0000     0.1638     0.9766     0.9766     0.0000
 33 H      0.8679     1.0000     0.1321     0.9913     0.9913    -0.0000
 34 H      0.7579     1.0000     0.2421     1.0097     1.0097     0.0000
 35 H      0.8229     1.0000     0.1771     0.9828     0.9828    -0.0000

  Mayer bond orders larger than 0.100000
B(  0-C ,  1-C ) :   0.9850 B(  0-C , 20-H ) :   0.9709 B(  0-C , 21-H ) :   0.9793 
B(  0-C , 22-H ) :   0.9761 B(  1-C ,  2-O ) :   0.8918 B(  1-C , 23-H ) :   0.9791 
B(  1-C , 24-H ) :   0.9591 B(  2-O ,  3-C ) :   1.1697 B(  3-C ,  4-O ) :   2.0845 
B(  3-C ,  5-C ) :   0.9423 B(  5-C ,  6-C ) :   1.6742 B(  5-C , 12-C ) :   0.9608 
B(  6-C ,  7-C ) :   0.9454 B(  6-C ,  8-N ) :   1.1302 B(  7-C , 25-H ) :   0.9743 
B(  7-C , 26-H ) :   0.9794 B(  7-C , 27-H ) :   0.9630 B(  8-N ,  9-C ) :   1.1884 
B(  8-N , 28-H ) :   0.9507 B(  9-C , 10-S ) :   1.6138 B(  9-C , 11-N ) :   1.2929 
B( 11-N , 12-C ) :   0.9987 B( 11-N , 29-H ) :   0.9505 B( 12-C , 13-C ) :   0.9407 
B( 12-C , 30-H ) :   0.9977 B( 13-C , 14-C ) :   1.3876 B( 13-C , 19-C ) :   1.3469 
B( 14-C , 15-C ) :   1.3937 B( 14-C , 31-H ) :   0.9612 B( 15-C , 16-C ) :   1.3621 
B( 15-C , 32-H ) :   0.9706 B( 16-C , 17-C ) :   1.3304 B( 16-C , 33-H ) :   0.9849 
B( 17-C , 18-O ) :   1.1074 B( 17-C , 19-C ) :   1.3697 B( 18-O , 34-H ) :   0.9789 
B( 19-C , 35-H ) :   0.9563 

-------
TIMINGS
-------

Total SCF time: 0 days 2 hours 12 min 47 sec 

Total time                  ....    7967.301 sec
Sum of individual times     ....    7958.644 sec  ( 99.9%)

Fock matrix formation       ....    7933.772 sec  ( 99.6%)
Diagonalization             ....       1.781 sec  (  0.0%)
Density matrix formation    ....       0.213 sec  (  0.0%)
Population analysis         ....       0.255 sec  (  0.0%)
Initial guess               ....       6.676 sec  (  0.1%)
Orbital Transformation      ....       0.000 sec  (  0.0%)
Orbital Orthonormalization  ....       0.000 sec  (  0.0%)
DIIS solution               ....      12.333 sec  (  0.2%)
SOSCF solution              ....       2.117 sec  (  0.0%)

Maximum memory used throughout the entire SCF-calculation: 762.0 MB

------------------------------------------------------------------------------
                                ORCA  MP2 
------------------------------------------------------------------------------

Freezing NCore=48 chemical core electrons

-------------
RI-MP2 ENERGY
-------------
Dimension of the basis                    ...  828
Memory devoted to MP2                     ...  256 MB   
Data format for buffers                   ... DOUBLE
Compression type for matrix containers    ... UNCOMPRESSED
Overall scaling of the MP2 energy         ...   1.000e+00
Calculating two index integrals           ... done (    0.033 sec)
Cholesky decomposition of V**-1           ... done (    0.478 sec)

-----------------
RI-TRANSFORMATION (AUX index driven)
-----------------

Dimension of the orbital-basis         ... 828
Dimension of the aux-basis             ... 2141
Transformation of internal/external MOs...   24-  76 to   77- 827
Number Format for Storage              ... Double (8 Byte)
Integral mode                          ... Direct

First Phase: integral generation and transformation of MO indices
  Aux angular momentum 0               ... done (    4.051 sec)
  Aux angular momentum 1               ... done (    6.623 sec)
  Aux angular momentum 2               ... done (    7.947 sec)
  Aux angular momentum 3               ... done (    6.266 sec)
  Aux angular momentum 4               ... done (    2.235 sec)
Closing buffer VIA ( 0.63 GB; CompressionRatio= 1.00)
  Phase 1 completed in    27.321 sec
Second Phase: sorting and transformation of aux index

IA-Transformation
Memory available                       ... 156 MB 
Max. # MO pairs treated in a batch     ... 11    
# of internal orbitals                 ... 53
# batches for internal orbitals        ... 5
Closing buffer IAV ( 0.63 GB; CompressionRatio= 1.00)
(ia|v) transformation done in    25.166 sec

  Phase 2 completed in    25.186 sec
RI-Integral transformation completed in    52.515 sec
Opening buffers                              ... done

Starting loop over batches of integrals:

Operator 0  - window                       ... ( 24- 76)x( 77-827)
Operator 0  - Memory available             ...   256 MB
Operator 0  - Memory needed per MO         ...  12.3 MB
Operator 0  - Number of orbitals per batch ... 13
Operator 0  - Number of batches            ... 5

OPERATOR  0   PASS   0:  MOs    24 ...   36
  Reading integrals       ... ok
  Internal MO  26
  Internal MO  29
  Internal MO  32
  Internal MO  35
OPERATOR  0   PASS   1:  MOs    37 ...   49
  Reading integrals       ... ok
  Internal MO  38
  Internal MO  41
  Internal MO  44
  Internal MO  47
OPERATOR  0   PASS   2:  MOs    50 ...   62
  Reading integrals       ... ok
  Internal MO  50
  Internal MO  53
  Internal MO  56
  Internal MO  59
  Internal MO  62
OPERATOR  0   PASS   3:  MOs    63 ...   75
  Reading integrals       ... ok
  Internal MO  65
  Internal MO  68
  Internal MO  71
  Internal MO  74
OPERATOR  0   PASS   4:  MOs    76 ...   76
  Reading integrals       ... ok
Time spent in pair loops =   103.079 sec
Deleting buffer (Ka|jb)[aa] ...done

-----------------------------------------------
 RI-MP2 CORRELATION ENERGY:     -3.539290114 Eh
-----------------------------------------------


-------
TIMINGS
-------

Total time                :  156.310 sec
Integral trafo            :   52.529 sec ( 33.6%)
I/O of integrals          :    4.049 sec (  2.6%)
K(i,j) Operators          :   77.439 sec ( 49.5%)
T(i,j) pair energies      :    2.859 sec (  1.8%)
V-calculation             :    0.033 sec (  0.0%)
V**(-1/2)                 :    0.478 sec (  0.3%)
Gamma(ia|P)               :    0.000 sec (  0.0%)
Gamma-Trafo               :    0.000 sec (  0.0%)
D(virtual)                :    0.000 sec (  0.0%)
D(internal)               :    0.000 sec (  0.0%)
W(virtual)                :    0.000 sec (  0.0%)
W(internal)               :    0.000 sec (  0.0%)
L(virtual)                :    0.000 sec (  0.0%)
L(internal)               :    0.000 sec (  0.0%)
G(D)                      :    0.000 sec (  0.0%)
G(Z)                      :    0.000 sec (  0.0%)
Z-Vector Solution         :    0.000 sec (  0.0%)
3-Index Derivative        :    0.000 sec (  0.0%)
2-Index Derivative        :    0.000 sec (  0.0%)
Separable Gradient        :    0.000 sec (  0.0%)


---------------------------------------
MP2 TOTAL ENERGY:    -1274.337142282 Eh
---------------------------------------

Maximum memory used throughout the entire MP2-calculation: 306.2 MB

-------------------------   --------------------
FINAL SINGLE POINT ENERGY     -1274.337142282383
-------------------------   --------------------


                            ***************************************
                            *     ORCA property calculations      *
                            ***************************************


  WARNING: The energy has been calculated at the MP2 level but the densities
           used in the property calculations are still SCF densities
           MP2 response densities have not been calculated 
           use %mp2 Density relaxed end
           or  %mp2 Density unrelaxed end

                                    ---------------------
                                    Active property flags
                                    ---------------------
   (+) Dipole Moment


------------------------------------------------------------------------------
                       ORCA ELECTRIC PROPERTIES CALCULATION
------------------------------------------------------------------------------

Dipole Moment Calculation                       ... on
Quadrupole Moment Calculation                   ... off
Polarizability Calculation                      ... off
GBWName                                         ... CONFS/Conf199.orca.gbw
Electron density file                           ... CONFS/Conf199.orca.scfp
The origin for moment calculation is the CENTER OF MASS  = (32.823261, 31.422303 35.186547)

-------------
DIPOLE MOMENT
-------------
                                X             Y             Z
Electronic contribution:     10.20837       8.44647       5.79321
Nuclear contribution   :    -11.70385      -9.34761      -6.12538
                        -----------------------------------------
Total Dipole Moment    :     -1.49548      -0.90114      -0.33218
                        -----------------------------------------
Magnitude (a.u.)       :      1.77732
Magnitude (Debye)      :      4.51760



--------------------
Rotational spectrum 
--------------------
 
Rotational constants in cm-1:     0.012454     0.009173     0.006874 
Rotational constants in MHz :   373.359892   275.001037   206.077230 

 Dipole components along the rotational axes: 
x,y,z [a.u.] :    -1.309089    -0.492769     1.096513 
x,y,z [Debye]:    -3.327439    -1.252519     2.787115 

 

Timings for individual modules:

Sum of individual times         ...     8128.030 sec (= 135.467 min)
GTO integral calculation        ...        3.728 sec (=   0.062 min)   0.0 %
SCF iterations                  ...     7967.495 sec (= 132.792 min)  98.0 %
MP2 module                      ...      156.807 sec (=   2.613 min)   1.9 %
                             ****ORCA TERMINATED NORMALLY****
TOTAL RUN TIME: 0 days 2 hours 15 minutes 29 seconds 780 msec
