
                                        *****************
                                        * O   R   C   A *
                                        *****************

                                            #,                                       
                                            ###                                      
                                            ####                                     
                                            #####                                    
                                            ######                                   
                                           ########,                                 
                                     ,,################,,,,,                         
                               ,,#################################,,                 
                          ,,##########################################,,             
                       ,#########################################, ''#####,          
                    ,#############################################,,   '####,        
                  ,##################################################,,,,####,       
                ,###########''''           ''''###############################       
              ,#####''   ,,,,##########,,,,          '''####'''          '####       
            ,##' ,,,,###########################,,,                        '##       
           ' ,,###''''                  '''############,,,                           
         ,,##''                                '''############,,,,        ,,,,,,###''
      ,#''                                            '''#######################'''  
     '                                                          ''''####''''         
             ,#######,   #######,   ,#######,      ##                                
            ,#'     '#,  ##    ##  ,#'     '#,    #''#        ######   ,####,        
            ##       ##  ##   ,#'  ##            #'  '#       #        #'  '#        
            ##       ##  #######   ##           ,######,      #####,   #    #        
            '#,     ,#'  ##    ##  '#,     ,#' ,#      #,         ##   #,  ,#        
             '#######'   ##     ##  '#######'  #'      '#     #####' # '####'        



                  #######################################################
                  #                        -***-                        #
                  #          Department of theory and spectroscopy      #
                  #    Directorship and core code : Frank Neese         #
                  #        Max Planck Institute fuer Kohlenforschung    #
                  #                Kaiser Wilhelm Platz 1               #
                  #                 D-45470 Muelheim/Ruhr               #
                  #                      Germany                        #
                  #                                                     #
                  #                  All rights reserved                #
                  #                        -***-                        #
                  #######################################################


                         Program Version 5.0.0 -  RELEASE  -
                                (SVN: $Rev: 19529$)
                ($Date: 2021-06-28 11:36:33 +0200 (Mo, 28 Jun 2021) $)


 With contributions from (in alphabetic order):
   Daniel Aravena         : Magnetic Suceptibility
   Michael Atanasov       : Ab Initio Ligand Field Theory (pilot matlab implementation)
   Alexander A. Auer      : GIAO ZORA, VPT2 properties, NMR spectrum
   Ute Becker             : Parallelization
   Giovanni Bistoni       : ED, misc. LED, open-shell LED, HFLD
   Martin Brehm           : Molecular dynamics
   Dmytro Bykov           : SCF Hessian
   Vijay G. Chilkuri      : MRCI spin determinant printing, contributions to CSF-ICE
   Dipayan Datta          : RHF DLPNO-CCSD density
   Achintya Kumar Dutta   : EOM-CC, STEOM-CC
   Dmitry Ganyushin       : Spin-Orbit,Spin-Spin,Magnetic field MRCI
   Miquel Garcia          : C-PCM Hessian, Gaussian charge scheme
   Yang Guo               : DLPNO-NEVPT2, F12-NEVPT2, CIM, IAO-localization
   Andreas Hansen         : Spin unrestricted coupled pair/coupled cluster methods
   Benjamin Helmich-Paris : MC-RPA, TRAH-SCF, COSX integrals
   Lee Huntington         : MR-EOM, pCC
   Robert Izsak           : Overlap fitted RIJCOSX, COSX-SCS-MP3, EOM
   Marcus Kettner         : VPT2
   Christian Kollmar      : KDIIS, OOCD, Brueckner-CCSD(T), CCSD density, CASPT2, CASPT2-K
   Simone Kossmann        : Meta GGA functionals, TD-DFT gradient, OOMP2, MP2 Hessian
   Martin Krupicka        : Initial AUTO-CI
   Lucas Lang             : DCDCAS
   Marvin Lechner         : AUTO-CI (C++ implementation), FIC-MRCC
   Dagmar Lenk            : GEPOL surface, SMD
   Dimitrios Liakos       : Extrapolation schemes; Compound Job, initial MDCI parallelization
   Dimitrios Manganas     : Further ROCIS development; embedding schemes
   Dimitrios Pantazis     : SARC Basis sets
   Anastasios Papadopoulos: AUTO-CI, single reference methods and gradients
   Taras Petrenko         : DFT Hessian,TD-DFT gradient, ASA, ECA, R-Raman, ABS, FL, XAS/XES, NRVS
   Peter Pinski           : DLPNO-MP2, DLPNO-MP2 Gradient
   Christoph Reimann      : Effective Core Potentials
   Marius Retegan         : Local ZFS, SOC
   Christoph Riplinger    : Optimizer, TS searches, QM/MM, DLPNO-CCSD(T), (RO)-DLPNO pert. Triples
   Tobias Risthaus        : Range-separated hybrids, TD-DFT gradient, RPA, STAB
   Michael Roemelt        : Original ROCIS implementation
   Masaaki Saitow         : Open-shell DLPNO-CCSD energy and density
   Barbara Sandhoefer     : DKH picture change effects
   Avijit Sen             : IP-ROCIS
   Kantharuban Sivalingam : CASSCF convergence, NEVPT2, FIC-MRCI
   Bernardo de Souza      : ESD, SOC TD-DFT
   Georgi Stoychev        : AutoAux, RI-MP2 NMR
   Willem Van den Heuvel  : Paramagnetic NMR
   Boris Wezisla          : Elementary symmetry handling
   Frank Wennmohs         : Technical directorship


 We gratefully acknowledge several colleagues who have allowed us to
 interface, adapt or use parts of their codes:
   Stefan Grimme, W. Hujo, H. Kruse, P. Pracht,  : VdW corrections, initial TS optimization,
                  C. Bannwarth, S. Ehlert          DFT functionals, gCP, sTDA/sTD-DF
   Ed Valeev, F. Pavosevic, A. Kumar             : LibInt (2-el integral package), F12 methods
   Garnet Chan, S. Sharma, J. Yang, R. Olivares  : DMRG
   Ulf Ekstrom                                   : XCFun DFT Library
   Mihaly Kallay                                 : mrcc  (arbitrary order and MRCC methods)
   Jiri Pittner, Ondrej Demel                    : Mk-CCSD
   Frank Weinhold                                : gennbo (NPA and NBO analysis)
   Christopher J. Cramer and Donald G. Truhlar   : smd solvation model
   Lars Goerigk                                  : TD-DFT with DH, B97 family of functionals
   V. Asgeirsson, H. Jonsson                     : NEB implementation
   FAccTs GmbH                                   : IRC, NEB, NEB-TS, DLPNO-Multilevel, CI-OPT
                                                   MM, QMMM, 2- and 3-layer-ONIOM, Crystal-QMMM,
                                                   LR-CPCM, SF, NACMEs, symmetry and pop. for TD-DFT,
                                                   nearIR, NL-DFT gradient (VV10), updates on ESD,
                                                   ML-optimized integration grids
   S Lehtola, MJT Oliveira, MAL Marques          : LibXC Library
   Liviu Ungur et al                             : ANISO software


 Your calculation uses the libint2 library for the computation of 2-el integrals
 For citations please refer to: http://libint.valeyev.net

 Your ORCA version has been built with support for libXC version: 5.1.0
 For citations please refer to: https://tddft.org/programs/libxc/

 This ORCA versions uses:
   CBLAS   interface :  Fast vector & matrix operations
   LAPACKE interface :  Fast linear algebra routines
   SCALAPACK package :  Parallel linear algebra routines
   Shared memory     :  Shared parallel matrices
   BLAS/LAPACK       :  OpenBLAS 0.3.15  USE64BITINT DYNAMIC_ARCH NO_AFFINITY Zen SINGLE_THREADED
        Core in use  :  Zen
   Copyright (c) 2011-2014, The OpenBLAS Project


================================================================================

----- Orbital basis set information -----
Your calculation utilizes the basis: cc-pVTZ 
       H, B-Ne : Obtained from the ccRepo (grant-hill.group.shef.ac.uk/ccrepo) Feb. 2017
                 T. H. Dunning, Jr., J. Chem. Phys. 90, 1007 (1989)
            He : Obtained from the ccRepo (grant-hill.group.shef.ac.uk/ccrepo) Feb. 2017
                 D. E. Woon, T. H. Dunning, Jr., J. Chem. Phys. 100, 2975 (1994)
  Li-Be, Na-Mg : Obtained from the ccRepo (grant-hill.group.shef.ac.uk/ccrepo) Feb. 2017
                 B. P. Prascher, D. E. Woon, K. A. Peterson, T. H. Dunning, Jr., A. K. Wilson, Theor. Chem. Acc. 128, 69 (2011)
         Al-Ar : Obtained from the ccRepo (grant-hill.group.shef.ac.uk/ccrepo) Feb. 2017
                 D. E. Woon, T. H. Dunning, Jr., J. Chem. Phys. 98, 1358 (1993)
            Ca : Obtained from the Peterson Research Group Website (tyr0.chem.wsu.edu/~kipeters) Feb. 2017
                 J. Koput, K. A. Peterson, J. Phys. Chem. 106, 9595 (2002)
         Sc-Zn : Obtained from the ccRepo (grant-hill.group.shef.ac.uk/ccrepo) Feb. 2017
                 N. B. Balabanov, K. A. Peterson, J. Chem. Phys. 123, 064107 (2005)
                 N. B. Balabanov, K. A. Peterson, J. Chem. Phys. 125, 074110 (2006)
         Ga-Kr : Obtained from the ccRepo (grant-hill.group.shef.ac.uk/ccrepo) Feb. 2017
                 A. K. Wilson, D. E. Woon, K. A. Peterson, T. H. Dunning, Jr., J. Chem. Phys. 110, 7667 (1999)
             Y : Obtained from the ccRepo (grant-hill.group.shef.ac.uk/ccrepo) Feb. 2017
                 K. A. Peterson, D. Figgen, M. Dolg, H. Stoll, J. Chem. Phys. 126, 124101 (2007)
        Ag, Au : Obtained from the Peterson Research Group Website (tyr0.chem.wsu.edu/~kipeters) Feb. 2017
                 K. A. Peterson, C. Puzzarini, Theor. Chem. Acc. 114, 283 (2005)

----- AuxC basis set information -----
Your calculation utilizes the auxiliary basis: cc-pVTZ/C 
  Obtained from the EMSL Basis Set Exchange (bse.pnl.gov) Feb. 2017
  H-He, B-F, Al-Ar, Ga-Kr : F. Weigend, A. Kohn, C. Hattig, J. Chem. Phys. 116, 3175 (2002)
             Li-Be, Na-Mg : C. Haettig, Phys. Chem. Chem. Phys. 7, 59 (2005)
                       Ne : C. Haettig, Phys. Chem. Chem. Phys. 7, 59 (2005)
                            F. Weigend, A. Kohn, C. Hattig, J. Chem. Phys. 116, 3175 (2002)
                    Sc-Zn : J. G. Hill, J. A. Platts, J. Chem. Phys. 128, 044104 (2008)

================================================================================
                                        WARNINGS
                       Please study these warnings very carefully!
================================================================================


WARNING: No MP2 level density has been requested!
         To caclulate MP2 level properties use
         %mp2 Density relaxed end
         or
         %mp2 Density unrelaxed end

WARNING: Post HF methods need fully converged wavefunctions
  ===> : Setting SCFConvForced true
         You can overwrite this default with %scf ConvForced false 


INFO   : the flag for use of the SHARK integral package has been found!

================================================================================
                                       INPUT FILE
================================================================================
NAME = CONFS/Conf201.orca
|  1> ! ri-mp2 cc-pvtz cc-pvtz/c TightSCF NoKeepInts
|  2> 
|  3> %scf
|  4>   MaxCore 4096
|  5> end
|  6> *xyz  0  1
|  7>     C       14.9560871   14.4805245   17.3452694
|  8>     C       15.4920589   15.6566423   16.5118947
|  9>     O       16.7790828   15.2555887   15.9961171
| 10>     C       17.9951175   15.6718821   16.4816992
| 11>     O       18.9477816   14.9152149   16.4442056
| 12>     C       18.0103596   16.8786178   17.3653321
| 13>     C       17.5366758   18.0845721   16.9710062
| 14>     C       16.9436632   18.4356539   15.6225538
| 15>     N       17.6453363   19.1872376   17.8211713
| 16>     C       18.3173208   19.1867326   19.0158472
| 17>     S       18.4583969   20.5555313   19.9325406
| 18>     N       18.8645078   17.9919278   19.4150195
| 19>     C       18.6921277   16.6999889   18.7209522
| 20>     C       17.9137176   15.7094508   19.5806616
| 21>     C       18.3504807   14.3770284   19.6944550
| 22>     C       17.6305530   13.4509441   20.4675202
| 23>     C       16.4605492   13.8587237   21.1304988
| 24>     C       16.0173186   15.1829132   21.0130641
| 25>     O       14.8791217   15.5760156   21.6378367
| 26>     C       16.7354659   16.1027693   20.2423604
| 27>     H       15.6432961   14.2398273   18.1652113
| 28>     H       14.8436132   13.5851233   16.7212453
| 29>     H       13.9782902   14.7249782   17.7775189
| 30>     H       14.8046830   15.8444591   15.6770042
| 31>     H       15.5249891   16.5536852   17.1380336
| 32>     H       17.1477895   17.6664026   14.8674152
| 33>     H       17.3700276   19.3705441   15.2367465
| 34>     H       15.8565685   18.5643390   15.6884577
| 35>     H       17.2646953   20.0772425   17.5397112
| 36>     H       19.3364926   18.0166896   20.3101975
| 37>     H       19.6934733   16.2821650   18.5389969
| 38>     H       19.2453455   14.0541189   19.1663709
| 39>     H       17.9774929   12.4217436   20.5436720
| 40>     H       15.9000402   13.1451930   21.7254800
| 41>     H       14.5622988   14.8255491   22.1631742
| 42>     H       16.3721817   17.1219796   20.1647586
| 43> *
| 44> 
| 45>                          ****END OF INPUT****
================================================================================

                       ****************************
                       * Single Point Calculation *
                       ****************************

---------------------------------
CARTESIAN COORDINATES (ANGSTROEM)
---------------------------------
  C     14.956087   14.480524   17.345269
  C     15.492059   15.656642   16.511895
  O     16.779083   15.255589   15.996117
  C     17.995117   15.671882   16.481699
  O     18.947782   14.915215   16.444206
  C     18.010360   16.878618   17.365332
  C     17.536676   18.084572   16.971006
  C     16.943663   18.435654   15.622554
  N     17.645336   19.187238   17.821171
  C     18.317321   19.186733   19.015847
  S     18.458397   20.555531   19.932541
  N     18.864508   17.991928   19.415019
  C     18.692128   16.699989   18.720952
  C     17.913718   15.709451   19.580662
  C     18.350481   14.377028   19.694455
  C     17.630553   13.450944   20.467520
  C     16.460549   13.858724   21.130499
  C     16.017319   15.182913   21.013064
  O     14.879122   15.576016   21.637837
  C     16.735466   16.102769   20.242360
  H     15.643296   14.239827   18.165211
  H     14.843613   13.585123   16.721245
  H     13.978290   14.724978   17.777519
  H     14.804683   15.844459   15.677004
  H     15.524989   16.553685   17.138034
  H     17.147789   17.666403   14.867415
  H     17.370028   19.370544   15.236746
  H     15.856568   18.564339   15.688458
  H     17.264695   20.077242   17.539711
  H     19.336493   18.016690   20.310198
  H     19.693473   16.282165   18.538997
  H     19.245345   14.054119   19.166371
  H     17.977493   12.421744   20.543672
  H     15.900040   13.145193   21.725480
  H     14.562299   14.825549   22.163174
  H     16.372182   17.121980   20.164759

----------------------------
CARTESIAN COORDINATES (A.U.)
----------------------------
  NO LB      ZA    FRAG     MASS         X           Y           Z
   0 C     6.0000    0    12.011   28.262909   27.364226   32.777809
   1 C     6.0000    0    12.011   29.275749   29.586766   31.202959
   2 O     8.0000    0    15.999   31.707871   28.828885   30.228281
   3 C     6.0000    0    12.011   34.005844   29.615565   31.145898
   4 O     8.0000    0    15.999   35.806118   28.185671   31.075045
   5 C     6.0000    0    12.011   34.034647   31.895965   32.815722
   6 C     6.0000    0    12.011   33.139515   34.174889   32.070554
   7 C     6.0000    0    12.011   32.018883   34.838337   29.522348
   8 N     7.0000    0    14.007   33.344853   36.258624   33.677133
   9 C     6.0000    0    12.011   34.614720   36.257670   35.934743
  10 S    16.0000    0    32.060   34.881315   38.844325   37.667043
  11 N     7.0000    0    14.007   35.648753   33.999816   36.689070
  12 C     6.0000    0    12.011   35.323002   31.558405   35.377473
  13 C     6.0000    0    12.011   33.852020   29.686560   37.002088
  14 C     6.0000    0    12.011   34.677383   27.168646   37.217126
  15 C     6.0000    0    12.011   33.316917   25.418601   38.678008
  16 C     6.0000    0    12.011   31.105930   26.189192   39.930856
  17 C     6.0000    0    12.011   30.268346   28.691548   39.708936
  18 O     8.0000    0    15.999   28.117465   29.434404   40.889585
  19 C     6.0000    0    12.011   31.625447   30.429824   38.252517
  20 H     1.0000    0     1.008   29.561545   26.909374   34.327275
  21 H     1.0000    0     1.008   28.050364   25.672163   31.598574
  22 H     1.0000    0     1.008   26.415140   27.826176   33.594642
  23 H     1.0000    0     1.008   27.976796   29.941688   29.625245
  24 H     1.0000    0     1.008   29.337978   31.281932   32.386190
  25 H     1.0000    0     1.008   32.404626   33.384663   28.095343
  26 H     1.0000    0     1.008   32.824595   36.605023   28.793278
  27 H     1.0000    0     1.008   29.964572   35.081517   29.646889
  28 H     1.0000    0     1.008   32.625546   37.940490   33.145251
  29 H     1.0000    0     1.008   36.540675   34.046609   38.380711
  30 H     1.0000    0     1.008   37.215271   30.768833   35.033627
  31 H     1.0000    0     1.008   36.368432   26.558436   36.219192
  32 H     1.0000    0     1.008   33.972538   23.473694   38.821914
  33 H     1.0000    0     1.008   30.046721   24.840815   41.055207
  34 H     1.0000    0     1.008   27.518757   28.016228   41.882329
  35 H     1.0000    0     1.008   30.938940   32.355852   38.105871

--------------------------------
INTERNAL COORDINATES (ANGSTROEM)
--------------------------------
 C      0   0   0     0.000000000000     0.00000000     0.00000000
 C      1   0   0     1.537866132169     0.00000000     0.00000000
 O      2   1   0     1.443364486852   106.97248039     0.00000000
 C      3   2   1     1.373983465085   125.35927658   256.67910242
 O      4   3   2     1.217177024523   119.56894702   147.17606003
 C      4   3   2     1.495744120239   117.53190649   343.58125529
 C      6   4   3     1.354324566521   122.87601325   301.90244743
 C      7   6   4     1.514346806090   127.06110272   359.26685536
 N      7   6   4     1.396588345365   119.90680551   183.36278119
 C      9   7   6     1.370698336362   124.64033641     6.22267731
 S     10   9   7     1.653432531649   121.65112595   177.13215741
 N     10   9   7     1.373430248742   116.67672600   356.96830147
 C     12  10   9     1.476668695794   125.30984247   354.70787995
 C     13  12  10     1.525184665469   111.27513399   245.46604769
 C     14  13  12     1.406790814381   120.14983779   224.76131769
 C     15  14  13     1.404833736563   120.64868633   180.94646099
 C     16  15  14     1.405252190266   119.66986488     0.18353982
 C     17  16  15     1.401328692866   119.86879544     0.21690171
 O     18  17  16     1.356599602597   120.03950112   179.16656504
 C     18  17  16     1.398518853072   120.35083309   359.81126518
 H      1   2   3     1.096583818568   110.77203174    59.33296034
 H      1   2   3     1.097178091525   110.58792894   299.52540907
 H      1   2   3     1.096669512362   110.72341785   179.42457270
 H      2   1   3     1.097635151247   108.95308636   118.30695261
 H      2   1   3     1.094449763400   109.10444481   236.34259232
 H      8   7   6     1.097109572519   112.17774719   345.84286502
 H      8   7   6     1.097567109737   110.99940441   226.90609624
 H      8   7   6     1.096666797968   111.21515082   106.84760446
 H      9   7   6     1.008075434081   119.84956335   182.06242056
 H     12  10   9     1.012287730763   114.92907340   181.31060876
 H     13  12  10     1.100171601728   107.68339208   127.13573943
 H     15  14  13     1.088083807499   119.81216969   359.94005298
 H     16  15  14     1.088769975732   119.88996492   179.74414506
 H     17  16  15     1.085034113416   119.86648685   179.77624844
 H     19  18  17     0.969307075437   107.42675876     4.34788469
 H     20  18  17     1.084798177063   119.04031132   179.89899397

---------------------------
INTERNAL COORDINATES (A.U.)
---------------------------
 C      0   0   0     0.000000000000     0.00000000     0.00000000
 C      1   0   0     2.906145820432     0.00000000     0.00000000
 O      2   1   0     2.727563591578   106.97248039     0.00000000
 C      3   2   1     2.596452461548   125.35927658   256.67910242
 O      4   3   2     2.300131232849   119.56894702   147.17606003
 C      4   3   2     2.826546753675   117.53190649   343.58125529
 C      6   4   3     2.559302527166   122.87601325   301.90244743
 C      7   6   4     2.861700735289   127.06110272   359.26685536
 N      7   6   4     2.639169494566   119.90680551   183.36278119
 C      9   7   6     2.590244467946   124.64033641     6.22267731
 S     10   9   7     3.124534665733   121.65112595   177.13215741
 N     10   9   7     2.595407034166   116.67672600   356.96830147
 C     12  10   9     2.790499425586   125.30984247   354.70787995
 C     13  12  10     2.882181321393   111.27513399   245.46604769
 C     14  13  12     2.658449366896   120.14983779   224.76131769
 C     15  14  13     2.654751025797   120.64868633   180.94646099
 C     16  15  14     2.655541788697   119.66986488     0.18353982
 C     17  16  15     2.648127453123   119.86879544     0.21690171
 O     18  17  16     2.563601722295   120.03950112   179.16656504
 C     18  17  16     2.642817625432   120.35083309   359.81126518
 H      1   2   3     2.072243099982   110.77203174    59.33296034
 H      1   2   3     2.073366113122   110.58792894   299.52540907
 H      1   2   3     2.072405037784   110.72341785   179.42457270
 H      2   1   3     2.074229830822   108.95308636   118.30695261
 H      2   1   3     2.068210320160   109.10444481   236.34259232
 H      8   7   6     2.073236630965   112.17774719   345.84286502
 H      8   7   6     2.074101251003   110.99940441   226.90609624
 H      8   7   6     2.072399908324   111.21515082   106.84760446
 H      9   7   6     1.904986492746   119.84956335   182.06242056
 H     12  10   9     1.912946579872   114.92907340   181.31060876
 H     13  12  10     2.079023027583   107.68339208   127.13573943
 H     15  14  13     2.056180406928   119.81216969   359.94005298
 H     16  15  14     2.057477076970   119.88996492   179.74414506
 H     17  16  15     2.050417320319   119.86648685   179.77624844
 H     19  18  17     1.831724912249   107.42675876     4.34788469
 H     20  18  17     2.049971465226   119.04031132   179.89899397

---------------------
BASIS SET INFORMATION
---------------------
There are 5 groups of distinct atoms

 Group   1 Type C   : 18s5p2d1f contracted to 4s3p2d1f pattern {8811/311/11/1}
 Group   2 Type O   : 18s5p2d1f contracted to 4s3p2d1f pattern {8811/311/11/1}
 Group   3 Type N   : 18s5p2d1f contracted to 4s3p2d1f pattern {8811/311/11/1}
 Group   4 Type S   : 41s16p2d1f contracted to 5s4p2d1f pattern {13131311/7711/11/1}
 Group   5 Type H   : 5s2p1d contracted to 3s2p1d pattern {311/11/1}

Atom   0C    basis set group =>   1
Atom   1C    basis set group =>   1
Atom   2O    basis set group =>   2
Atom   3C    basis set group =>   1
Atom   4O    basis set group =>   2
Atom   5C    basis set group =>   1
Atom   6C    basis set group =>   1
Atom   7C    basis set group =>   1
Atom   8N    basis set group =>   3
Atom   9C    basis set group =>   1
Atom  10S    basis set group =>   4
Atom  11N    basis set group =>   3
Atom  12C    basis set group =>   1
Atom  13C    basis set group =>   1
Atom  14C    basis set group =>   1
Atom  15C    basis set group =>   1
Atom  16C    basis set group =>   1
Atom  17C    basis set group =>   1
Atom  18O    basis set group =>   2
Atom  19C    basis set group =>   1
Atom  20H    basis set group =>   5
Atom  21H    basis set group =>   5
Atom  22H    basis set group =>   5
Atom  23H    basis set group =>   5
Atom  24H    basis set group =>   5
Atom  25H    basis set group =>   5
Atom  26H    basis set group =>   5
Atom  27H    basis set group =>   5
Atom  28H    basis set group =>   5
Atom  29H    basis set group =>   5
Atom  30H    basis set group =>   5
Atom  31H    basis set group =>   5
Atom  32H    basis set group =>   5
Atom  33H    basis set group =>   5
Atom  34H    basis set group =>   5
Atom  35H    basis set group =>   5
---------------------------------
AUXILIARY/C BASIS SET INFORMATION
---------------------------------
There are 5 groups of distinct atoms

 Group   1 Type C   : 8s6p5d3f1g contracted to 8s6p5d3f1g pattern {11111111/111111/11111/111/1}
 Group   2 Type O   : 8s6p5d3f1g contracted to 8s6p5d3f1g pattern {11111111/111111/11111/111/1}
 Group   3 Type N   : 8s6p5d3f1g contracted to 8s6p5d3f1g pattern {11111111/111111/11111/111/1}
 Group   4 Type S   : 10s8p7d5f2g contracted to 10s8p7d5f2g pattern {1111111111/11111111/1111111/11111/11}
 Group   5 Type H   : 4s3p2d1f contracted to 4s3p2d1f pattern {1111/111/11/1}

Atom   0C    basis set group =>   1
Atom   1C    basis set group =>   1
Atom   2O    basis set group =>   2
Atom   3C    basis set group =>   1
Atom   4O    basis set group =>   2
Atom   5C    basis set group =>   1
Atom   6C    basis set group =>   1
Atom   7C    basis set group =>   1
Atom   8N    basis set group =>   3
Atom   9C    basis set group =>   1
Atom  10S    basis set group =>   4
Atom  11N    basis set group =>   3
Atom  12C    basis set group =>   1
Atom  13C    basis set group =>   1
Atom  14C    basis set group =>   1
Atom  15C    basis set group =>   1
Atom  16C    basis set group =>   1
Atom  17C    basis set group =>   1
Atom  18O    basis set group =>   2
Atom  19C    basis set group =>   1
Atom  20H    basis set group =>   5
Atom  21H    basis set group =>   5
Atom  22H    basis set group =>   5
Atom  23H    basis set group =>   5
Atom  24H    basis set group =>   5
Atom  25H    basis set group =>   5
Atom  26H    basis set group =>   5
Atom  27H    basis set group =>   5
Atom  28H    basis set group =>   5
Atom  29H    basis set group =>   5
Atom  30H    basis set group =>   5
Atom  31H    basis set group =>   5
Atom  32H    basis set group =>   5
Atom  33H    basis set group =>   5
Atom  34H    basis set group =>   5
Atom  35H    basis set group =>   5
------------------------------------------------------------------------------
                           ORCA GTO INTEGRAL CALCULATION
------------------------------------------------------------------------------
------------------------------------------------------------------------------
                   ___                                                        
                  /   \      - P O W E R E D   B Y -                         
                 /     \                                                     
                 |  |  |   _    _      __       _____    __    __             
                 |  |  |  | |  | |    /  \     |  _  \  |  |  /  |          
                  \  \/   | |  | |   /    \    | | | |  |  | /  /          
                 / \  \   | |__| |  /  /\  \   | |_| |  |  |/  /          
                |  |  |   |  __  | /  /__\  \  |    /   |      \           
                |  |  |   | |  | | |   __   |  |    \   |  |\   \          
                \     /   | |  | | |  |  |  |  | |\  \  |  | \   \       
                 \___/    |_|  |_| |__|  |__|  |_| \__\ |__|  \__/        
                                                                              
                      - O R C A' S   B I G   F R I E N D -                    
                                      &                                       
                       - I N T E G R A L  F E E D E R -                       
                                                                              
 v1 FN, 2020, v2 2021                                                         
------------------------------------------------------------------------------


Reading SHARK input file CONFS/Conf201.orca.SHARKINP.tmp ... ok
----------------------
SHARK INTEGRAL PACKAGE
----------------------

Number of atoms                             ...     36
Number of basis functions                   ...    828
Number of shells                            ...    298
Maximum angular momentum                    ...      3
Integral batch strategy                     ... SHARK/LIBINT Hybrid
RI-J (if used) integral strategy            ... SPLIT-RIJ (Revised 2003 algorithm where possible)
Printlevel                                  ...      1
Contraction scheme used                     ... SEGMENTED contraction
Coulomb Range Separation                    ... NOT USED
Exchange Range Separation                   ... NOT USED
Finite Nucleus Model                        ... NOT USED
Auxiliary Coulomb fitting basis             ... NOT available
Auxiliary J/K fitting basis                 ... NOT available
Auxiliary Correlation fitting basis         ... AVAILABLE
   # of basis functions in Aux-C            ...   2141
   # of shells in Aux-C                     ...    629
   Maximum angular momentum in Aux-C        ...      4
Auxiliary 'external' fitting basis          ... NOT available
Integral threshold                          ...     2.500000e-11
Primitive cut-off                           ...     2.500000e-12
Primitive pair pre-selection threshold      ...     2.500000e-12

Calculating pre-screening integrals         ... done (  0.8 sec) Dimension = 298
Organizing shell pair data                  ... done (  1.4 sec)
Shell pair information
Total number of shell pairs                 ...     44551
Shell pairs after pre-screening             ...     34805
Total number of primitive shell pairs       ...    234348
Primitive shell pairs kept                  ...     99425
          la=0 lb=0:   6897 shell pairs
          la=1 lb=0:   9658 shell pairs
          la=1 lb=1:   3416 shell pairs
          la=2 lb=0:   5573 shell pairs
          la=2 lb=1:   3835 shell pairs
          la=2 lb=2:   1102 shell pairs
          la=3 lb=0:   2009 shell pairs
          la=3 lb=1:   1376 shell pairs
          la=3 lb=2:    785 shell pairs
          la=3 lb=3:    154 shell pairs

Calculating one electron integrals          ... done (  0.3 sec)
Calculating RI/C V-Matrix + Cholesky decomp.... done (  2.0 sec)
Calculating Nuclear repulsion               ... done (  0.0 sec) ENN=   1734.905932320258 Eh

SHARK setup successfully completed in   4.9 seconds

Maximum memory used throughout the entire GTOINT-calculation: 518.8 MB
-------------------------------------------------------------------------------
                                 ORCA SCF
-------------------------------------------------------------------------------

------------
SCF SETTINGS
------------
Hamiltonian:
 Ab initio Hamiltonian  Method          .... Hartree-Fock(GTOs)


General Settings:
 Integral files         IntName         .... CONFS/Conf201.orca
 Hartree-Fock type      HFTyp           .... RHF
 Total Charge           Charge          ....    0
 Multiplicity           Mult            ....    1
 Number of Electrons    NEL             ....  154
 Basis Dimension        Dim             ....  828
 Nuclear Repulsion      ENuc            ....   1734.9059323203 Eh

Convergence Acceleration:
 DIIS                   CNVDIIS         .... on
   Start iteration      DIISMaxIt       ....    12
   Startup error        DIISStart       ....  0.200000
   # of expansion vecs  DIISMaxEq       ....     5
   Bias factor          DIISBfac        ....   1.050
   Max. coefficient     DIISMaxC        ....  10.000
 Trust-Rad. Augm. Hess. CNVTRAH         .... auto
   Auto Start mean grad. ratio tolernc. ....  1.125000
   Auto Start start iteration           ....    20
   Auto Start num. interpolation iter.  ....    10
   Max. Number of Micro iterations      ....    16
   Max. Number of Macro iterations      .... Maxiter - #DIIS iter
   Number of Davidson start vectors     ....     2
   Converg. threshold I  (grad. norm)   ....   1.000e-05
   Converg. threshold II (energy diff.) ....   1.000e-08
   Grad. Scal. Fac. for Micro threshold ....   0.100
   Minimum threshold for Micro iter.    ....   0.010
   NR start threshold (gradient norm)   ....   0.001
   Initial trust radius                 ....   0.400
   Minimum AH scaling param. (alpha)    ....   1.000
   Maximum AH scaling param. (alpha)    .... 1000.000
   Orbital update algorithm             .... Taylor
   White noise on init. David. guess    .... on
   Maximum white noise                  ....   0.010
   Quad. conv. algorithm                .... NR
 SOSCF                  CNVSOSCF        .... on
   Start iteration      SOSCFMaxIt      ....   150
   Startup grad/error   SOSCFStart      ....  0.003300
 Level Shifting         CNVShift        .... on
   Level shift para.    LevelShift      ....    0.2500
   Turn off err/grad.   ShiftErr        ....    0.0010
 Zerner damping         CNVZerner       .... off
 Static damping         CNVDamp         .... on
   Fraction old density DampFac         ....    0.7000
   Max. Damping (<1)    DampMax         ....    0.9800
   Min. Damping (>=0)   DampMin         ....    0.0000
   Turn off err/grad.   DampErr         ....    0.1000
 Fernandez-Rico         CNVRico         .... off

SCF Procedure:
 Maximum # iterations   MaxIter         ....   125
 SCF integral mode      SCFMode         .... Direct
   Integral package                     .... SHARK and LIBINT hybrid scheme
 Reset frequency        DirectResetFreq ....    20
 Integral Threshold     Thresh          ....  2.500e-11 Eh
 Primitive CutOff       TCut            ....  2.500e-12 Eh

Convergence Tolerance:
 Convergence Check Mode ConvCheckMode   .... Total+1el-Energy
 Convergence forced     ConvForced      .... 1
 Energy Change          TolE            ....  1.000e-08 Eh
 1-El. energy change                    ....  1.000e-05 Eh
 Orbital Gradient       TolG            ....  1.000e-05
 Orbital Rotation angle TolX            ....  1.000e-05
 DIIS Error             TolErr          ....  5.000e-07


Diagonalization of the overlap matrix:
Smallest eigenvalue                        ... 3.396e-05
Time for diagonalization                   ...    0.107 sec
Threshold for overlap eigenvalues          ... 1.000e-08
Number of eigenvalues below threshold      ... 0
Time for construction of square roots      ...    0.115 sec
Total time needed                          ...    0.223 sec

Time for model grid setup =    1.537 sec

------------------------------
INITIAL GUESS: MODEL POTENTIAL
------------------------------
Loading Hartree-Fock densities                     ... done
Calculating cut-offs                               ... done
Initializing the effective Hamiltonian             ... done
Setting up the integral package (SHARK)            ... done
Starting the Coulomb interaction                   ... done (   3.9 sec)
Reading the grid                                   ... done
Mapping shells                                     ... done
Starting the XC term evaluation                    ... done (   1.2 sec)
Transforming the Hamiltonian                       ... done (   0.1 sec)
Diagonalizing the Hamiltonian                      ... done (   0.1 sec)
Back transforming the eigenvectors                 ... done (   0.0 sec)
Now organizing SCF variables                       ... done
                      ------------------
                      INITIAL GUESS DONE (   7.3 sec)
                      ------------------
--------------
SCF ITERATIONS
--------------
ITER       Energy         Delta-E        Max-DP      RMS-DP      [F,P]     Damp
               ***  Starting incremental Fock matrix formation  ***
  0  -1270.0017644276   0.000000000000 0.04928610  0.00044648  0.3183906 0.7000
  1  -1270.2684719523  -0.266707524663 0.03607412  0.00036267  0.1878463 0.7000
                               ***Turning on DIIS***
  2  -1270.4345929524  -0.166121000068 0.02584304  0.00024090  0.1098694 0.7000
  3  -1272.5507550279  -2.116162075549 0.06319246  0.00051386  0.0830486 0.0000
  4  -1270.7459013579   1.804853670018 0.01306120  0.00010452  0.0066398 0.0000
  5  -1270.8012610413  -0.055359683367 0.00662341  0.00005532  0.0038453 0.0000
                      *** Initiating the SOSCF procedure ***
                           *** Shutting down DIIS ***
                      *** Re-Reading the Fockian *** 
                      *** Removing any level shift *** 
ITER      Energy       Delta-E        Grad      Rot      Max-DP    RMS-DP
  6  -1270.78091249   0.0203485529  0.001601  0.001601  0.003120  0.000028
               *** Restarting incremental Fock matrix formation ***
  7  -1270.79565175  -0.0147392599  0.000885  0.002217  0.001714  0.000018
  8  -1270.79569872  -0.0000469668  0.000451  0.002602  0.001866  0.000019
  9  -1270.79571704  -0.0000183257  0.000153  0.000312  0.000389  0.000005
 10  -1270.79571939  -0.0000023522  0.000046  0.000122  0.000125  0.000001
 11  -1270.79571961  -0.0000002190  0.000019  0.000102  0.000088  0.000001
 12  -1270.79571967  -0.0000000592  0.000009  0.000034  0.000029  0.000000
 13  -1270.79571968  -0.0000000072  0.000003  0.000009  0.000007  0.000000
                  ***Gradient check signals convergence***
              ***Rediagonalizing the Fockian in SOSCF/NRSCF***

               *****************************************************
               *                     SUCCESS                       *
               *           SCF CONVERGED AFTER  14 CYCLES          *
               *****************************************************


----------------
TOTAL SCF ENERGY
----------------

Total Energy       :        -1270.79571967 Eh          -34580.10955 eV

Components:
Nuclear Repulsion  :         1734.90593232 Eh           47209.19049 eV
Electronic Energy  :        -3005.70165199 Eh          -81789.30004 eV
One Electron Energy:        -5190.46634071 Eh         -141239.76962 eV
Two Electron Energy:         2184.76468872 Eh           59450.46958 eV

Virial components:
Potential Energy   :        -2539.77457393 Eh          -69110.77968 eV
Kinetic Energy     :         1268.97885426 Eh           34530.67013 eV
Virial Ratio       :            2.00143175


---------------
SCF CONVERGENCE
---------------

  Last Energy change         ...    5.9463e-09  Tolerance :   1.0000e-08
  Last MAX-Density change    ...    3.8400e-06  Tolerance :   1.0000e-07
  Last RMS-Density change    ...    3.7501e-08  Tolerance :   5.0000e-09
  Last Orbital Gradient      ...    1.6331e-06  Tolerance :   1.0000e-05
  Last Orbital Rotation      ...    4.3672e-06  Tolerance :   1.0000e-05

             **** THE GBW FILE WAS UPDATED (CONFS/Conf201.orca.gbw) ****
             **** DENSITY CONFS/Conf201.orca.scfp WAS UPDATED ****
             **** ENERGY FILE WAS UPDATED (CONFS/Conf201.orca.en.tmp) ****
             **** THE GBW FILE WAS UPDATED (CONFS/Conf201.orca.gbw) ****
             **** DENSITY CONFS/Conf201.orca.scfp WAS UPDATED ****
----------------
ORBITAL ENERGIES
----------------

  NO   OCC          E(Eh)            E(eV) 
   0   2.0000     -91.891044     -2500.4824 
   1   2.0000     -20.600121      -560.5578 
   2   2.0000     -20.600062      -560.5562 
   3   2.0000     -20.548560      -559.1547 
   4   2.0000     -15.629166      -425.2912 
   5   2.0000     -15.611964      -424.8231 
   6   2.0000     -11.398288      -310.1632 
   7   2.0000     -11.387585      -309.8719 
   8   2.0000     -11.332839      -308.3822 
   9   2.0000     -11.316940      -307.9496 
  10   2.0000     -11.313969      -307.8688 
  11   2.0000     -11.304572      -307.6131 
  12   2.0000     -11.269062      -306.6468 
  13   2.0000     -11.265380      -306.5466 
  14   2.0000     -11.263555      -306.4969 
  15   2.0000     -11.257169      -306.3231 
  16   2.0000     -11.246355      -306.0289 
  17   2.0000     -11.242550      -305.9253 
  18   2.0000     -11.239573      -305.8443 
  19   2.0000     -11.225371      -305.4579 
  20   2.0000      -8.896142      -242.0763 
  21   2.0000      -6.577725      -178.9890 
  22   2.0000      -6.575704      -178.9340 
  23   2.0000      -6.575125      -178.9182 
  24   2.0000      -1.446804       -39.3695 
  25   2.0000      -1.419877       -38.6368 
  26   2.0000      -1.358544       -36.9679 
  27   2.0000      -1.341865       -36.5140 
  28   2.0000      -1.240985       -33.7689 
  29   2.0000      -1.161767       -31.6133 
  30   2.0000      -1.126307       -30.6484 
  31   2.0000      -1.049324       -28.5536 
  32   2.0000      -1.036830       -28.2136 
  33   2.0000      -1.019106       -27.7313 
  34   2.0000      -1.005837       -27.3702 
  35   2.0000      -0.990154       -26.9435 
  36   2.0000      -0.928405       -25.2632 
  37   2.0000      -0.885203       -24.0876 
  38   2.0000      -0.855576       -23.2814 
  39   2.0000      -0.842520       -22.9261 
  40   2.0000      -0.837290       -22.7838 
  41   2.0000      -0.835117       -22.7247 
  42   2.0000      -0.752938       -20.4885 
  43   2.0000      -0.741138       -20.1674 
  44   2.0000      -0.731495       -19.9050 
  45   2.0000      -0.698226       -18.9997 
  46   2.0000      -0.688918       -18.7464 
  47   2.0000      -0.680663       -18.5218 
  48   2.0000      -0.677385       -18.4326 
  49   2.0000      -0.660060       -17.9611 
  50   2.0000      -0.656732       -17.8706 
  51   2.0000      -0.647045       -17.6070 
  52   2.0000      -0.640448       -17.4275 
  53   2.0000      -0.613805       -16.7025 
  54   2.0000      -0.609085       -16.5741 
  55   2.0000      -0.607190       -16.5225 
  56   2.0000      -0.601562       -16.3693 
  57   2.0000      -0.585004       -15.9188 
  58   2.0000      -0.578869       -15.7518 
  59   2.0000      -0.569088       -15.4857 
  60   2.0000      -0.561505       -15.2793 
  61   2.0000      -0.554963       -15.1013 
  62   2.0000      -0.547318       -14.8933 
  63   2.0000      -0.530180       -14.4269 
  64   2.0000      -0.519942       -14.1483 
  65   2.0000      -0.513873       -13.9832 
  66   2.0000      -0.502953       -13.6861 
  67   2.0000      -0.501796       -13.6546 
  68   2.0000      -0.486963       -13.2509 
  69   2.0000      -0.471262       -12.8237 
  70   2.0000      -0.453689       -12.3455 
  71   2.0000      -0.448142       -12.1946 
  72   2.0000      -0.358182        -9.7466 
  73   2.0000      -0.352826        -9.6009 
  74   2.0000      -0.330590        -8.9958 
  75   2.0000      -0.324937        -8.8420 
  76   2.0000      -0.319357        -8.6901 
  77   0.0000       0.080417         2.1883 
  78   0.0000       0.103558         2.8180 
  79   0.0000       0.113906         3.0995 
  80   0.0000       0.127820         3.4782 
  81   0.0000       0.134301         3.6545 
  82   0.0000       0.145014         3.9460 
  83   0.0000       0.149488         4.0678 
  84   0.0000       0.153989         4.1903 
  85   0.0000       0.157691         4.2910 
  86   0.0000       0.167771         4.5653 
  87   0.0000       0.172627         4.6974 
  88   0.0000       0.189236         5.1494 
  89   0.0000       0.191604         5.2138 
  90   0.0000       0.201468         5.4822 
  91   0.0000       0.204239         5.5576 
  92   0.0000       0.208642         5.6774 
  93   0.0000       0.217762         5.9256 
  94   0.0000       0.225877         6.1464 
  95   0.0000       0.233694         6.3591 
  96   0.0000       0.243489         6.6257 
  97   0.0000       0.249031         6.7765 
  98   0.0000       0.258483         7.0337 
  99   0.0000       0.277159         7.5419 
 100   0.0000       0.286825         7.8049 
 101   0.0000       0.294269         8.0075 
 102   0.0000       0.304395         8.2830 
 103   0.0000       0.313207         8.5228 
 104   0.0000       0.319547         8.6953 
 105   0.0000       0.333530         9.0758 
 106   0.0000       0.340978         9.2785 
 107   0.0000       0.343373         9.3437 
 108   0.0000       0.349925         9.5220 
 109   0.0000       0.352927         9.6036 
 110   0.0000       0.368277        10.0213 
 111   0.0000       0.371746        10.1157 
 112   0.0000       0.382961        10.4209 
 113   0.0000       0.384894        10.4735 
 114   0.0000       0.404208        10.9991 
 115   0.0000       0.408349        11.1117 
 116   0.0000       0.412782        11.2324 
 117   0.0000       0.424158        11.5419 
 118   0.0000       0.430074        11.7029 
 119   0.0000       0.436561        11.8794 
 120   0.0000       0.441612        12.0169 
 121   0.0000       0.446185        12.1413 
 122   0.0000       0.452075        12.3016 
 123   0.0000       0.462543        12.5864 
 124   0.0000       0.470727        12.8091 
 125   0.0000       0.471690        12.8354 
 126   0.0000       0.478583        13.0229 
 127   0.0000       0.486341        13.2340 
 128   0.0000       0.493777        13.4364 
 129   0.0000       0.503096        13.6900 
 130   0.0000       0.507879        13.8201 
 131   0.0000       0.513735        13.9794 
 132   0.0000       0.514724        14.0064 
 133   0.0000       0.521038        14.1782 
 134   0.0000       0.525915        14.3109 
 135   0.0000       0.530424        14.4336 
 136   0.0000       0.534212        14.5366 
 137   0.0000       0.545260        14.8373 
 138   0.0000       0.551937        15.0190 
 139   0.0000       0.554129        15.0786 
 140   0.0000       0.559096        15.2138 
 141   0.0000       0.560963        15.2646 
 142   0.0000       0.568540        15.4708 
 143   0.0000       0.569711        15.5026 
 144   0.0000       0.575230        15.6528 
 145   0.0000       0.580135        15.7863 
 146   0.0000       0.585395        15.9294 
 147   0.0000       0.590904        16.0793 
 148   0.0000       0.595869        16.2144 
 149   0.0000       0.599613        16.3163 
 150   0.0000       0.607495        16.5308 
 151   0.0000       0.609281        16.5794 
 152   0.0000       0.612465        16.6660 
 153   0.0000       0.614793        16.7294 
 154   0.0000       0.624097        16.9825 
 155   0.0000       0.625192        17.0123 
 156   0.0000       0.631310        17.1788 
 157   0.0000       0.636302        17.3147 
 158   0.0000       0.637969        17.3600 
 159   0.0000       0.644667        17.5423 
 160   0.0000       0.650505        17.7012 
 161   0.0000       0.653256        17.7760 
 162   0.0000       0.658377        17.9153 
 163   0.0000       0.663021        18.0417 
 164   0.0000       0.665813        18.1177 
 165   0.0000       0.680870        18.5274 
 166   0.0000       0.686082        18.6692 
 167   0.0000       0.692469        18.8430 
 168   0.0000       0.696561        18.9544 
 169   0.0000       0.701465        19.0878 
 170   0.0000       0.704384        19.1673 
 171   0.0000       0.711883        19.3713 
 172   0.0000       0.721439        19.6313 
 173   0.0000       0.729452        19.8494 
 174   0.0000       0.735268        20.0077 
 175   0.0000       0.736936        20.0530 
 176   0.0000       0.744847        20.2683 
 177   0.0000       0.747950        20.3528 
 178   0.0000       0.752252        20.4698 
 179   0.0000       0.760340        20.6899 
 180   0.0000       0.773657        21.0523 
 181   0.0000       0.781922        21.2772 
 182   0.0000       0.784720        21.3533 
 183   0.0000       0.793380        21.5890 
 184   0.0000       0.801203        21.8019 
 185   0.0000       0.811021        22.0690 
 186   0.0000       0.816818        22.2267 
 187   0.0000       0.828924        22.5562 
 188   0.0000       0.834155        22.6985 
 189   0.0000       0.837935        22.8014 
 190   0.0000       0.855304        23.2740 
 191   0.0000       0.857678        23.3386 
 192   0.0000       0.862478        23.4692 
 193   0.0000       0.868283        23.6272 
 194   0.0000       0.871100        23.7038 
 195   0.0000       0.882057        24.0020 
 196   0.0000       0.889483        24.2041 
 197   0.0000       0.899224        24.4691 
 198   0.0000       0.905869        24.6499 
 199   0.0000       0.909465        24.7478 
 200   0.0000       0.920990        25.0614 
 201   0.0000       0.929411        25.2905 
 202   0.0000       0.939918        25.5765 
 203   0.0000       0.939994        25.5785 
 204   0.0000       0.946457        25.7544 
 205   0.0000       0.948941        25.8220 
 206   0.0000       0.956705        26.0333 
 207   0.0000       0.961946        26.1759 
 208   0.0000       0.972544        26.4643 
 209   0.0000       0.975717        26.5506 
 210   0.0000       0.978318        26.6214 
 211   0.0000       0.986075        26.8325 
 212   0.0000       1.001383        27.2490 
 213   0.0000       1.009557        27.4714 
 214   0.0000       1.014287        27.6002 
 215   0.0000       1.021216        27.7887 
 216   0.0000       1.032159        28.0865 
 217   0.0000       1.036962        28.2172 
 218   0.0000       1.040468        28.3126 
 219   0.0000       1.042639        28.3716 
 220   0.0000       1.055023        28.7086 
 221   0.0000       1.062885        28.9226 
 222   0.0000       1.072642        29.1881 
 223   0.0000       1.072903        29.1952 
 224   0.0000       1.085167        29.5289 
 225   0.0000       1.091624        29.7046 
 226   0.0000       1.098709        29.8974 
 227   0.0000       1.106037        30.0968 
 228   0.0000       1.118369        30.4324 
 229   0.0000       1.125935        30.6383 
 230   0.0000       1.129635        30.7389 
 231   0.0000       1.132781        30.8245 
 232   0.0000       1.144482        31.1429 
 233   0.0000       1.152133        31.3511 
 234   0.0000       1.155120        31.4324 
 235   0.0000       1.168491        31.7963 
 236   0.0000       1.173496        31.9325 
 237   0.0000       1.182766        32.1847 
 238   0.0000       1.184975        32.2448 
 239   0.0000       1.193348        32.4726 
 240   0.0000       1.196648        32.5624 
 241   0.0000       1.208740        32.8915 
 242   0.0000       1.214817        33.0569 
 243   0.0000       1.220268        33.2052 
 244   0.0000       1.230290        33.4779 
 245   0.0000       1.234742        33.5990 
 246   0.0000       1.237976        33.6870 
 247   0.0000       1.241490        33.7827 
 248   0.0000       1.246221        33.9114 
 249   0.0000       1.262705        34.3600 
 250   0.0000       1.273100        34.6428 
 251   0.0000       1.280069        34.8324 
 252   0.0000       1.285330        34.9756 
 253   0.0000       1.295496        35.2522 
 254   0.0000       1.298553        35.3354 
 255   0.0000       1.307523        35.5795 
 256   0.0000       1.310665        35.6650 
 257   0.0000       1.323645        36.0182 
 258   0.0000       1.325261        36.0622 
 259   0.0000       1.334119        36.3032 
 260   0.0000       1.339247        36.4428 
 261   0.0000       1.355390        36.8820 
 262   0.0000       1.360819        37.0298 
 263   0.0000       1.371326        37.3157 
 264   0.0000       1.380226        37.5578 
 265   0.0000       1.386236        37.7214 
 266   0.0000       1.398628        38.0586 
 267   0.0000       1.409680        38.3593 
 268   0.0000       1.410904        38.3926 
 269   0.0000       1.414689        38.4956 
 270   0.0000       1.420866        38.6637 
 271   0.0000       1.440651        39.2021 
 272   0.0000       1.444009        39.2935 
 273   0.0000       1.447824        39.3973 
 274   0.0000       1.458300        39.6824 
 275   0.0000       1.462565        39.7984 
 276   0.0000       1.472590        40.0712 
 277   0.0000       1.480715        40.2923 
 278   0.0000       1.486997        40.4632 
 279   0.0000       1.496945        40.7339 
 280   0.0000       1.502054        40.8730 
 281   0.0000       1.512357        41.1533 
 282   0.0000       1.513386        41.1813 
 283   0.0000       1.521662        41.4065 
 284   0.0000       1.535406        41.7805 
 285   0.0000       1.540672        41.9238 
 286   0.0000       1.544916        42.0393 
 287   0.0000       1.548402        42.1342 
 288   0.0000       1.550786        42.1990 
 289   0.0000       1.559649        42.4402 
 290   0.0000       1.564557        42.5738 
 291   0.0000       1.570962        42.7481 
 292   0.0000       1.585915        43.1549 
 293   0.0000       1.591277        43.3008 
 294   0.0000       1.599359        43.5208 
 295   0.0000       1.611464        43.8502 
 296   0.0000       1.615994        43.9734 
 297   0.0000       1.622446        44.1490 
 298   0.0000       1.627755        44.2935 
 299   0.0000       1.633529        44.4506 
 300   0.0000       1.637407        44.5561 
 301   0.0000       1.648480        44.8574 
 302   0.0000       1.657702        45.1084 
 303   0.0000       1.662257        45.2323 
 304   0.0000       1.671450        45.4825 
 305   0.0000       1.678204        45.6663 
 306   0.0000       1.692119        46.0449 
 307   0.0000       1.701395        46.2973 
 308   0.0000       1.708248        46.4838 
 309   0.0000       1.720213        46.8094 
 310   0.0000       1.724488        46.9257 
 311   0.0000       1.728351        47.0308 
 312   0.0000       1.741447        47.3872 
 313   0.0000       1.746646        47.5287 
 314   0.0000       1.759646        47.8824 
 315   0.0000       1.775885        48.3243 
 316   0.0000       1.786421        48.6110 
 317   0.0000       1.798146        48.9301 
 318   0.0000       1.806445        49.1559 
 319   0.0000       1.812886        49.3311 
 320   0.0000       1.827407        49.7263 
 321   0.0000       1.829442        49.7816 
 322   0.0000       1.845093        50.2075 
 323   0.0000       1.852968        50.4218 
 324   0.0000       1.858040        50.5598 
 325   0.0000       1.865506        50.7630 
 326   0.0000       1.871110        50.9155 
 327   0.0000       1.903308        51.7916 
 328   0.0000       1.906704        51.8841 
 329   0.0000       1.918383        52.2019 
 330   0.0000       1.922145        52.3042 
 331   0.0000       1.929583        52.5066 
 332   0.0000       1.939679        52.7813 
 333   0.0000       1.950570        53.0777 
 334   0.0000       1.976393        53.7804 
 335   0.0000       1.981343        53.9151 
 336   0.0000       1.992321        54.2138 
 337   0.0000       1.997826        54.3636 
 338   0.0000       2.016486        54.8714 
 339   0.0000       2.020059        54.9686 
 340   0.0000       2.025480        55.1161 
 341   0.0000       2.038566        55.4722 
 342   0.0000       2.045677        55.6657 
 343   0.0000       2.071413        56.3660 
 344   0.0000       2.084997        56.7356 
 345   0.0000       2.092832        56.9489 
 346   0.0000       2.122418        57.7539 
 347   0.0000       2.144795        58.3628 
 348   0.0000       2.156405        58.6788 
 349   0.0000       2.162637        58.8483 
 350   0.0000       2.177716        59.2587 
 351   0.0000       2.206099        60.0310 
 352   0.0000       2.210586        60.1531 
 353   0.0000       2.224511        60.5320 
 354   0.0000       2.242520        61.0221 
 355   0.0000       2.273023        61.8521 
 356   0.0000       2.286852        62.2284 
 357   0.0000       2.296135        62.4810 
 358   0.0000       2.301490        62.6267 
 359   0.0000       2.318011        63.0763 
 360   0.0000       2.324287        63.2471 
 361   0.0000       2.346892        63.8622 
 362   0.0000       2.350461        63.9593 
 363   0.0000       2.363963        64.3267 
 364   0.0000       2.371646        64.5358 
 365   0.0000       2.380527        64.7774 
 366   0.0000       2.389225        65.0141 
 367   0.0000       2.406016        65.4710 
 368   0.0000       2.410856        65.6027 
 369   0.0000       2.434060        66.2341 
 370   0.0000       2.441358        66.4327 
 371   0.0000       2.464295        67.0569 
 372   0.0000       2.470753        67.2326 
 373   0.0000       2.482290        67.5465 
 374   0.0000       2.506384        68.2022 
 375   0.0000       2.511948        68.3536 
 376   0.0000       2.524403        68.6925 
 377   0.0000       2.539915        69.1146 
 378   0.0000       2.556263        69.5595 
 379   0.0000       2.560821        69.6835 
 380   0.0000       2.583023        70.2876 
 381   0.0000       2.589315        70.4588 
 382   0.0000       2.597471        70.6808 
 383   0.0000       2.612122        71.0795 
 384   0.0000       2.617140        71.2160 
 385   0.0000       2.632274        71.6278 
 386   0.0000       2.640871        71.8617 
 387   0.0000       2.652596        72.1808 
 388   0.0000       2.661590        72.4255 
 389   0.0000       2.673200        72.7415 
 390   0.0000       2.693283        73.2880 
 391   0.0000       2.702170        73.5298 
 392   0.0000       2.711358        73.7798 
 393   0.0000       2.716729        73.9260 
 394   0.0000       2.733319        74.3774 
 395   0.0000       2.743405        74.6519 
 396   0.0000       2.753063        74.9146 
 397   0.0000       2.763526        75.1994 
 398   0.0000       2.769237        75.3548 
 399   0.0000       2.778259        75.6003 
 400   0.0000       2.782849        75.7252 
 401   0.0000       2.787155        75.8424 
 402   0.0000       2.801577        76.2348 
 403   0.0000       2.809546        76.4516 
 404   0.0000       2.819215        76.7147 
 405   0.0000       2.826559        76.9146 
 406   0.0000       2.844896        77.4136 
 407   0.0000       2.847841        77.4937 
 408   0.0000       2.864167        77.9379 
 409   0.0000       2.871201        78.1293 
 410   0.0000       2.872303        78.1593 
 411   0.0000       2.883532        78.4649 
 412   0.0000       2.896177        78.8090 
 413   0.0000       2.910475        79.1981 
 414   0.0000       2.919169        79.4346 
 415   0.0000       2.934826        79.8607 
 416   0.0000       2.942878        80.0798 
 417   0.0000       2.950936        80.2991 
 418   0.0000       2.957721        80.4837 
 419   0.0000       2.961432        80.5847 
 420   0.0000       2.969674        80.8089 
 421   0.0000       2.973036        80.9004 
 422   0.0000       2.989353        81.3444 
 423   0.0000       2.999310        81.6154 
 424   0.0000       3.005137        81.7739 
 425   0.0000       3.013512        82.0018 
 426   0.0000       3.020240        82.1849 
 427   0.0000       3.028637        82.4134 
 428   0.0000       3.029910        82.4480 
 429   0.0000       3.031908        82.5024 
 430   0.0000       3.044293        82.8394 
 431   0.0000       3.057116        83.1883 
 432   0.0000       3.067057        83.4589 
 433   0.0000       3.074134        83.6514 
 434   0.0000       3.078292        83.7646 
 435   0.0000       3.087360        84.0113 
 436   0.0000       3.096128        84.2499 
 437   0.0000       3.104781        84.4854 
 438   0.0000       3.111194        84.6599 
 439   0.0000       3.117703        84.8370 
 440   0.0000       3.119561        84.8876 
 441   0.0000       3.137341        85.3714 
 442   0.0000       3.139964        85.4428 
 443   0.0000       3.141010        85.4712 
 444   0.0000       3.149882        85.7126 
 445   0.0000       3.158973        85.9600 
 446   0.0000       3.163353        86.0792 
 447   0.0000       3.174713        86.3883 
 448   0.0000       3.179946        86.5307 
 449   0.0000       3.191698        86.8505 
 450   0.0000       3.201532        87.1181 
 451   0.0000       3.204938        87.2108 
 452   0.0000       3.212496        87.4165 
 453   0.0000       3.218297        87.5743 
 454   0.0000       3.231589        87.9360 
 455   0.0000       3.238574        88.1261 
 456   0.0000       3.241864        88.2156 
 457   0.0000       3.246362        88.3380 
 458   0.0000       3.254836        88.5686 
 459   0.0000       3.268293        88.9348 
 460   0.0000       3.274306        89.0984 
 461   0.0000       3.283152        89.3391 
 462   0.0000       3.285576        89.4051 
 463   0.0000       3.295791        89.6830 
 464   0.0000       3.301704        89.8439 
 465   0.0000       3.307758        90.0087 
 466   0.0000       3.309488        90.0557 
 467   0.0000       3.322343        90.4055 
 468   0.0000       3.328370        90.5696 
 469   0.0000       3.334225        90.7289 
 470   0.0000       3.336724        90.7969 
 471   0.0000       3.344927        91.0201 
 472   0.0000       3.354814        91.2891 
 473   0.0000       3.356465        91.3340 
 474   0.0000       3.357897        91.3730 
 475   0.0000       3.364830        91.5617 
 476   0.0000       3.370948        91.7282 
 477   0.0000       3.373337        91.7932 
 478   0.0000       3.384495        92.0968 
 479   0.0000       3.385734        92.1305 
 480   0.0000       3.400457        92.5311 
 481   0.0000       3.400724        92.5384 
 482   0.0000       3.402664        92.5912 
 483   0.0000       3.411004        92.8181 
 484   0.0000       3.415895        92.9512 
 485   0.0000       3.421026        93.0908 
 486   0.0000       3.427690        93.2722 
 487   0.0000       3.432655        93.4073 
 488   0.0000       3.436940        93.5239 
 489   0.0000       3.441276        93.6419 
 490   0.0000       3.448820        93.8472 
 491   0.0000       3.456332        94.0516 
 492   0.0000       3.463863        94.2565 
 493   0.0000       3.466121        94.3179 
 494   0.0000       3.473650        94.5228 
 495   0.0000       3.487781        94.9073 
 496   0.0000       3.489180        94.9454 
 497   0.0000       3.492997        95.0493 
 498   0.0000       3.506821        95.4254 
 499   0.0000       3.516288        95.6831 
 500   0.0000       3.518148        95.7337 
 501   0.0000       3.521357        95.8210 
 502   0.0000       3.524587        95.9089 
 503   0.0000       3.535749        96.2126 
 504   0.0000       3.547289        96.5266 
 505   0.0000       3.564262        96.9885 
 506   0.0000       3.570243        97.1512 
 507   0.0000       3.574451        97.2658 
 508   0.0000       3.577200        97.3406 
 509   0.0000       3.593695        97.7894 
 510   0.0000       3.597251        97.8862 
 511   0.0000       3.605589        98.1131 
 512   0.0000       3.610479        98.2461 
 513   0.0000       3.616799        98.4181 
 514   0.0000       3.622663        98.5777 
 515   0.0000       3.625690        98.6600 
 516   0.0000       3.629723        98.7698 
 517   0.0000       3.637433        98.9796 
 518   0.0000       3.644166        99.1628 
 519   0.0000       3.654099        99.4331 
 520   0.0000       3.657084        99.5143 
 521   0.0000       3.660084        99.5959 
 522   0.0000       3.669640        99.8560 
 523   0.0000       3.674176        99.9794 
 524   0.0000       3.675773       100.0229 
 525   0.0000       3.681245       100.1718 
 526   0.0000       3.696893       100.5976 
 527   0.0000       3.698463       100.6403 
 528   0.0000       3.707653       100.8904 
 529   0.0000       3.713027       101.0366 
 530   0.0000       3.718498       101.1855 
 531   0.0000       3.724132       101.3388 
 532   0.0000       3.737048       101.6902 
 533   0.0000       3.739410       101.7545 
 534   0.0000       3.752011       102.0974 
 535   0.0000       3.756414       102.2172 
 536   0.0000       3.757307       102.2415 
 537   0.0000       3.765447       102.4630 
 538   0.0000       3.773265       102.6757 
 539   0.0000       3.779713       102.8512 
 540   0.0000       3.784434       102.9797 
 541   0.0000       3.790965       103.1574 
 542   0.0000       3.794238       103.2465 
 543   0.0000       3.803527       103.4992 
 544   0.0000       3.811954       103.7285 
 545   0.0000       3.823992       104.0561 
 546   0.0000       3.827813       104.1601 
 547   0.0000       3.838259       104.4443 
 548   0.0000       3.847452       104.6945 
 549   0.0000       3.850455       104.7762 
 550   0.0000       3.854635       104.8899 
 551   0.0000       3.867954       105.2524 
 552   0.0000       3.882136       105.6383 
 553   0.0000       3.889415       105.8364 
 554   0.0000       3.897997       106.0699 
 555   0.0000       3.901766       106.1724 
 556   0.0000       3.906390       106.2983 
 557   0.0000       3.916703       106.5789 
 558   0.0000       3.921355       106.7055 
 559   0.0000       3.934379       107.0599 
 560   0.0000       3.942310       107.2757 
 561   0.0000       3.955272       107.6284 
 562   0.0000       3.959941       107.7555 
 563   0.0000       3.970926       108.0544 
 564   0.0000       3.984267       108.4174 
 565   0.0000       3.992716       108.6473 
 566   0.0000       4.002010       108.9002 
 567   0.0000       4.010697       109.1366 
 568   0.0000       4.022410       109.4554 
 569   0.0000       4.025803       109.5477 
 570   0.0000       4.029580       109.6504 
 571   0.0000       4.040825       109.9564 
 572   0.0000       4.045730       110.0899 
 573   0.0000       4.058517       110.4379 
 574   0.0000       4.061977       110.5320 
 575   0.0000       4.082046       111.0781 
 576   0.0000       4.086718       111.2053 
 577   0.0000       4.091673       111.3401 
 578   0.0000       4.097250       111.4918 
 579   0.0000       4.103051       111.6497 
 580   0.0000       4.115235       111.9812 
 581   0.0000       4.120390       112.1215 
 582   0.0000       4.124383       112.2302 
 583   0.0000       4.126829       112.2967 
 584   0.0000       4.141882       112.7063 
 585   0.0000       4.146959       112.8445 
 586   0.0000       4.157502       113.1314 
 587   0.0000       4.168424       113.4286 
 588   0.0000       4.171659       113.5166 
 589   0.0000       4.179442       113.7284 
 590   0.0000       4.182847       113.8210 
 591   0.0000       4.191332       114.0519 
 592   0.0000       4.202843       114.3652 
 593   0.0000       4.207567       114.4937 
 594   0.0000       4.213130       114.6451 
 595   0.0000       4.215114       114.6991 
 596   0.0000       4.232613       115.1753 
 597   0.0000       4.234864       115.2365 
 598   0.0000       4.243748       115.4783 
 599   0.0000       4.248024       115.5946 
 600   0.0000       4.262434       115.9867 
 601   0.0000       4.266473       116.0966 
 602   0.0000       4.273539       116.2889 
 603   0.0000       4.280218       116.4707 
 604   0.0000       4.298755       116.9751 
 605   0.0000       4.303759       117.1112 
 606   0.0000       4.310920       117.3061 
 607   0.0000       4.315095       117.4197 
 608   0.0000       4.328598       117.7871 
 609   0.0000       4.343360       118.1888 
 610   0.0000       4.345936       118.2589 
 611   0.0000       4.359689       118.6332 
 612   0.0000       4.362824       118.7185 
 613   0.0000       4.367779       118.8533 
 614   0.0000       4.371515       118.9550 
 615   0.0000       4.381644       119.2306 
 616   0.0000       4.394107       119.5697 
 617   0.0000       4.401102       119.7601 
 618   0.0000       4.402193       119.7898 
 619   0.0000       4.415081       120.1405 
 620   0.0000       4.417963       120.2189 
 621   0.0000       4.427037       120.4658 
 622   0.0000       4.436637       120.7270 
 623   0.0000       4.444077       120.9295 
 624   0.0000       4.453644       121.1898 
 625   0.0000       4.455767       121.2476 
 626   0.0000       4.468321       121.5892 
 627   0.0000       4.481133       121.9378 
 628   0.0000       4.488349       122.1342 
 629   0.0000       4.501030       122.4793 
 630   0.0000       4.502538       122.5203 
 631   0.0000       4.517118       122.9170 
 632   0.0000       4.528593       123.2293 
 633   0.0000       4.532709       123.3413 
 634   0.0000       4.540279       123.5473 
 635   0.0000       4.542941       123.6197 
 636   0.0000       4.556909       123.9998 
 637   0.0000       4.564070       124.1947 
 638   0.0000       4.571778       124.4044 
 639   0.0000       4.588262       124.8530 
 640   0.0000       4.597992       125.1177 
 641   0.0000       4.602765       125.2476 
 642   0.0000       4.610977       125.4711 
 643   0.0000       4.625410       125.8638 
 644   0.0000       4.628443       125.9463 
 645   0.0000       4.630435       126.0006 
 646   0.0000       4.638663       126.2244 
 647   0.0000       4.643680       126.3609 
 648   0.0000       4.654791       126.6633 
 649   0.0000       4.661945       126.8580 
 650   0.0000       4.669333       127.0590 
 651   0.0000       4.673233       127.1651 
 652   0.0000       4.682409       127.4148 
 653   0.0000       4.690564       127.6367 
 654   0.0000       4.696550       127.7996 
 655   0.0000       4.702654       127.9657 
 656   0.0000       4.715159       128.3060 
 657   0.0000       4.722980       128.5188 
 658   0.0000       4.731914       128.7619 
 659   0.0000       4.744806       129.1127 
 660   0.0000       4.770171       129.8030 
 661   0.0000       4.776240       129.9681 
 662   0.0000       4.792131       130.4005 
 663   0.0000       4.797632       130.5502 
 664   0.0000       4.814559       131.0108 
 665   0.0000       4.826493       131.3356 
 666   0.0000       4.842037       131.7585 
 667   0.0000       4.866510       132.4245 
 668   0.0000       4.887458       132.9945 
 669   0.0000       4.906091       133.5015 
 670   0.0000       4.911574       133.6507 
 671   0.0000       4.922400       133.9453 
 672   0.0000       4.938677       134.3882 
 673   0.0000       4.961492       135.0091 
 674   0.0000       4.980763       135.5334 
 675   0.0000       5.001714       136.1035 
 676   0.0000       5.012027       136.3842 
 677   0.0000       5.014946       136.4636 
 678   0.0000       5.025102       136.7400 
 679   0.0000       5.034866       137.0057 
 680   0.0000       5.047958       137.3619 
 681   0.0000       5.067111       137.8831 
 682   0.0000       5.094682       138.6333 
 683   0.0000       5.095062       138.6437 
 684   0.0000       5.104506       138.9007 
 685   0.0000       5.120477       139.3353 
 686   0.0000       5.124679       139.4496 
 687   0.0000       5.133422       139.6875 
 688   0.0000       5.152521       140.2072 
 689   0.0000       5.160285       140.4185 
 690   0.0000       5.164390       140.5302 
 691   0.0000       5.177309       140.8818 
 692   0.0000       5.184229       141.0700 
 693   0.0000       5.206583       141.6783 
 694   0.0000       5.217463       141.9744 
 695   0.0000       5.219781       142.0375 
 696   0.0000       5.221565       142.0860 
 697   0.0000       5.229959       142.3144 
 698   0.0000       5.240086       142.5900 
 699   0.0000       5.250949       142.8856 
 700   0.0000       5.265762       143.2887 
 701   0.0000       5.280639       143.6935 
 702   0.0000       5.299789       144.2146 
 703   0.0000       5.315830       144.6511 
 704   0.0000       5.328076       144.9843 
 705   0.0000       5.334205       145.1511 
 706   0.0000       5.337921       145.2522 
 707   0.0000       5.351037       145.6091 
 708   0.0000       5.366692       146.0351 
 709   0.0000       5.377450       146.3278 
 710   0.0000       5.386139       146.5643 
 711   0.0000       5.412470       147.2808 
 712   0.0000       5.445675       148.1843 
 713   0.0000       5.468323       148.8006 
 714   0.0000       5.476627       149.0266 
 715   0.0000       5.486954       149.3076 
 716   0.0000       5.490866       149.4141 
 717   0.0000       5.511276       149.9694 
 718   0.0000       5.523455       150.3008 
 719   0.0000       5.532307       150.5417 
 720   0.0000       5.547652       150.9593 
 721   0.0000       5.547771       150.9625 
 722   0.0000       5.557444       151.2257 
 723   0.0000       5.566962       151.4847 
 724   0.0000       5.578323       151.7939 
 725   0.0000       5.598201       152.3348 
 726   0.0000       5.624105       153.0397 
 727   0.0000       5.632379       153.2648 
 728   0.0000       5.646493       153.6489 
 729   0.0000       5.651134       153.7752 
 730   0.0000       5.657666       153.9529 
 731   0.0000       5.667443       154.2190 
 732   0.0000       5.675066       154.4264 
 733   0.0000       5.681502       154.6015 
 734   0.0000       5.699936       155.1031 
 735   0.0000       5.709165       155.3543 
 736   0.0000       5.719239       155.6284 
 737   0.0000       5.731923       155.9735 
 738   0.0000       5.744612       156.3188 
 739   0.0000       5.752201       156.5254 
 740   0.0000       5.761767       156.7857 
 741   0.0000       5.783754       157.3839 
 742   0.0000       5.793848       157.6586 
 743   0.0000       5.804586       157.9508 
 744   0.0000       5.819036       158.3440 
 745   0.0000       5.838018       158.8606 
 746   0.0000       5.864378       159.5778 
 747   0.0000       5.872810       159.8073 
 748   0.0000       5.887888       160.2176 
 749   0.0000       5.911504       160.8602 
 750   0.0000       5.936019       161.5273 
 751   0.0000       5.954443       162.0286 
 752   0.0000       5.973057       162.5352 
 753   0.0000       5.998542       163.2286 
 754   0.0000       6.003709       163.3692 
 755   0.0000       6.035879       164.2446 
 756   0.0000       6.046173       164.5247 
 757   0.0000       6.053241       164.7171 
 758   0.0000       6.066435       165.0761 
 759   0.0000       6.078931       165.4161 
 760   0.0000       6.092151       165.7759 
 761   0.0000       6.170551       167.9092 
 762   0.0000       6.222703       169.3284 
 763   0.0000       6.232224       169.5874 
 764   0.0000       6.256740       170.2546 
 765   0.0000       6.292863       171.2375 
 766   0.0000       6.310726       171.7236 
 767   0.0000       6.341041       172.5485 
 768   0.0000       6.348634       172.7551 
 769   0.0000       6.371430       173.3754 
 770   0.0000       6.381901       173.6604 
 771   0.0000       6.385814       173.7668 
 772   0.0000       6.400935       174.1783 
 773   0.0000       6.434719       175.0976 
 774   0.0000       6.456679       175.6952 
 775   0.0000       6.459945       175.7841 
 776   0.0000       6.500615       176.8907 
 777   0.0000       6.554032       178.3443 
 778   0.0000       6.582632       179.1225 
 779   0.0000       6.613340       179.9581 
 780   0.0000       6.654176       181.0693 
 781   0.0000       6.694694       182.1719 
 782   0.0000       6.737747       183.3434 
 783   0.0000       6.749364       183.6595 
 784   0.0000       6.833486       185.9486 
 785   0.0000       6.840530       186.1403 
 786   0.0000       6.907721       187.9686 
 787   0.0000       6.920294       188.3108 
 788   0.0000       6.957339       189.3188 
 789   0.0000       7.004707       190.6078 
 790   0.0000       7.053951       191.9478 
 791   0.0000       7.065361       192.2583 
 792   0.0000       7.081200       192.6893 
 793   0.0000       7.132066       194.0734 
 794   0.0000       7.166590       195.0128 
 795   0.0000       7.256996       197.4729 
 796   0.0000       7.276896       198.0144 
 797   0.0000       7.282081       198.1555 
 798   0.0000       7.344916       199.8653 
 799   0.0000       7.390460       201.1047 
 800   0.0000       7.409452       201.6214 
 801   0.0000       7.515294       204.5015 
 802   0.0000       7.572165       206.0491 
 803   0.0000       7.586743       206.4458 
 804   0.0000       7.599627       206.7964 
 805   0.0000       7.758069       211.1078 
 806   0.0000       7.823307       212.8830 
 807   0.0000       7.931834       215.8362 
 808   0.0000       8.015856       218.1225 
 809   0.0000       9.481406       258.0022 
 810   0.0000       9.692242       263.7393 
 811   0.0000      10.830460       294.7118 
 812   0.0000      11.204879       304.9002 
 813   0.0000      12.083621       328.8120 
 814   0.0000      12.577379       342.2479 
 815   0.0000      12.949368       352.3702 
 816   0.0000      13.115265       356.8845 
 817   0.0000      13.264733       360.9517 
 818   0.0000      13.416149       365.0720 
 819   0.0000      13.447559       365.9267 
 820   0.0000      13.512769       367.7011 
 821   0.0000      13.686896       372.4394 
 822   0.0000      13.947264       379.5243 
 823   0.0000      14.044148       382.1607 
 824   0.0000      14.256232       387.9318 
 825   0.0000      14.485087       394.1593 
 826   0.0000      14.653359       398.7382 
 827   0.0000      15.971924       434.6181 

                    ********************************
                    * MULLIKEN POPULATION ANALYSIS *
                    ********************************

-----------------------
MULLIKEN ATOMIC CHARGES
-----------------------
   0 C :   -0.267500
   1 C :    0.013148
   2 O :   -0.321960
   3 C :    0.406618
   4 O :   -0.385503
   5 C :   -0.199008
   6 C :    0.138432
   7 C :   -0.320455
   8 N :   -0.135118
   9 C :    0.201803
  10 S :   -0.438855
  11 N :   -0.209759
  12 C :    0.066528
  13 C :    0.015104
  14 C :   -0.189783
  15 C :   -0.129575
  16 C :   -0.276638
  17 C :    0.312053
  18 O :   -0.360328
  19 C :   -0.262429
  20 H :    0.106671
  21 H :    0.108976
  22 H :    0.091414
  23 H :    0.113898
  24 H :    0.095109
  25 H :    0.133124
  26 H :    0.133195
  27 H :    0.121809
  28 H :    0.197433
  29 H :    0.197466
  30 H :    0.163854
  31 H :    0.168427
  32 H :    0.163542
  33 H :    0.132107
  34 H :    0.241779
  35 H :    0.174421
Sum of atomic charges:   -0.0000000

--------------------------------
MULLIKEN REDUCED ORBITAL CHARGES
--------------------------------
  0 C s       :     3.258178  s :     3.258178
      pz      :     0.986708  p :     2.932373
      px      :     0.988772
      py      :     0.956893
      dz2     :     0.008253  d :     0.072435
      dxz     :     0.014644
      dyz     :     0.023223
      dx2y2   :     0.016886
      dxy     :     0.009428
      f0      :     0.000313  f :     0.004515
      f+1     :     0.000317
      f-1     :     0.000591
      f+2     :     0.001653
      f-2     :     0.000888
      f+3     :     0.000445
      f-3     :     0.000307
  1 C s       :     3.172222  s :     3.172222
      pz      :     0.953742  p :     2.642077
      px      :     0.710546
      py      :     0.977789
      dz2     :     0.020296  d :     0.160790
      dxz     :     0.044272
      dyz     :     0.027229
      dx2y2   :     0.036847
      dxy     :     0.032145
      f0      :     0.000880  f :     0.011762
      f+1     :     0.001990
      f-1     :     0.000824
      f+2     :     0.002635
      f-2     :     0.001472
      f+3     :     0.002047
      f-3     :     0.001914
  2 O s       :     3.722438  s :     3.722438
      pz      :     1.690162  p :     4.564296
      px      :     1.151197
      py      :     1.722937
      dz2     :     0.003723  d :     0.032945
      dxz     :     0.010870
      dyz     :     0.003026
      dx2y2   :     0.004596
      dxy     :     0.010730
      f0      :     0.000222  f :     0.002281
      f+1     :     0.000294
      f-1     :     0.000053
      f+2     :     0.000403
      f-2     :     0.000305
[...]
 15 C s       :     2.705552  s :     2.705552
      pz      :     0.880489  p :     2.792903
      px      :     0.944962
      py      :     0.967453
      dz2     :     0.082202  d :     0.415824
      dxz     :     0.071227
      dyz     :     0.051064
      dx2y2   :     0.114438
      dxy     :     0.096893
      f0      :     0.002765  f :     0.041063
      f+1     :     0.004912
      f-1     :     0.005516
      f+2     :     0.006908
      f-2     :     0.006198
      f+3     :     0.007573
      f-3     :     0.007192
 16 C s       :     2.701627  s :     2.701627
      pz      :     0.930950  p :     2.867887
      px      :     0.966276
      py      :     0.970661
      dz2     :     0.038272  d :     0.390658
      dxz     :     0.058234
      dyz     :     0.079778
      dx2y2   :     0.098055
      dxy     :     0.116319
      f0      :     0.004029  f :     0.040346
      f+1     :     0.004449
      f-1     :     0.003341
      f+2     :     0.006054
      f-2     :     0.005143
      f+3     :     0.008956
      f-3     :     0.008374
 17 C s       :     2.701204  s :     2.701204
      pz      :     0.841282  p :     2.683353
      px      :     0.821432
      py      :     1.020639
      dz2     :     0.113504  d :     0.709154
      dxz     :     0.113734
      dyz     :     0.126857
      dx2y2   :     0.176586
      dxy     :     0.178474
      f0      :     0.007977  f :     0.099363
      f+1     :     0.015997
      f-1     :     0.007975
      f+2     :     0.015510
      f-2     :     0.013992
      f+3     :     0.017874
      f-3     :     0.020039
 18 O s       :     3.177165  s :     3.177165
      pz      :     1.468218  p :     4.346941
      px      :     1.384365
      py      :     1.494358
      dz2     :     0.007289  d :     0.075550
      dxz     :     0.017201
      dyz     :     0.015508
      dx2y2   :     0.017943
      dxy     :     0.017610
      f0      :     0.000561  f :     0.005071
      f+1     :     0.000755
      f-1     :     0.000303
      f+2     :     0.000678
      f-2     :     0.000877
      f+3     :     0.000848
      f-3     :     0.001048
 19 C s       :     2.695307  s :     2.695307
      pz      :     0.924656  p :     2.848638
      px      :     0.958190
      py      :     0.965793
      dz2     :     0.066534  d :     0.388126
      dxz     :     0.067405
      dyz     :     0.052805
      dx2y2   :     0.100795
      dxy     :     0.100586
      f0      :     0.002947  f :     0.040795
      f+1     :     0.004842
      f-1     :     0.005008
      f+2     :     0.006953
      f-2     :     0.006669
      f+3     :     0.007640
      f-3     :     0.006736
 20 H s       :     0.841421  s :     0.841421
      pz      :     0.060211  p :     0.154415
      px      :     0.052615
      py      :     0.041589
      dz2     :     0.007565  d :     0.027725
      dxz     :     0.006531
      dyz     :     0.006042
      dx2y2   :     0.003873
      dxy     :     0.003714
 21 H s       :     0.846971  s :     0.846971
      pz      :     0.049207  p :     0.150630
      px      :     0.039016
      py      :     0.062407
      dz2     :     0.005464  d :     0.027502
      dxz     :     0.003530
      dyz     :     0.007044
      dx2y2   :     0.005461
      dxy     :     0.006004
 22 H s       :     0.847797  s :     0.847797
      pz      :     0.045599  p :     0.151423
      px      :     0.065936
      py      :     0.039887
      dz2     :     0.003706  d :     0.027465
      dxz     :     0.008021
      dyz     :     0.002334
      dx2y2   :     0.006652
      dxy     :     0.006752
 23 H s       :     0.856201  s :     0.856201
      pz      :     0.059291  p :     0.145254
      px      :     0.043780
      py      :     0.042183
      dz2     :     0.005583  d :     0.026878
      dxz     :     0.007539
      dyz     :     0.006752
      dx2y2   :     0.003486
      dxy     :     0.003518
 24 H s       :     0.853541  s :     0.853541
      pz      :     0.056067  p :     0.158731
      px      :     0.030603
      py      :     0.072061
      dz2     :     0.006328  d :     0.028023
      dxz     :     0.002667
      dyz     :     0.008173
      dx2y2   :     0.006337
      dxy     :     0.004519
 25 H s       :     0.828899  s :     0.828899
      pz      :     0.052821  p :     0.150170
      px      :     0.039712
      py      :     0.057637
      dz2     :     0.007251  d :     0.027591
      dxz     :     0.004352
      dyz     :     0.006814
      dx2y2   :     0.004710
      dxy     :     0.004464
 26 H s       :     0.832874  s :     0.832874
      pz      :     0.040939  p :     0.150379
      px      :     0.044392
      py      :     0.065049
      dz2     :     0.003716  d :     0.027659
      dxz     :     0.002242
      dyz     :     0.007431
      dx2y2   :     0.007915
      dxy     :     0.006355
 27 H s       :     0.835605  s :     0.835605
      pz      :     0.037459  p :     0.153057
      px      :     0.074178
      py      :     0.041420
      dz2     :     0.002335  d :     0.027707
      dxz     :     0.008580
      dyz     :     0.000376
      dx2y2   :     0.006944
      dxy     :     0.009473
 28 H s       :     0.742450  s :     0.742450
      pz      :     0.055826  p :     0.253313
      px      :     0.089715
      py      :     0.107772
      dz2     :     0.007234  d :     0.061666
      dxz     :     0.003420
      dyz     :     0.015706
      dx2y2   :     0.016660
      dxy     :     0.018646
 29 H s       :     0.747741  s :     0.747741
      pz      :     0.117198  p :     0.254293
      px      :     0.093569
      py      :     0.043526
      dz2     :     0.022265  d :     0.061354
      dxz     :     0.018010
      dyz     :     0.012345
      dx2y2   :     0.005275
      dxy     :     0.003459
 30 H s       :     0.825256  s :     0.825256
      pz      :     0.037585  p :     0.148892
      px      :     0.073034
      py      :     0.038274
      dz2     :     0.002738  d :     0.028330
      dxz     :     0.007953
      dyz     :     0.001846
      dx2y2   :     0.008089
      dxy     :     0.007705
 31 H s       :     0.837963  s :     0.837963
      pz      :     0.052552  p :     0.156331
      px      :     0.067942
      py      :     0.035836
      dz2     :     0.004753  d :     0.027397
      dxz     :     0.007045
      dyz     :     0.002855
      dx2y2   :     0.006215
      dxy     :     0.006528
 32 H s       :     0.841205  s :     0.841205
      pz      :     0.037226  p :     0.150844
      px      :     0.039239
      py      :     0.074379
      dz2     :     0.002608  d :     0.026416
      dxz     :     0.000859
      dyz     :     0.006990
      dx2y2   :     0.007916
      dxy     :     0.008042
 33 H s       :     0.847992  s :     0.847992
      pz      :     0.056323  p :     0.158909
      px      :     0.048785
      py      :     0.053801
      dz2     :     0.005507  d :     0.027737
      dxz     :     0.004518
      dyz     :     0.005813
      dx2y2   :     0.006244
      dxy     :     0.005655
 34 H s       :     0.705957  s :     0.705957
      pz      :     0.113999  p :     0.347405
      px      :     0.083200
      py      :     0.150206
      dz2     :     0.022297  d :     0.099471
      dxz     :     0.010773
      dyz     :     0.024401
      dx2y2   :     0.021675
      dxy     :     0.020324
 35 H s       :     0.838278  s :     0.838278
      pz      :     0.042009  p :     0.158351
      px      :     0.040876
      py      :     0.075466
      dz2     :     0.002590  d :     0.028037
      dxz     :     0.001079
      dyz     :     0.007764
      dx2y2   :     0.008155
      dxy     :     0.008449


                      *****************************
                      * MAYER POPULATION ANALYSIS *
                      *****************************

  NA   - Mulliken gross atomic population
  ZA   - Total nuclear charge
  QA   - Mulliken gross atomic charge
  VA   - Mayer's total valence
  BVA  - Mayer's bonded valence
  FA   - Mayer's free valence

  ATOM       NA         ZA         QA         VA         BVA        FA
  0 C      6.2675     6.0000    -0.2675     3.8946     3.8946    -0.0000
  1 C      5.9869     6.0000     0.0131     3.8508     3.8508    -0.0000
  2 O      8.3220     8.0000    -0.3220     2.0546     2.0546    -0.0000
  3 C      5.5934     6.0000     0.4066     4.2607     4.2607    -0.0000
  4 O      8.3855     8.0000    -0.3855     2.1267     2.1267     0.0000
  5 C      6.1990     6.0000    -0.1990     3.5560     3.5560    -0.0000
  6 C      5.8616     6.0000     0.1384     3.7988     3.7988     0.0000
  7 C      6.3205     6.0000    -0.3205     3.8763     3.8763     0.0000
  8 N      7.1351     7.0000    -0.1351     3.2623     3.2623     0.0000
  9 C      5.7982     6.0000     0.2018     4.1496     4.1496    -0.0000
 10 S     16.4389    16.0000    -0.4389     1.7547     1.7547     0.0000
 11 N      7.2098     7.0000    -0.2098     3.2585     3.2585     0.0000
 12 C      5.9335     6.0000     0.0665     3.9466     3.9466    -0.0000
 13 C      5.9849     6.0000     0.0151     3.7378     3.7378    -0.0000
 14 C      6.1898     6.0000    -0.1898     3.8716     3.8716     0.0000
 15 C      6.1296     6.0000    -0.1296     3.8048     3.8048     0.0000
 16 C      6.2766     6.0000    -0.2766     3.7882     3.7882     0.0000
 17 C      5.6879     6.0000     0.3121     3.8691     3.8691     0.0000
 18 O      8.3603     8.0000    -0.3603     2.1142     2.1142     0.0000
 19 C      6.2624     6.0000    -0.2624     3.8275     3.8275     0.0000
 20 H      0.8933     1.0000     0.1067     0.9815     0.9815    -0.0000
 21 H      0.8910     1.0000     0.1090     0.9849     0.9849     0.0000
 22 H      0.9086     1.0000     0.0914     0.9823     0.9823    -0.0000
 23 H      0.8861     1.0000     0.1139     0.9726     0.9726     0.0000
 24 H      0.9049     1.0000     0.0951     0.9685     0.9685    -0.0000
 25 H      0.8669     1.0000     0.1331     0.9843     0.9843     0.0000
 26 H      0.8668     1.0000     0.1332     0.9811     0.9811     0.0000
 27 H      0.8782     1.0000     0.1218     0.9705     0.9705     0.0000
 28 H      0.8026     1.0000     0.1974     1.0213     1.0213    -0.0000
 29 H      0.8025     1.0000     0.1975     1.0162     1.0162    -0.0000
 30 H      0.8361     1.0000     0.1639     0.9941     0.9941    -0.0000
 31 H      0.8316     1.0000     0.1684     0.9861     0.9861    -0.0000
 32 H      0.8365     1.0000     0.1635     0.9769     0.9769    -0.0000
 33 H      0.8679     1.0000     0.1321     0.9912     0.9912    -0.0000
 34 H      0.7582     1.0000     0.2418     1.0099     1.0099    -0.0000
 35 H      0.8256     1.0000     0.1744     0.9858     0.9858     0.0000

  Mayer bond orders larger than 0.100000
B(  0-C ,  1-C ) :   0.9798 B(  0-C , 20-H ) :   0.9699 B(  0-C , 21-H ) :   0.9809 
B(  0-C , 22-H ) :   0.9752 B(  1-C ,  2-O ) :   0.8980 B(  1-C , 23-H ) :   0.9801 
B(  1-C , 24-H ) :   0.9621 B(  2-O ,  3-C ) :   1.1862 B(  3-C ,  4-O ) :   2.0879 
B(  3-C ,  5-C ) :   0.9312 B(  5-C ,  6-C ) :   1.6824 B(  5-C , 12-C ) :   0.9580 
B(  6-C ,  7-C ) :   0.9461 B(  6-C ,  8-N ) :   1.1200 B(  7-C , 25-H ) :   0.9772 
B(  7-C , 26-H ) :   0.9751 B(  7-C , 27-H ) :   0.9641 B(  8-N ,  9-C ) :   1.1904 
B(  8-N , 28-H ) :   0.9512 B(  9-C , 10-S ) :   1.6132 B(  9-C , 11-N ) :   1.2906 
B( 11-N , 12-C ) :   0.9987 B( 11-N , 29-H ) :   0.9498 B( 12-C , 13-C ) :   0.9424 
B( 12-C , 30-H ) :   0.9966 B( 13-C , 14-C ) :   1.3899 B( 13-C , 19-C ) :   1.3543 
B( 14-C , 15-C ) :   1.3931 B( 14-C , 31-H ) :   0.9604 B( 15-C , 16-C ) :   1.3613 
B( 15-C , 32-H ) :   0.9709 B( 16-C , 17-C ) :   1.3306 B( 16-C , 33-H ) :   0.9851 
B( 17-C , 18-O ) :   1.1076 B( 17-C , 19-C ) :   1.3711 B( 18-O , 34-H ) :   0.9791 
B( 19-C , 35-H ) :   0.9566 

-------
TIMINGS
-------

Total SCF time: 0 days 2 hours 25 min 35 sec 

Total time                  ....    8735.722 sec
Sum of individual times     ....    8726.690 sec  ( 99.9%)

Fock matrix formation       ....    8703.232 sec  ( 99.6%)
Diagonalization             ....       1.504 sec  (  0.0%)
Density matrix formation    ....       0.212 sec  (  0.0%)
Population analysis         ....       0.418 sec  (  0.0%)
Initial guess               ....       5.750 sec  (  0.1%)
Orbital Transformation      ....       0.000 sec  (  0.0%)
Orbital Orthonormalization  ....       0.000 sec  (  0.0%)
DIIS solution               ....      10.658 sec  (  0.1%)
SOSCF solution              ....       3.378 sec  (  0.0%)

Maximum memory used throughout the entire SCF-calculation: 761.3 MB

------------------------------------------------------------------------------
                                ORCA  MP2 
------------------------------------------------------------------------------

Freezing NCore=48 chemical core electrons

-------------
RI-MP2 ENERGY
-------------
Dimension of the basis                    ...  828
Memory devoted to MP2                     ...  256 MB   
Data format for buffers                   ... DOUBLE
Compression type for matrix containers    ... UNCOMPRESSED
Overall scaling of the MP2 energy         ...   1.000e+00
Calculating two index integrals           ... done (    0.034 sec)
Cholesky decomposition of V**-1           ... done (    0.502 sec)

-----------------
RI-TRANSFORMATION (AUX index driven)
-----------------

Dimension of the orbital-basis         ... 828
Dimension of the aux-basis             ... 2141
Transformation of internal/external MOs...   24-  76 to   77- 827
Number Format for Storage              ... Double (8 Byte)
Integral mode                          ... Direct

First Phase: integral generation and transformation of MO indices
  Aux angular momentum 0               ... done (    4.437 sec)
  Aux angular momentum 1               ... done (    7.101 sec)
  Aux angular momentum 2               ... done (    8.906 sec)
  Aux angular momentum 3               ... done (    6.478 sec)
  Aux angular momentum 4               ... done (    2.265 sec)
Closing buffer VIA ( 0.63 GB; CompressionRatio= 1.00)
  Phase 1 completed in    29.556 sec
Second Phase: sorting and transformation of aux index

IA-Transformation
Memory available                       ... 156 MB 
Max. # MO pairs treated in a batch     ... 11    
# of internal orbitals                 ... 53
# batches for internal orbitals        ... 5
Closing buffer IAV ( 0.63 GB; CompressionRatio= 1.00)
(ia|v) transformation done in    45.095 sec

  Phase 2 completed in    45.106 sec
RI-Integral transformation completed in    74.748 sec
Opening buffers                              ... done

Starting loop over batches of integrals:

Operator 0  - window                       ... ( 24- 76)x( 77-827)
Operator 0  - Memory available             ...   256 MB
Operator 0  - Memory needed per MO         ...  12.3 MB
Operator 0  - Number of orbitals per batch ... 13
Operator 0  - Number of batches            ... 5

OPERATOR  0   PASS   0:  MOs    24 ...   36
  Reading integrals       ... ok
  Internal MO  26
  Internal MO  29
  Internal MO  32
  Internal MO  35
OPERATOR  0   PASS   1:  MOs    37 ...   49
  Reading integrals       ... ok
  Internal MO  38
  Internal MO  41
  Internal MO  44
  Internal MO  47
OPERATOR  0   PASS   2:  MOs    50 ...   62
  Reading integrals       ... ok
  Internal MO  50
  Internal MO  53
  Internal MO  56
  Internal MO  59
  Internal MO  62
OPERATOR  0   PASS   3:  MOs    63 ...   75
  Reading integrals       ... ok
  Internal MO  65
  Internal MO  68
  Internal MO  71
  Internal MO  74
OPERATOR  0   PASS   4:  MOs    76 ...   76
  Reading integrals       ... ok
Time spent in pair loops =   111.612 sec
Deleting buffer (Ka|jb)[aa] ...done

-----------------------------------------------
 RI-MP2 CORRELATION ENERGY:     -3.540668369 Eh
-----------------------------------------------


-------
TIMINGS
-------

Total time                :  187.114 sec
Integral trafo            :   74.759 sec ( 40.0%)
I/O of integrals          :    2.125 sec (  1.1%)
K(i,j) Operators          :   78.210 sec ( 41.8%)
T(i,j) pair energies      :    2.868 sec (  1.5%)
V-calculation             :    0.034 sec (  0.0%)
V**(-1/2)                 :    0.502 sec (  0.3%)
Gamma(ia|P)               :    0.000 sec (  0.0%)
Gamma-Trafo               :    0.000 sec (  0.0%)
D(virtual)                :    0.000 sec (  0.0%)
D(internal)               :    0.000 sec (  0.0%)
W(virtual)                :    0.000 sec (  0.0%)
W(internal)               :    0.000 sec (  0.0%)
L(virtual)                :    0.000 sec (  0.0%)
L(internal)               :    0.000 sec (  0.0%)
G(D)                      :    0.000 sec (  0.0%)
G(Z)                      :    0.000 sec (  0.0%)
Z-Vector Solution         :    0.000 sec (  0.0%)
3-Index Derivative        :    0.000 sec (  0.0%)
2-Index Derivative        :    0.000 sec (  0.0%)
Separable Gradient        :    0.000 sec (  0.0%)


---------------------------------------
MP2 TOTAL ENERGY:    -1274.336388041 Eh
---------------------------------------

Maximum memory used throughout the entire MP2-calculation: 306.1 MB

-------------------------   --------------------
FINAL SINGLE POINT ENERGY     -1274.336388041479
-------------------------   --------------------


                            ***************************************
                            *     ORCA property calculations      *
                            ***************************************


  WARNING: The energy has been calculated at the MP2 level but the densities
           used in the property calculations are still SCF densities
           MP2 response densities have not been calculated 
           use %mp2 Density relaxed end
           or  %mp2 Density unrelaxed end

                                    ---------------------
                                    Active property flags
                                    ---------------------
   (+) Dipole Moment


------------------------------------------------------------------------------
                       ORCA ELECTRIC PROPERTIES CALCULATION
------------------------------------------------------------------------------

Dipole Moment Calculation                       ... on
Quadrupole Moment Calculation                   ... off
Polarizability Calculation                      ... off
GBWName                                         ... CONFS/Conf201.orca.gbw
Electron density file                           ... CONFS/Conf201.orca.scfp
The origin for moment calculation is the CENTER OF MASS  = (32.808759, 31.401433 35.191631)

-------------
DIPOLE MOMENT
-------------
                                X             Y             Z
Electronic contribution:     10.02040       8.05660       5.80904
Nuclear contribution   :    -11.55060      -8.95001      -6.19800
                        -----------------------------------------
Total Dipole Moment    :     -1.53019      -0.89340      -0.38896
                        -----------------------------------------
Magnitude (a.u.)       :      1.81410
Magnitude (Debye)      :      4.61107



--------------------
Rotational spectrum 
--------------------
 
Rotational constants in cm-1:     0.012266     0.009247     0.006855 
Rotational constants in MHz :   367.723527   277.231413   205.494125 

 Dipole components along the rotational axes: 
x,y,z [a.u.] :    -1.252524    -0.570911     1.181609 
x,y,z [Debye]:    -3.183663    -1.451139     3.003412 

 

Timings for individual modules:

Sum of individual times         ...     8929.924 sec (= 148.832 min)
GTO integral calculation        ...        5.735 sec (=   0.096 min)   0.1 %
SCF iterations                  ...     8736.173 sec (= 145.603 min)  97.8 %
MP2 module                      ...      188.015 sec (=   3.134 min)   2.1 %
                             ****ORCA TERMINATED NORMALLY****
TOTAL RUN TIME: 0 days 2 hours 28 minutes 52 seconds 69 msec
