
                                        *****************
                                        * O   R   C   A *
                                        *****************

                                            #,                                       
                                            ###                                      
                                            ####                                     
                                            #####                                    
                                            ######                                   
                                           ########,                                 
                                     ,,################,,,,,                         
                               ,,#################################,,                 
                          ,,##########################################,,             
                       ,#########################################, ''#####,          
                    ,#############################################,,   '####,        
                  ,##################################################,,,,####,       
                ,###########''''           ''''###############################       
              ,#####''   ,,,,##########,,,,          '''####'''          '####       
            ,##' ,,,,###########################,,,                        '##       
           ' ,,###''''                  '''############,,,                           
         ,,##''                                '''############,,,,        ,,,,,,###''
      ,#''                                            '''#######################'''  
     '                                                          ''''####''''         
             ,#######,   #######,   ,#######,      ##                                
            ,#'     '#,  ##    ##  ,#'     '#,    #''#        ######   ,####,        
            ##       ##  ##   ,#'  ##            #'  '#       #        #'  '#        
            ##       ##  #######   ##           ,######,      #####,   #    #        
            '#,     ,#'  ##    ##  '#,     ,#' ,#      #,         ##   #,  ,#        
             '#######'   ##     ##  '#######'  #'      '#     #####' # '####'        



                  #######################################################
                  #                        -***-                        #
                  #          Department of theory and spectroscopy      #
                  #    Directorship and core code : Frank Neese         #
                  #        Max Planck Institute fuer Kohlenforschung    #
                  #                Kaiser Wilhelm Platz 1               #
                  #                 D-45470 Muelheim/Ruhr               #
                  #                      Germany                        #
                  #                                                     #
                  #                  All rights reserved                #
                  #                        -***-                        #
                  #######################################################


                         Program Version 5.0.0 -  RELEASE  -
                                (SVN: $Rev: 19529$)
                ($Date: 2021-06-28 11:36:33 +0200 (Mo, 28 Jun 2021) $)


 With contributions from (in alphabetic order):
   Daniel Aravena         : Magnetic Suceptibility
   Michael Atanasov       : Ab Initio Ligand Field Theory (pilot matlab implementation)
   Alexander A. Auer      : GIAO ZORA, VPT2 properties, NMR spectrum
   Ute Becker             : Parallelization
   Giovanni Bistoni       : ED, misc. LED, open-shell LED, HFLD
   Martin Brehm           : Molecular dynamics
   Dmytro Bykov           : SCF Hessian
   Vijay G. Chilkuri      : MRCI spin determinant printing, contributions to CSF-ICE
   Dipayan Datta          : RHF DLPNO-CCSD density
   Achintya Kumar Dutta   : EOM-CC, STEOM-CC
   Dmitry Ganyushin       : Spin-Orbit,Spin-Spin,Magnetic field MRCI
   Miquel Garcia          : C-PCM Hessian, Gaussian charge scheme
   Yang Guo               : DLPNO-NEVPT2, F12-NEVPT2, CIM, IAO-localization
   Andreas Hansen         : Spin unrestricted coupled pair/coupled cluster methods
   Benjamin Helmich-Paris : MC-RPA, TRAH-SCF, COSX integrals
   Lee Huntington         : MR-EOM, pCC
   Robert Izsak           : Overlap fitted RIJCOSX, COSX-SCS-MP3, EOM
   Marcus Kettner         : VPT2
   Christian Kollmar      : KDIIS, OOCD, Brueckner-CCSD(T), CCSD density, CASPT2, CASPT2-K
   Simone Kossmann        : Meta GGA functionals, TD-DFT gradient, OOMP2, MP2 Hessian
   Martin Krupicka        : Initial AUTO-CI
   Lucas Lang             : DCDCAS
   Marvin Lechner         : AUTO-CI (C++ implementation), FIC-MRCC
   Dagmar Lenk            : GEPOL surface, SMD
   Dimitrios Liakos       : Extrapolation schemes; Compound Job, initial MDCI parallelization
   Dimitrios Manganas     : Further ROCIS development; embedding schemes
   Dimitrios Pantazis     : SARC Basis sets
   Anastasios Papadopoulos: AUTO-CI, single reference methods and gradients
   Taras Petrenko         : DFT Hessian,TD-DFT gradient, ASA, ECA, R-Raman, ABS, FL, XAS/XES, NRVS
   Peter Pinski           : DLPNO-MP2, DLPNO-MP2 Gradient
   Christoph Reimann      : Effective Core Potentials
   Marius Retegan         : Local ZFS, SOC
   Christoph Riplinger    : Optimizer, TS searches, QM/MM, DLPNO-CCSD(T), (RO)-DLPNO pert. Triples
   Tobias Risthaus        : Range-separated hybrids, TD-DFT gradient, RPA, STAB
   Michael Roemelt        : Original ROCIS implementation
   Masaaki Saitow         : Open-shell DLPNO-CCSD energy and density
   Barbara Sandhoefer     : DKH picture change effects
   Avijit Sen             : IP-ROCIS
   Kantharuban Sivalingam : CASSCF convergence, NEVPT2, FIC-MRCI
   Bernardo de Souza      : ESD, SOC TD-DFT
   Georgi Stoychev        : AutoAux, RI-MP2 NMR
   Willem Van den Heuvel  : Paramagnetic NMR
   Boris Wezisla          : Elementary symmetry handling
   Frank Wennmohs         : Technical directorship


 We gratefully acknowledge several colleagues who have allowed us to
 interface, adapt or use parts of their codes:
   Stefan Grimme, W. Hujo, H. Kruse, P. Pracht,  : VdW corrections, initial TS optimization,
                  C. Bannwarth, S. Ehlert          DFT functionals, gCP, sTDA/sTD-DF
   Ed Valeev, F. Pavosevic, A. Kumar             : LibInt (2-el integral package), F12 methods
   Garnet Chan, S. Sharma, J. Yang, R. Olivares  : DMRG
   Ulf Ekstrom                                   : XCFun DFT Library
   Mihaly Kallay                                 : mrcc  (arbitrary order and MRCC methods)
   Jiri Pittner, Ondrej Demel                    : Mk-CCSD
   Frank Weinhold                                : gennbo (NPA and NBO analysis)
   Christopher J. Cramer and Donald G. Truhlar   : smd solvation model
   Lars Goerigk                                  : TD-DFT with DH, B97 family of functionals
   V. Asgeirsson, H. Jonsson                     : NEB implementation
   FAccTs GmbH                                   : IRC, NEB, NEB-TS, DLPNO-Multilevel, CI-OPT
                                                   MM, QMMM, 2- and 3-layer-ONIOM, Crystal-QMMM,
                                                   LR-CPCM, SF, NACMEs, symmetry and pop. for TD-DFT,
                                                   nearIR, NL-DFT gradient (VV10), updates on ESD,
                                                   ML-optimized integration grids
   S Lehtola, MJT Oliveira, MAL Marques          : LibXC Library
   Liviu Ungur et al                             : ANISO software


 Your calculation uses the libint2 library for the computation of 2-el integrals
 For citations please refer to: http://libint.valeyev.net

 Your ORCA version has been built with support for libXC version: 5.1.0
 For citations please refer to: https://tddft.org/programs/libxc/

 This ORCA versions uses:
   CBLAS   interface :  Fast vector & matrix operations
   LAPACKE interface :  Fast linear algebra routines
   SCALAPACK package :  Parallel linear algebra routines
   Shared memory     :  Shared parallel matrices
   BLAS/LAPACK       :  OpenBLAS 0.3.15  USE64BITINT DYNAMIC_ARCH NO_AFFINITY Zen SINGLE_THREADED
        Core in use  :  Zen
   Copyright (c) 2011-2014, The OpenBLAS Project


================================================================================

----- Orbital basis set information -----
Your calculation utilizes the basis: cc-pVTZ 
       H, B-Ne : Obtained from the ccRepo (grant-hill.group.shef.ac.uk/ccrepo) Feb. 2017
                 T. H. Dunning, Jr., J. Chem. Phys. 90, 1007 (1989)
            He : Obtained from the ccRepo (grant-hill.group.shef.ac.uk/ccrepo) Feb. 2017
                 D. E. Woon, T. H. Dunning, Jr., J. Chem. Phys. 100, 2975 (1994)
  Li-Be, Na-Mg : Obtained from the ccRepo (grant-hill.group.shef.ac.uk/ccrepo) Feb. 2017
                 B. P. Prascher, D. E. Woon, K. A. Peterson, T. H. Dunning, Jr., A. K. Wilson, Theor. Chem. Acc. 128, 69 (2011)
         Al-Ar : Obtained from the ccRepo (grant-hill.group.shef.ac.uk/ccrepo) Feb. 2017
                 D. E. Woon, T. H. Dunning, Jr., J. Chem. Phys. 98, 1358 (1993)
            Ca : Obtained from the Peterson Research Group Website (tyr0.chem.wsu.edu/~kipeters) Feb. 2017
                 J. Koput, K. A. Peterson, J. Phys. Chem. 106, 9595 (2002)
         Sc-Zn : Obtained from the ccRepo (grant-hill.group.shef.ac.uk/ccrepo) Feb. 2017
                 N. B. Balabanov, K. A. Peterson, J. Chem. Phys. 123, 064107 (2005)
                 N. B. Balabanov, K. A. Peterson, J. Chem. Phys. 125, 074110 (2006)
         Ga-Kr : Obtained from the ccRepo (grant-hill.group.shef.ac.uk/ccrepo) Feb. 2017
                 A. K. Wilson, D. E. Woon, K. A. Peterson, T. H. Dunning, Jr., J. Chem. Phys. 110, 7667 (1999)
             Y : Obtained from the ccRepo (grant-hill.group.shef.ac.uk/ccrepo) Feb. 2017
                 K. A. Peterson, D. Figgen, M. Dolg, H. Stoll, J. Chem. Phys. 126, 124101 (2007)
        Ag, Au : Obtained from the Peterson Research Group Website (tyr0.chem.wsu.edu/~kipeters) Feb. 2017
                 K. A. Peterson, C. Puzzarini, Theor. Chem. Acc. 114, 283 (2005)

----- AuxC basis set information -----
Your calculation utilizes the auxiliary basis: cc-pVTZ/C 
  Obtained from the EMSL Basis Set Exchange (bse.pnl.gov) Feb. 2017
  H-He, B-F, Al-Ar, Ga-Kr : F. Weigend, A. Kohn, C. Hattig, J. Chem. Phys. 116, 3175 (2002)
             Li-Be, Na-Mg : C. Haettig, Phys. Chem. Chem. Phys. 7, 59 (2005)
                       Ne : C. Haettig, Phys. Chem. Chem. Phys. 7, 59 (2005)
                            F. Weigend, A. Kohn, C. Hattig, J. Chem. Phys. 116, 3175 (2002)
                    Sc-Zn : J. G. Hill, J. A. Platts, J. Chem. Phys. 128, 044104 (2008)

================================================================================
                                        WARNINGS
                       Please study these warnings very carefully!
================================================================================


WARNING: No MP2 level density has been requested!
         To caclulate MP2 level properties use
         %mp2 Density relaxed end
         or
         %mp2 Density unrelaxed end

WARNING: Post HF methods need fully converged wavefunctions
  ===> : Setting SCFConvForced true
         You can overwrite this default with %scf ConvForced false 


INFO   : the flag for use of the SHARK integral package has been found!

================================================================================
                                       INPUT FILE
================================================================================
NAME = CONFS/Conf173.orca
|  1> ! ri-mp2 cc-pvtz cc-pvtz/c TightSCF NoKeepInts
|  2> 
|  3> %scf
|  4>   MaxCore 4096
|  5> end
|  6> *xyz  0  1
|  7>     C       14.8888935   14.5983354   17.3935074
|  8>     C       15.5660005   15.5527796   16.3964192
|  9>     O       16.9035136   15.0595133   16.1814879
| 10>     C       18.0832411   15.7087865   16.4576690
| 11>     O       19.1217649   15.0794220   16.3772176
| 12>     C       18.0055861   16.8885063   17.3707682
| 13>     C       17.5282637   18.0867244   16.9606628
| 14>     C       16.9959229   18.4319380   15.5854651
| 15>     N       17.5790660   19.1880183   17.8176055
| 16>     C       18.2161078   19.1999737   19.0312265
| 17>     S       18.3012619   20.5699880   19.9530450
| 18>     N       18.7808906   18.0175025   19.4428250
| 19>     C       18.6493074   16.7209362   18.7472487
| 20>     C       17.8834992   15.7063124   19.5913097
| 21>     C       18.2848215   14.3577997   19.6009310
| 22>     C       17.5892203   13.4079340   20.3672096
| 23>     C       16.4805004   13.8082585   21.1319589
| 24>     C       16.0724672   15.1487988   21.1206351
| 25>     O       14.9931915   15.5356338   21.8458533
| 26>     C       16.7643277   16.0921053   20.3538264
| 27>     H       15.4460246   14.5597942   18.3357226
| 28>     H       14.8440712   13.5816631   16.9834699
| 29>     H       13.8657967   14.9269080   17.6123657
| 30>     H       15.0116405   15.5501788   15.4490075
| 31>     H       15.5335324   16.5627341   16.8126668
| 32>     H       17.1260303   17.6130630   14.8674287
| 33>     H       17.5260087   19.2992296   15.1709441
| 34>     H       15.9277150   18.6783652   15.6243990
| 35>     H       17.1891804   20.0704253   17.5251819
| 36>     H       19.2311262   18.0518919   20.3488065
| 37>     H       19.6644834   16.3265365   18.5910344
| 38>     H       19.1350833   14.0424671   18.9993146
| 39>     H       17.9089569   12.3672181   20.3617771
| 40>     H       15.9398276   13.0770566   21.7237731
| 41>     H       14.6849723   14.7627637   22.3428559
| 42>     H       16.4247028   17.1224381   20.3583803
| 43> *
| 44> 
| 45>                          ****END OF INPUT****
================================================================================

                       ****************************
                       * Single Point Calculation *
                       ****************************

---------------------------------
CARTESIAN COORDINATES (ANGSTROEM)
---------------------------------
  C     14.888894   14.598335   17.393507
  C     15.566000   15.552780   16.396419
  O     16.903514   15.059513   16.181488
  C     18.083241   15.708787   16.457669
  O     19.121765   15.079422   16.377218
  C     18.005586   16.888506   17.370768
  C     17.528264   18.086724   16.960663
  C     16.995923   18.431938   15.585465
  N     17.579066   19.188018   17.817605
  C     18.216108   19.199974   19.031226
  S     18.301262   20.569988   19.953045
  N     18.780891   18.017502   19.442825
  C     18.649307   16.720936   18.747249
  C     17.883499   15.706312   19.591310
  C     18.284821   14.357800   19.600931
  C     17.589220   13.407934   20.367210
  C     16.480500   13.808258   21.131959
  C     16.072467   15.148799   21.120635
  O     14.993192   15.535634   21.845853
  C     16.764328   16.092105   20.353826
  H     15.446025   14.559794   18.335723
  H     14.844071   13.581663   16.983470
  H     13.865797   14.926908   17.612366
  H     15.011640   15.550179   15.449007
  H     15.533532   16.562734   16.812667
  H     17.126030   17.613063   14.867429
  H     17.526009   19.299230   15.170944
  H     15.927715   18.678365   15.624399
  H     17.189180   20.070425   17.525182
  H     19.231126   18.051892   20.348806
  H     19.664483   16.326536   18.591034
  H     19.135083   14.042467   18.999315
  H     17.908957   12.367218   20.361777
  H     15.939828   13.077057   21.723773
  H     14.684972   14.762764   22.342856
  H     16.424703   17.122438   20.358380

----------------------------
CARTESIAN COORDINATES (A.U.)
----------------------------
  NO LB      ZA    FRAG     MASS         X           Y           Z
   0 C     6.0000    0    12.011   28.135931   27.586856   32.868965
   1 C     6.0000    0    12.011   29.415478   29.390494   30.984742
   2 O     8.0000    0    15.999   31.943011   28.458356   30.578581
   3 C     6.0000    0    12.011   34.172373   29.685304   31.100487
   4 O     8.0000    0    15.999   36.134899   28.495978   30.948456
   5 C     6.0000    0    12.011   34.025627   31.914652   32.825995
   6 C     6.0000    0    12.011   33.123618   34.178956   32.051008
   7 C     6.0000    0    12.011   32.117640   34.831315   29.452261
   8 N     7.0000    0    14.007   33.219620   36.260100   33.670395
   9 C     6.0000    0    12.011   34.423455   36.282692   35.963806
  10 S    16.0000    0    32.060   34.584373   38.871644   37.705791
  11 N     7.0000    0    14.007   35.490740   34.048145   36.741615
  12 C     6.0000    0    12.011   35.242084   31.597990   35.427166
  13 C     6.0000    0    12.011   33.794916   29.680629   37.022210
  14 C     6.0000    0    12.011   34.553305   27.132309   37.040392
  15 C     6.0000    0    12.011   33.238809   25.337323   38.488448
  16 C     6.0000    0    12.011   31.143632   26.093827   39.933615
  17 C     6.0000    0    12.011   30.372561   28.627081   39.912216
  18 O     8.0000    0    15.999   28.333026   29.358093   41.282680
  19 C     6.0000    0    12.011   31.679988   30.409672   38.463158
  20 H     1.0000    0     1.008   29.188756   27.514024   34.649494
  21 H     1.0000    0     1.008   28.051229   25.665624   32.094107
  22 H     1.0000    0     1.008   26.202558   28.207768   33.282548
  23 H     1.0000    0     1.008   28.367889   29.385579   29.194393
  24 H     1.0000    0     1.008   29.354122   31.299031   31.771336
  25 H     1.0000    0     1.008   32.363507   33.283865   28.095369
  26 H     1.0000    0     1.008   33.119357   36.470259   28.668930
  27 H     1.0000    0     1.008   30.099019   35.296995   29.525835
  28 H     1.0000    0     1.008   32.482843   37.927607   33.117794
  29 H     1.0000    0     1.008   36.341562   34.113132   38.453671
  30 H     1.0000    0     1.008   37.160488   30.852683   35.131964
  31 H     1.0000    0     1.008   36.160067   26.536417   35.903501
  32 H     1.0000    0     1.008   33.843024   23.370655   38.478182
  33 H     1.0000    0     1.008   30.121909   24.712056   41.051982
  34 H     1.0000    0     1.008   27.750576   27.897580   42.221879
  35 H     1.0000    0     1.008   31.038190   32.356719   38.471763

--------------------------------
INTERNAL COORDINATES (ANGSTROEM)
--------------------------------
 C      0   0   0     0.000000000000     0.00000000     0.00000000
 C      1   0   0     1.537407720464     0.00000000     0.00000000
 O      2   1   0     1.441682489006   107.03031578     0.00000000
 C      3   2   1     1.374623098341   127.20363033   241.46346762
 O      4   3   2     1.217006074261   118.34717714   170.50706405
 C      4   3   2     1.493827049754   116.82111313    16.25810421
 C      6   4   3     1.353421489344   122.15994902   284.21826612
 C      7   6   4     1.514505817438   126.93479371     0.88780881
 N      7   6   4     1.396345200495   119.96438862   185.33219746
 C      9   7   6     1.370708254217   124.55239440     7.29303170
 S     10   9   7     1.653462956916   121.65327516   176.63545241
 N     10   9   7     1.373546895889   116.67379485   356.67980560
 C     12  10   9     1.477235491700   125.30120824   354.06972674
 C     13  12  10     1.525897318444   111.58339512   245.12219775
 C     14  13  12     1.406996325494   119.86303104   218.69149443
 C     15  14  13     1.404737972113   120.70168680   180.26392385
 C     16  15  14     1.405119572779   119.66774986     0.02428765
 C     17  16  15     1.401309250905   119.86173831     0.29835503
 O     18  17  16     1.356620356418   120.00743638   179.24718009
 C     18  17  16     1.398747184733   120.36801843   359.88403210
 H      1   2   3     1.095285337159   110.83840656    59.02650474
 H      1   2   3     1.097161043590   110.54130163   299.26000355
 H      1   2   3     1.096624808729   110.75154446   179.21451553
 H      2   1   3     1.097684245609   109.62542966   119.05802390
 H      2   1   3     1.092851469365   108.27730996   237.15740355
 H      8   7   6     1.096841133841   112.49218391   353.88354709
 H      8   7   6     1.097730993565   110.68540753   234.77381201
 H      8   7   6     1.096955026923   111.17765066   114.95669683
 H      9   7   6     1.008049828418   119.88722711   182.49749484
 H     12  10   9     1.012273285572   114.95049543   180.95323947
 H     13  12  10     1.100243764745   107.41505450   127.35561979
 H     15  14  13     1.088265624703   119.78755014   359.48153855
 H     16  15  14     1.088738072242   119.88208235   179.76055921
 H     17  16  15     1.085001079513   119.87197896   179.90071941
 H     19  18  17     0.969194950012   107.44238018     3.82259315
 H     20  18  17     1.084873950955   118.90391614   179.67669516

---------------------------
INTERNAL COORDINATES (A.U.)
---------------------------
 C      0   0   0     0.000000000000     0.00000000     0.00000000
 C      1   0   0     2.905279547853     0.00000000     0.00000000
 O      2   1   0     2.724385076292   107.03031578     0.00000000
 C      3   2   1     2.597661193226   127.20363033   241.46346762
 O      4   3   2     2.299808183672   118.34717714   170.50706405
 C      4   3   2     2.822924015479   116.82111313    16.25810421
 C      6   4   3     2.557595958624   122.15994902   284.21826612
 C      7   6   4     2.862001223189   126.93479371     0.88780881
 N      7   6   4     2.638710017351   119.96438862   185.33219746
 C      9   7   6     2.590263209975   124.55239440     7.29303170
 S     10   9   7     3.124592161155   121.65327516   176.63545241
 N     10   9   7     2.595627465329   116.67379485   356.67980560
 C     12  10   9     2.791570514622   125.30120824   354.06972674
 C     13  12  10     2.883528040344   111.58339512   245.12219775
 C     14  13  12     2.658837726616   119.86303104   218.69149443
 C     15  14  13     2.654570057213   120.70168680   180.26392385
 C     16  15  14     2.655291177965   119.66774986     0.02428765
 C     17  16  15     2.648090713141   119.86173831     0.29835503
 O     18  17  16     2.563640941332   120.00743638   179.24718009
 C     18  17  16     2.643249109739   120.36801843   359.88403210
 H      1   2   3     2.069789325730   110.83840656    59.02650474
 H      1   2   3     2.073333897192   110.54130163   299.26000355
 H      1   2   3     2.072320560162   110.75154446   179.21451553
 H      2   1   3     2.074322605720   109.62542966   119.05802390
 H      2   1   3     2.065189982154   108.27730996   237.15740355
 H      8   7   6     2.072729355378   112.49218391   353.88354709
 H      8   7   6     2.074410946555   110.68540753   234.77381201
 H      8   7   6     2.072944582113   111.17765066   114.95669683
 H      9   7   6     1.904938105056   119.88722711   182.49749484
 H     12  10   9     1.912919282415   114.95049543   180.95323947
 H     13  12  10     2.079159395923   107.41505450   127.35561979
 H     15  14  13     2.056523991650   119.78755014   359.48153855
 H     16  15  14     2.057416788110   119.88208235   179.76055921
 H     17  16  15     2.050354895289   119.87197896   179.90071941
 H     19  18  17     1.831513025903   107.44238018     3.82259315
 H     20  18  17     2.050114657130   118.90391614   179.67669516

---------------------
BASIS SET INFORMATION
---------------------
There are 5 groups of distinct atoms

 Group   1 Type C   : 18s5p2d1f contracted to 4s3p2d1f pattern {8811/311/11/1}
 Group   2 Type O   : 18s5p2d1f contracted to 4s3p2d1f pattern {8811/311/11/1}
 Group   3 Type N   : 18s5p2d1f contracted to 4s3p2d1f pattern {8811/311/11/1}
 Group   4 Type S   : 41s16p2d1f contracted to 5s4p2d1f pattern {13131311/7711/11/1}
 Group   5 Type H   : 5s2p1d contracted to 3s2p1d pattern {311/11/1}

Atom   0C    basis set group =>   1
Atom   1C    basis set group =>   1
Atom   2O    basis set group =>   2
Atom   3C    basis set group =>   1
Atom   4O    basis set group =>   2
Atom   5C    basis set group =>   1
Atom   6C    basis set group =>   1
Atom   7C    basis set group =>   1
Atom   8N    basis set group =>   3
Atom   9C    basis set group =>   1
Atom  10S    basis set group =>   4
Atom  11N    basis set group =>   3
Atom  12C    basis set group =>   1
Atom  13C    basis set group =>   1
Atom  14C    basis set group =>   1
Atom  15C    basis set group =>   1
Atom  16C    basis set group =>   1
Atom  17C    basis set group =>   1
Atom  18O    basis set group =>   2
Atom  19C    basis set group =>   1
Atom  20H    basis set group =>   5
Atom  21H    basis set group =>   5
Atom  22H    basis set group =>   5
Atom  23H    basis set group =>   5
Atom  24H    basis set group =>   5
Atom  25H    basis set group =>   5
Atom  26H    basis set group =>   5
Atom  27H    basis set group =>   5
Atom  28H    basis set group =>   5
Atom  29H    basis set group =>   5
Atom  30H    basis set group =>   5
Atom  31H    basis set group =>   5
Atom  32H    basis set group =>   5
Atom  33H    basis set group =>   5
Atom  34H    basis set group =>   5
Atom  35H    basis set group =>   5
---------------------------------
AUXILIARY/C BASIS SET INFORMATION
---------------------------------
There are 5 groups of distinct atoms

 Group   1 Type C   : 8s6p5d3f1g contracted to 8s6p5d3f1g pattern {11111111/111111/11111/111/1}
 Group   2 Type O   : 8s6p5d3f1g contracted to 8s6p5d3f1g pattern {11111111/111111/11111/111/1}
 Group   3 Type N   : 8s6p5d3f1g contracted to 8s6p5d3f1g pattern {11111111/111111/11111/111/1}
 Group   4 Type S   : 10s8p7d5f2g contracted to 10s8p7d5f2g pattern {1111111111/11111111/1111111/11111/11}
 Group   5 Type H   : 4s3p2d1f contracted to 4s3p2d1f pattern {1111/111/11/1}

Atom   0C    basis set group =>   1
Atom   1C    basis set group =>   1
Atom   2O    basis set group =>   2
Atom   3C    basis set group =>   1
Atom   4O    basis set group =>   2
Atom   5C    basis set group =>   1
Atom   6C    basis set group =>   1
Atom   7C    basis set group =>   1
Atom   8N    basis set group =>   3
Atom   9C    basis set group =>   1
Atom  10S    basis set group =>   4
Atom  11N    basis set group =>   3
Atom  12C    basis set group =>   1
Atom  13C    basis set group =>   1
Atom  14C    basis set group =>   1
Atom  15C    basis set group =>   1
Atom  16C    basis set group =>   1
Atom  17C    basis set group =>   1
Atom  18O    basis set group =>   2
Atom  19C    basis set group =>   1
Atom  20H    basis set group =>   5
Atom  21H    basis set group =>   5
Atom  22H    basis set group =>   5
Atom  23H    basis set group =>   5
Atom  24H    basis set group =>   5
Atom  25H    basis set group =>   5
Atom  26H    basis set group =>   5
Atom  27H    basis set group =>   5
Atom  28H    basis set group =>   5
Atom  29H    basis set group =>   5
Atom  30H    basis set group =>   5
Atom  31H    basis set group =>   5
Atom  32H    basis set group =>   5
Atom  33H    basis set group =>   5
Atom  34H    basis set group =>   5
Atom  35H    basis set group =>   5
------------------------------------------------------------------------------
                           ORCA GTO INTEGRAL CALCULATION
------------------------------------------------------------------------------
------------------------------------------------------------------------------
                   ___                                                        
                  /   \      - P O W E R E D   B Y -                         
                 /     \                                                     
                 |  |  |   _    _      __       _____    __    __             
                 |  |  |  | |  | |    /  \     |  _  \  |  |  /  |          
                  \  \/   | |  | |   /    \    | | | |  |  | /  /          
                 / \  \   | |__| |  /  /\  \   | |_| |  |  |/  /          
                |  |  |   |  __  | /  /__\  \  |    /   |      \           
                |  |  |   | |  | | |   __   |  |    \   |  |\   \          
                \     /   | |  | | |  |  |  |  | |\  \  |  | \   \       
                 \___/    |_|  |_| |__|  |__|  |_| \__\ |__|  \__/        
                                                                              
                      - O R C A' S   B I G   F R I E N D -                    
                                      &                                       
                       - I N T E G R A L  F E E D E R -                       
                                                                              
 v1 FN, 2020, v2 2021                                                         
------------------------------------------------------------------------------


Reading SHARK input file CONFS/Conf173.orca.SHARKINP.tmp ... ok
----------------------
SHARK INTEGRAL PACKAGE
----------------------

Number of atoms                             ...     36
Number of basis functions                   ...    828
Number of shells                            ...    298
Maximum angular momentum                    ...      3
Integral batch strategy                     ... SHARK/LIBINT Hybrid
RI-J (if used) integral strategy            ... SPLIT-RIJ (Revised 2003 algorithm where possible)
Printlevel                                  ...      1
Contraction scheme used                     ... SEGMENTED contraction
Coulomb Range Separation                    ... NOT USED
Exchange Range Separation                   ... NOT USED
Finite Nucleus Model                        ... NOT USED
Auxiliary Coulomb fitting basis             ... NOT available
Auxiliary J/K fitting basis                 ... NOT available
Auxiliary Correlation fitting basis         ... AVAILABLE
   # of basis functions in Aux-C            ...   2141
   # of shells in Aux-C                     ...    629
   Maximum angular momentum in Aux-C        ...      4
Auxiliary 'external' fitting basis          ... NOT available
Integral threshold                          ...     2.500000e-11
Primitive cut-off                           ...     2.500000e-12
Primitive pair pre-selection threshold      ...     2.500000e-12

Calculating pre-screening integrals         ... done (  0.6 sec) Dimension = 298
Organizing shell pair data                  ... done (  1.1 sec)
Shell pair information
Total number of shell pairs                 ...     44551
Shell pairs after pre-screening             ...     34710
Total number of primitive shell pairs       ...    234348
Primitive shell pairs kept                  ...     99133
          la=0 lb=0:   6903 shell pairs
          la=1 lb=0:   9612 shell pairs
          la=1 lb=1:   3406 shell pairs
          la=2 lb=0:   5553 shell pairs
          la=2 lb=1:   3813 shell pairs
          la=2 lb=2:   1094 shell pairs
          la=3 lb=0:   2005 shell pairs
          la=3 lb=1:   1378 shell pairs
          la=3 lb=2:    793 shell pairs
          la=3 lb=3:    153 shell pairs

Calculating one electron integrals          ... done (  0.3 sec)
Calculating RI/C V-Matrix + Cholesky decomp.... done (  1.2 sec)
Calculating Nuclear repulsion               ... done (  0.0 sec) ENN=   1731.531586245082 Eh

SHARK setup successfully completed in   3.8 seconds

Maximum memory used throughout the entire GTOINT-calculation: 517.1 MB
-------------------------------------------------------------------------------
                                 ORCA SCF
-------------------------------------------------------------------------------

------------
SCF SETTINGS
------------
Hamiltonian:
 Ab initio Hamiltonian  Method          .... Hartree-Fock(GTOs)


General Settings:
 Integral files         IntName         .... CONFS/Conf173.orca
 Hartree-Fock type      HFTyp           .... RHF
 Total Charge           Charge          ....    0
 Multiplicity           Mult            ....    1
 Number of Electrons    NEL             ....  154
 Basis Dimension        Dim             ....  828
 Nuclear Repulsion      ENuc            ....   1731.5315862451 Eh

Convergence Acceleration:
 DIIS                   CNVDIIS         .... on
   Start iteration      DIISMaxIt       ....    12
   Startup error        DIISStart       ....  0.200000
   # of expansion vecs  DIISMaxEq       ....     5
   Bias factor          DIISBfac        ....   1.050
   Max. coefficient     DIISMaxC        ....  10.000
 Trust-Rad. Augm. Hess. CNVTRAH         .... auto
   Auto Start mean grad. ratio tolernc. ....  1.125000
   Auto Start start iteration           ....    20
   Auto Start num. interpolation iter.  ....    10
   Max. Number of Micro iterations      ....    16
   Max. Number of Macro iterations      .... Maxiter - #DIIS iter
   Number of Davidson start vectors     ....     2
   Converg. threshold I  (grad. norm)   ....   1.000e-05
   Converg. threshold II (energy diff.) ....   1.000e-08
   Grad. Scal. Fac. for Micro threshold ....   0.100
   Minimum threshold for Micro iter.    ....   0.010
   NR start threshold (gradient norm)   ....   0.001
   Initial trust radius                 ....   0.400
   Minimum AH scaling param. (alpha)    ....   1.000
   Maximum AH scaling param. (alpha)    .... 1000.000
   Orbital update algorithm             .... Taylor
   White noise on init. David. guess    .... on
   Maximum white noise                  ....   0.010
   Quad. conv. algorithm                .... NR
 SOSCF                  CNVSOSCF        .... on
   Start iteration      SOSCFMaxIt      ....   150
   Startup grad/error   SOSCFStart      ....  0.003300
 Level Shifting         CNVShift        .... on
   Level shift para.    LevelShift      ....    0.2500
   Turn off err/grad.   ShiftErr        ....    0.0010
 Zerner damping         CNVZerner       .... off
 Static damping         CNVDamp         .... on
   Fraction old density DampFac         ....    0.7000
   Max. Damping (<1)    DampMax         ....    0.9800
   Min. Damping (>=0)   DampMin         ....    0.0000
   Turn off err/grad.   DampErr         ....    0.1000
 Fernandez-Rico         CNVRico         .... off

SCF Procedure:
 Maximum # iterations   MaxIter         ....   125
 SCF integral mode      SCFMode         .... Direct
   Integral package                     .... SHARK and LIBINT hybrid scheme
 Reset frequency        DirectResetFreq ....    20
 Integral Threshold     Thresh          ....  2.500e-11 Eh
 Primitive CutOff       TCut            ....  2.500e-12 Eh

Convergence Tolerance:
 Convergence Check Mode ConvCheckMode   .... Total+1el-Energy
 Convergence forced     ConvForced      .... 1
 Energy Change          TolE            ....  1.000e-08 Eh
 1-El. energy change                    ....  1.000e-05 Eh
 Orbital Gradient       TolG            ....  1.000e-05
 Orbital Rotation angle TolX            ....  1.000e-05
 DIIS Error             TolErr          ....  5.000e-07


Diagonalization of the overlap matrix:
Smallest eigenvalue                        ... 3.417e-05
Time for diagonalization                   ...    0.106 sec
Threshold for overlap eigenvalues          ... 1.000e-08
Number of eigenvalues below threshold      ... 0
Time for construction of square roots      ...    0.102 sec
Total time needed                          ...    0.210 sec

Time for model grid setup =    1.347 sec

------------------------------
INITIAL GUESS: MODEL POTENTIAL
------------------------------
Loading Hartree-Fock densities                     ... done
Calculating cut-offs                               ... done
Initializing the effective Hamiltonian             ... done
Setting up the integral package (SHARK)            ... done
Starting the Coulomb interaction                   ... done (   4.6 sec)
Reading the grid                                   ... done
Mapping shells                                     ... done
Starting the XC term evaluation                    ... done (   1.6 sec)
Transforming the Hamiltonian                       ... done (   0.1 sec)
Diagonalizing the Hamiltonian                      ... done (   0.1 sec)
Back transforming the eigenvectors                 ... done (   0.0 sec)
Now organizing SCF variables                       ... done
                      ------------------
                      INITIAL GUESS DONE (   7.7 sec)
                      ------------------
--------------
SCF ITERATIONS
--------------
ITER       Energy         Delta-E        Max-DP      RMS-DP      [F,P]     Damp
               ***  Starting incremental Fock matrix formation  ***
  0  -1269.9938390057   0.000000000000 0.04929071  0.00045189  0.3177901 0.7000
  1  -1270.2611018675  -0.267262861736 0.03608239  0.00036697  0.1879388 0.7000
                               ***Turning on DIIS***
  2  -1270.4274455351  -0.166343667577 0.02585312  0.00024328  0.1098402 0.7000
  3  -1272.5440327975  -2.116587262411 0.06323586  0.00051798  0.0830224 0.0000
  4  -1270.7402678130   1.803764984438 0.01296062  0.00010477  0.0067109 0.0000
  5  -1270.7949399502  -0.054672137173 0.00519594  0.00005400  0.0038280 0.0000
                      *** Initiating the SOSCF procedure ***
                           *** Shutting down DIIS ***
                      *** Re-Reading the Fockian *** 
                      *** Removing any level shift *** 
ITER      Energy       Delta-E        Grad      Rot      Max-DP    RMS-DP
  6  -1270.77422338   0.0207165664  0.001350  0.001350  0.002493  0.000027
               *** Restarting incremental Fock matrix formation ***
  7  -1270.78895781  -0.0147344299  0.000751  0.001856  0.001417  0.000017
  8  -1270.78900300  -0.0000451871  0.000377  0.002149  0.001487  0.000019
  9  -1270.78902062  -0.0000176189  0.000136  0.000249  0.000405  0.000005
 10  -1270.78902287  -0.0000022480  0.000029  0.000077  0.000126  0.000001
 11  -1270.78902306  -0.0000001968  0.000015  0.000076  0.000069  0.000001
 12  -1270.78902312  -0.0000000545  0.000008  0.000029  0.000028  0.000000
 13  -1270.78902313  -0.0000000079  0.000003  0.000009  0.000006  0.000000
                  ***Gradient check signals convergence***
              ***Rediagonalizing the Fockian in SOSCF/NRSCF***

               *****************************************************
               *                     SUCCESS                       *
               *           SCF CONVERGED AFTER  14 CYCLES          *
               *****************************************************


----------------
TOTAL SCF ENERGY
----------------

Total Energy       :        -1270.78902312 Eh          -34579.92733 eV

Components:
Nuclear Repulsion  :         1731.53158625 Eh           47117.36986 eV
Electronic Energy  :        -3002.32060936 Eh          -81697.29719 eV
One Electron Energy:        -5183.72466099 Eh         -141056.31919 eV
Two Electron Energy:         2181.40405163 Eh           59359.02200 eV

Virial components:
Potential Energy   :        -2539.77527924 Eh          -69110.79887 eV
Kinetic Energy     :         1268.98625612 Eh           34530.87154 eV
Virial Ratio       :            2.00142064


---------------
SCF CONVERGENCE
---------------

  Last Energy change         ...    9.4669e-09  Tolerance :   1.0000e-08
  Last MAX-Density change    ...    3.5470e-06  Tolerance :   1.0000e-07
  Last RMS-Density change    ...    3.6328e-08  Tolerance :   5.0000e-09
  Last Orbital Gradient      ...    1.3949e-06  Tolerance :   1.0000e-05
  Last Orbital Rotation      ...    3.3611e-06  Tolerance :   1.0000e-05

             **** THE GBW FILE WAS UPDATED (CONFS/Conf173.orca.gbw) ****
             **** DENSITY CONFS/Conf173.orca.scfp WAS UPDATED ****
             **** ENERGY FILE WAS UPDATED (CONFS/Conf173.orca.en.tmp) ****
             **** THE GBW FILE WAS UPDATED (CONFS/Conf173.orca.gbw) ****
             **** DENSITY CONFS/Conf173.orca.scfp WAS UPDATED ****
----------------
ORBITAL ENERGIES
----------------

  NO   OCC          E(Eh)            E(eV) 
   0   2.0000     -91.890245     -2500.4607 
   1   2.0000     -20.602524      -560.6232 
   2   2.0000     -20.599129      -560.5308 
   3   2.0000     -20.549754      -559.1872 
   4   2.0000     -15.627244      -425.2389 
   5   2.0000     -15.611777      -424.8181 
   6   2.0000     -11.399320      -310.1913 
   7   2.0000     -11.386964      -309.8550 
   8   2.0000     -11.329750      -308.2982 
   9   2.0000     -11.316193      -307.9293 
  10   2.0000     -11.315396      -307.9076 
  11   2.0000     -11.304500      -307.6111 
  12   2.0000     -11.271530      -306.7139 
  13   2.0000     -11.266727      -306.5832 
  14   2.0000     -11.263687      -306.5005 
  15   2.0000     -11.256580      -306.3071 
  16   2.0000     -11.245465      -306.0047 
  17   2.0000     -11.241589      -305.8992 
  18   2.0000     -11.238558      -305.8167 
  19   2.0000     -11.225907      -305.4725 
  20   2.0000      -8.895355      -242.0549 
  21   2.0000      -6.576944      -178.9677 
  22   2.0000      -6.574917      -178.9126 
  23   2.0000      -6.574342      -178.8969 
  24   2.0000      -1.448575       -39.4177 
  25   2.0000      -1.418932       -38.6111 
  26   2.0000      -1.359168       -36.9849 
  27   2.0000      -1.340770       -36.4842 
  28   2.0000      -1.240331       -33.7511 
  29   2.0000      -1.160929       -31.5905 
  30   2.0000      -1.126252       -30.6469 
  31   2.0000      -1.049225       -28.5509 
  32   2.0000      -1.038459       -28.2579 
  33   2.0000      -1.018721       -27.7208 
  34   2.0000      -1.005765       -27.3683 
  35   2.0000      -0.989892       -26.9363 
  36   2.0000      -0.928272       -25.2596 
  37   2.0000      -0.885230       -24.0883 
  38   2.0000      -0.855255       -23.2727 
  39   2.0000      -0.841864       -22.9083 
  40   2.0000      -0.836385       -22.7592 
  41   2.0000      -0.834841       -22.7172 
  42   2.0000      -0.756065       -20.5736 
  43   2.0000      -0.740452       -20.1487 
  44   2.0000      -0.731183       -19.8965 
  45   2.0000      -0.697252       -18.9732 
  46   2.0000      -0.689217       -18.7545 
  47   2.0000      -0.682445       -18.5703 
  48   2.0000      -0.676520       -18.4090 
  49   2.0000      -0.662471       -18.0267 
  50   2.0000      -0.654520       -17.8104 
  51   2.0000      -0.642466       -17.4824 
  52   2.0000      -0.639205       -17.3937 
  53   2.0000      -0.615628       -16.7521 
  54   2.0000      -0.610217       -16.6048 
  55   2.0000      -0.607385       -16.5278 
  56   2.0000      -0.602367       -16.3912 
  57   2.0000      -0.587442       -15.9851 
  58   2.0000      -0.578156       -15.7324 
  59   2.0000      -0.568410       -15.4672 
  60   2.0000      -0.562266       -15.3000 
  61   2.0000      -0.556496       -15.1430 
  62   2.0000      -0.542989       -14.7755 
  63   2.0000      -0.532719       -14.4960 
  64   2.0000      -0.519086       -14.1251 
  65   2.0000      -0.513460       -13.9720 
  66   2.0000      -0.503808       -13.7093 
  67   2.0000      -0.501919       -13.6579 
  68   2.0000      -0.485696       -13.2165 
  69   2.0000      -0.470358       -12.7991 
  70   2.0000      -0.452625       -12.3166 
  71   2.0000      -0.449359       -12.2277 
  72   2.0000      -0.358059        -9.7433 
  73   2.0000      -0.351709        -9.5705 
  74   2.0000      -0.329896        -8.9769 
  75   2.0000      -0.324341        -8.8258 
  76   2.0000      -0.318814        -8.6754 
  77   0.0000       0.086650         2.3579 
  78   0.0000       0.105520         2.8713 
  79   0.0000       0.109802         2.9879 
  80   0.0000       0.128839         3.5059 
  81   0.0000       0.131161         3.5691 
  82   0.0000       0.145048         3.9470 
  83   0.0000       0.147307         4.0084 
  84   0.0000       0.149727         4.0743 
  85   0.0000       0.158343         4.3087 
  86   0.0000       0.167846         4.5673 
  87   0.0000       0.175702         4.7811 
  88   0.0000       0.183136         4.9834 
  89   0.0000       0.190058         5.1717 
  90   0.0000       0.198882         5.4119 
  91   0.0000       0.203443         5.5360 
  92   0.0000       0.209758         5.7078 
  93   0.0000       0.216571         5.8932 
  94   0.0000       0.222489         6.0542 
  95   0.0000       0.232045         6.3143 
  96   0.0000       0.243468         6.6251 
  97   0.0000       0.248762         6.7692 
  98   0.0000       0.258563         7.0359 
  99   0.0000       0.279071         7.5939 
 100   0.0000       0.291841         7.9414 
 101   0.0000       0.294176         8.0049 
 102   0.0000       0.306635         8.3440 
 103   0.0000       0.310087         8.4379 
 104   0.0000       0.320139         8.7114 
 105   0.0000       0.332723         9.0539 
 106   0.0000       0.337868         9.1938 
 107   0.0000       0.345140         9.3917 
 108   0.0000       0.349661         9.5148 
 109   0.0000       0.353757         9.6262 
 110   0.0000       0.367756        10.0071 
 111   0.0000       0.374625        10.1941 
 112   0.0000       0.384515        10.4632 
 113   0.0000       0.388076        10.5601 
 114   0.0000       0.398594        10.8463 
 115   0.0000       0.403591        10.9823 
 116   0.0000       0.408615        11.1190 
 117   0.0000       0.417881        11.3711 
 118   0.0000       0.429228        11.6799 
 119   0.0000       0.436879        11.8881 
 120   0.0000       0.440147        11.9770 
 121   0.0000       0.447914        12.1884 
 122   0.0000       0.452722        12.3192 
 123   0.0000       0.463471        12.6117 
 124   0.0000       0.469450        12.7744 
 125   0.0000       0.472972        12.8702 
 126   0.0000       0.477294        12.9878 
 127   0.0000       0.487307        13.2603 
 128   0.0000       0.497915        13.5489 
 129   0.0000       0.502507        13.6739 
 130   0.0000       0.506777        13.7901 
 131   0.0000       0.514085        13.9890 
 132   0.0000       0.515910        14.0386 
 133   0.0000       0.520883        14.1740 
 134   0.0000       0.527528        14.3548 
 135   0.0000       0.532679        14.4949 
 136   0.0000       0.535882        14.5821 
 137   0.0000       0.542681        14.7671 
 138   0.0000       0.548488        14.9251 
 139   0.0000       0.555798        15.1240 
 140   0.0000       0.556548        15.1444 
 141   0.0000       0.559612        15.2278 
 142   0.0000       0.565094        15.3770 
 143   0.0000       0.567127        15.4323 
 144   0.0000       0.569748        15.5036 
 145   0.0000       0.578160        15.7325 
 146   0.0000       0.582897        15.8614 
 147   0.0000       0.588016        16.0007 
 148   0.0000       0.593772        16.1574 
 149   0.0000       0.598771        16.2934 
 150   0.0000       0.601628        16.3711 
 151   0.0000       0.606674        16.5084 
 152   0.0000       0.615768        16.7559 
 153   0.0000       0.616905        16.7868 
 154   0.0000       0.621775        16.9194 
 155   0.0000       0.629206        17.1216 
 156   0.0000       0.630422        17.1547 
 157   0.0000       0.639144        17.3920 
 158   0.0000       0.642043        17.4709 
 159   0.0000       0.646721        17.5982 
 160   0.0000       0.648432        17.6447 
 161   0.0000       0.651229        17.7208 
 162   0.0000       0.656500        17.8643 
 163   0.0000       0.658935        17.9305 
 164   0.0000       0.664310        18.0768 
 165   0.0000       0.678642        18.4668 
 166   0.0000       0.689559        18.7638 
 167   0.0000       0.694839        18.9075 
 168   0.0000       0.695937        18.9374 
 169   0.0000       0.698051        18.9949 
 170   0.0000       0.704027        19.1575 
 171   0.0000       0.709993        19.3199 
 172   0.0000       0.718418        19.5491 
 173   0.0000       0.724840        19.7239 
 174   0.0000       0.731672        19.9098 
 175   0.0000       0.737887        20.0789 
 176   0.0000       0.749138        20.3851 
 177   0.0000       0.752680        20.4815 
 178   0.0000       0.756066        20.5736 
 179   0.0000       0.762494        20.7485 
 180   0.0000       0.764222        20.7955 
 181   0.0000       0.775737        21.1089 
 182   0.0000       0.786579        21.4039 
 183   0.0000       0.792192        21.5566 
 184   0.0000       0.801771        21.8173 
 185   0.0000       0.812133        22.0992 
 186   0.0000       0.824232        22.4285 
 187   0.0000       0.832575        22.6555 
 188   0.0000       0.833332        22.6761 
 189   0.0000       0.841672        22.9030 
 190   0.0000       0.847898        23.0725 
 191   0.0000       0.855826        23.2882 
 192   0.0000       0.863032        23.4843 
 193   0.0000       0.866060        23.5667 
 194   0.0000       0.873551        23.7705 
 195   0.0000       0.883091        24.0301 
 196   0.0000       0.892351        24.2821 
 197   0.0000       0.895800        24.3759 
 198   0.0000       0.904614        24.6158 
 199   0.0000       0.913282        24.8517 
 200   0.0000       0.922580        25.1047 
 201   0.0000       0.929279        25.2870 
 202   0.0000       0.936678        25.4883 
 203   0.0000       0.941394        25.6166 
 204   0.0000       0.946269        25.7493 
 205   0.0000       0.958529        26.0829 
 206   0.0000       0.965603        26.2754 
 207   0.0000       0.971673        26.4406 
 208   0.0000       0.974656        26.5217 
 209   0.0000       0.977238        26.5920 
 210   0.0000       0.979508        26.6538 
 211   0.0000       0.987362        26.8675 
 212   0.0000       0.997825        27.1522 
 213   0.0000       0.999184        27.1892 
 214   0.0000       1.013489        27.5784 
 215   0.0000       1.018199        27.7066 
 216   0.0000       1.026234        27.9253 
 217   0.0000       1.031412        28.0661 
 218   0.0000       1.046369        28.4731 
 219   0.0000       1.048401        28.5284 
 220   0.0000       1.056569        28.7507 
 221   0.0000       1.064673        28.9712 
 222   0.0000       1.075441        29.2642 
 223   0.0000       1.076501        29.2931 
 224   0.0000       1.081086        29.4178 
 225   0.0000       1.091328        29.6965 
 226   0.0000       1.093690        29.7608 
 227   0.0000       1.103607        30.0307 
 228   0.0000       1.109029        30.1782 
 229   0.0000       1.115368        30.3507 
 230   0.0000       1.128673        30.7128 
 231   0.0000       1.131250        30.7829 
 232   0.0000       1.139709        31.0131 
 233   0.0000       1.145484        31.1702 
 234   0.0000       1.154384        31.4124 
 235   0.0000       1.167127        31.7591 
 236   0.0000       1.171798        31.8863 
 237   0.0000       1.182648        32.1815 
 238   0.0000       1.187946        32.3257 
 239   0.0000       1.191406        32.4198 
 240   0.0000       1.201245        32.6876 
 241   0.0000       1.209436        32.9104 
 242   0.0000       1.211614        32.9697 
 243   0.0000       1.216974        33.1155 
 244   0.0000       1.221293        33.2331 
 245   0.0000       1.228388        33.4261 
 246   0.0000       1.234897        33.6033 
 247   0.0000       1.238938        33.7132 
 248   0.0000       1.251667        34.0596 
 249   0.0000       1.256739        34.1976 
 250   0.0000       1.273692        34.6589 
 251   0.0000       1.280754        34.8511 
 252   0.0000       1.284091        34.9419 
 253   0.0000       1.285356        34.9763 
 254   0.0000       1.292451        35.1694 
 255   0.0000       1.295248        35.2455 
 256   0.0000       1.318426        35.8762 
 257   0.0000       1.322103        35.9763 
 258   0.0000       1.333343        36.2821 
 259   0.0000       1.337783        36.4029 
 260   0.0000       1.344443        36.5842 
 261   0.0000       1.349584        36.7241 
 262   0.0000       1.352382        36.8002 
 263   0.0000       1.373275        37.3687 
 264   0.0000       1.378041        37.4984 
 265   0.0000       1.387383        37.7526 
 266   0.0000       1.396207        37.9927 
 267   0.0000       1.402999        38.1775 
 268   0.0000       1.408370        38.3237 
 269   0.0000       1.421940        38.6930 
 270   0.0000       1.427486        38.8439 
 271   0.0000       1.437043        39.1039 
 272   0.0000       1.438734        39.1499 
 273   0.0000       1.453279        39.5457 
 274   0.0000       1.465690        39.8834 
 275   0.0000       1.470572        40.0163 
 276   0.0000       1.472804        40.0770 
 277   0.0000       1.480731        40.2927 
 278   0.0000       1.486695        40.4550 
 279   0.0000       1.495993        40.7080 
 280   0.0000       1.504972        40.9524 
 281   0.0000       1.516253        41.2593 
 282   0.0000       1.526368        41.5346 
 283   0.0000       1.531121        41.6639 
 284   0.0000       1.533199        41.7205 
 285   0.0000       1.537913        41.8487 
 286   0.0000       1.542053        41.9614 
 287   0.0000       1.547673        42.1143 
 288   0.0000       1.552729        42.2519 
 289   0.0000       1.558434        42.4072 
 290   0.0000       1.567063        42.6420 
 291   0.0000       1.573669        42.8217 
 292   0.0000       1.583733        43.0956 
 293   0.0000       1.588026        43.2124 
 294   0.0000       1.591846        43.3163 
 295   0.0000       1.600385        43.5487 
 296   0.0000       1.615094        43.9489 
 297   0.0000       1.620804        44.1043 
 298   0.0000       1.624470        44.2041 
 299   0.0000       1.632787        44.4304 
 300   0.0000       1.633654        44.4540 
 301   0.0000       1.637846        44.5681 
 302   0.0000       1.652248        44.9600 
 303   0.0000       1.660350        45.1804 
 304   0.0000       1.674118        45.5551 
 305   0.0000       1.681698        45.7613 
 306   0.0000       1.686136        45.8821 
 307   0.0000       1.702201        46.3192 
 308   0.0000       1.710295        46.5395 
 309   0.0000       1.714054        46.6418 
 310   0.0000       1.717406        46.7330 
 311   0.0000       1.721428        46.8424 
 312   0.0000       1.746443        47.5231 
 313   0.0000       1.748728        47.5853 
 314   0.0000       1.768469        48.1225 
 315   0.0000       1.773566        48.2612 
 316   0.0000       1.783199        48.5233 
 317   0.0000       1.791394        48.7463 
 318   0.0000       1.810305        49.2609 
 319   0.0000       1.821357        49.5616 
 320   0.0000       1.825059        49.6624 
 321   0.0000       1.828706        49.7616 
 322   0.0000       1.843573        50.1662 
 323   0.0000       1.855690        50.4959 
 324   0.0000       1.874145        50.9981 
 325   0.0000       1.876555        51.0636 
 326   0.0000       1.890154        51.4337 
 327   0.0000       1.899289        51.6823 
 328   0.0000       1.903087        51.7856 
 329   0.0000       1.914333        52.0917 
 330   0.0000       1.925315        52.3905 
 331   0.0000       1.935377        52.6643 
 332   0.0000       1.938219        52.7416 
 333   0.0000       1.963112        53.4190 
 334   0.0000       1.985207        54.0202 
 335   0.0000       1.987578        54.0848 
 336   0.0000       2.000858        54.4461 
 337   0.0000       2.006075        54.5881 
 338   0.0000       2.016500        54.8717 
 339   0.0000       2.020633        54.9842 
 340   0.0000       2.032299        55.3017 
 341   0.0000       2.041840        55.5613 
 342   0.0000       2.058950        56.0269 
 343   0.0000       2.076232        56.4971 
 344   0.0000       2.092440        56.9382 
 345   0.0000       2.106693        57.3260 
 346   0.0000       2.113562        57.5129 
 347   0.0000       2.141089        58.2620 
 348   0.0000       2.144996        58.3683 
 349   0.0000       2.159005        58.7495 
 350   0.0000       2.184822        59.4520 
 351   0.0000       2.195304        59.7373 
 352   0.0000       2.207718        60.0751 
 353   0.0000       2.225417        60.5567 
 354   0.0000       2.231939        60.7341 
 355   0.0000       2.263964        61.6056 
 356   0.0000       2.289172        62.2915 
 357   0.0000       2.296703        62.4965 
 358   0.0000       2.304684        62.7136 
 359   0.0000       2.309169        62.8357 
 360   0.0000       2.316825        63.0440 
 361   0.0000       2.337789        63.6145 
 362   0.0000       2.348543        63.9071 
 363   0.0000       2.366371        64.3922 
 364   0.0000       2.368305        64.4449 
 365   0.0000       2.373919        64.5976 
 366   0.0000       2.389747        65.0283 
 367   0.0000       2.397593        65.2418 
 368   0.0000       2.411378        65.6169 
 369   0.0000       2.433339        66.2145 
 370   0.0000       2.439772        66.3896 
 371   0.0000       2.454729        66.7966 
 372   0.0000       2.463175        67.0264 
 373   0.0000       2.474072        67.3229 
 374   0.0000       2.494459        67.8777 
 375   0.0000       2.507300        68.2271 
 376   0.0000       2.513112        68.3852 
 377   0.0000       2.536701        69.0271 
 378   0.0000       2.545986        69.2798 
 379   0.0000       2.566526        69.8387 
 380   0.0000       2.578131        70.1545 
 381   0.0000       2.586656        70.3865 
 382   0.0000       2.593952        70.5850 
 383   0.0000       2.608111        70.9703 
 384   0.0000       2.629242        71.5453 
 385   0.0000       2.631764        71.6139 
 386   0.0000       2.640793        71.8596 
 387   0.0000       2.647338        72.0377 
 388   0.0000       2.658561        72.3431 
 389   0.0000       2.668699        72.6190 
 390   0.0000       2.689322        73.1802 
 391   0.0000       2.699070        73.4454 
 392   0.0000       2.715034        73.8798 
 393   0.0000       2.730018        74.2876 
 394   0.0000       2.735711        74.4425 
 395   0.0000       2.741463        74.5990 
 396   0.0000       2.750287        74.8391 
 397   0.0000       2.759647        75.0938 
 398   0.0000       2.763190        75.1902 
 399   0.0000       2.777519        75.5801 
 400   0.0000       2.781071        75.6768 
 401   0.0000       2.792855        75.9975 
 402   0.0000       2.798619        76.1543 
 403   0.0000       2.808968        76.4359 
 404   0.0000       2.821913        76.7881 
 405   0.0000       2.833708        77.1091 
 406   0.0000       2.843508        77.3758 
 407   0.0000       2.850139        77.5562 
 408   0.0000       2.853093        77.6366 
 409   0.0000       2.857078        77.7450 
 410   0.0000       2.875577        78.2484 
 411   0.0000       2.891711        78.6875 
 412   0.0000       2.901545        78.9551 
 413   0.0000       2.917504        79.3893 
 414   0.0000       2.919784        79.4514 
 415   0.0000       2.927334        79.6568 
 416   0.0000       2.940914        80.0263 
 417   0.0000       2.948918        80.2441 
 418   0.0000       2.951922        80.3259 
 419   0.0000       2.957594        80.4802 
 420   0.0000       2.963044        80.6285 
 421   0.0000       2.971695        80.8639 
 422   0.0000       2.991148        81.3933 
 423   0.0000       2.998138        81.5835 
 424   0.0000       3.004640        81.7604 
 425   0.0000       3.011111        81.9365 
 426   0.0000       3.024366        82.2972 
 427   0.0000       3.027482        82.3820 
 428   0.0000       3.032844        82.5279 
 429   0.0000       3.034803        82.5812 
 430   0.0000       3.043718        82.8238 
 431   0.0000       3.057685        83.2038 
 432   0.0000       3.066003        83.4302 
 433   0.0000       3.075233        83.6813 
 434   0.0000       3.078409        83.7678 
 435   0.0000       3.088330        84.0377 
 436   0.0000       3.089310        84.0644 
 437   0.0000       3.101631        84.3997 
 438   0.0000       3.108986        84.5998 
 439   0.0000       3.115941        84.7891 
 440   0.0000       3.128853        85.1404 
 441   0.0000       3.129799        85.1662 
 442   0.0000       3.136160        85.3393 
 443   0.0000       3.139789        85.4380 
 444   0.0000       3.149094        85.6912 
 445   0.0000       3.155750        85.8723 
 446   0.0000       3.163952        86.0955 
 447   0.0000       3.167260        86.1855 
 448   0.0000       3.177290        86.4585 
 449   0.0000       3.192201        86.8642 
 450   0.0000       3.199659        87.0671 
 451   0.0000       3.213286        87.4380 
 452   0.0000       3.217275        87.5465 
 453   0.0000       3.223683        87.7209 
 454   0.0000       3.232121        87.9505 
 455   0.0000       3.237175        88.0880 
 456   0.0000       3.241488        88.2054 
 457   0.0000       3.251320        88.4729 
 458   0.0000       3.255421        88.5845 
 459   0.0000       3.267125        88.9030 
 460   0.0000       3.276208        89.1501 
 461   0.0000       3.279910        89.2509 
 462   0.0000       3.288604        89.4875 
 463   0.0000       3.292044        89.5811 
 464   0.0000       3.297772        89.7369 
 465   0.0000       3.309028        90.0432 
 466   0.0000       3.316131        90.2365 
 467   0.0000       3.317591        90.2762 
 468   0.0000       3.331524        90.6554 
 469   0.0000       3.334639        90.7401 
 470   0.0000       3.340844        90.9090 
 471   0.0000       3.346833        91.0720 
 472   0.0000       3.351931        91.2107 
 473   0.0000       3.354798        91.2887 
 474   0.0000       3.364685        91.5577 
 475   0.0000       3.367845        91.6437 
 476   0.0000       3.371936        91.7550 
 477   0.0000       3.376273        91.8731 
 478   0.0000       3.378689        91.9388 
 479   0.0000       3.387018        92.1654 
 480   0.0000       3.392688        92.3197 
 481   0.0000       3.397939        92.4626 
 482   0.0000       3.404103        92.6304 
 483   0.0000       3.410604        92.8073 
 484   0.0000       3.419832        93.0583 
 485   0.0000       3.420089        93.0654 
 486   0.0000       3.428538        93.2953 
 487   0.0000       3.434243        93.4505 
 488   0.0000       3.440760        93.6278 
 489   0.0000       3.443459        93.7013 
 490   0.0000       3.445508        93.7570 
 491   0.0000       3.451225        93.9126 
 492   0.0000       3.457532        94.0842 
 493   0.0000       3.465250        94.2943 
 494   0.0000       3.467986        94.3687 
 495   0.0000       3.479197        94.6738 
 496   0.0000       3.489735        94.9605 
 497   0.0000       3.494998        95.1037 
 498   0.0000       3.503360        95.3313 
 499   0.0000       3.509806        95.5067 
 500   0.0000       3.516059        95.6768 
 501   0.0000       3.521717        95.8308 
 502   0.0000       3.528133        96.0054 
 503   0.0000       3.537435        96.2585 
 504   0.0000       3.546501        96.5052 
 505   0.0000       3.555765        96.7573 
 506   0.0000       3.558936        96.8436 
 507   0.0000       3.574742        97.2737 
 508   0.0000       3.579686        97.4082 
 509   0.0000       3.581172        97.4487 
 510   0.0000       3.602612        98.0320 
 511   0.0000       3.605664        98.1151 
 512   0.0000       3.611339        98.2695 
 513   0.0000       3.616313        98.4049 
 514   0.0000       3.619724        98.4977 
 515   0.0000       3.633239        98.8655 
 516   0.0000       3.634739        98.9063 
 517   0.0000       3.636851        98.9637 
 518   0.0000       3.645886        99.2096 
 519   0.0000       3.653151        99.4073 
 520   0.0000       3.662406        99.6591 
 521   0.0000       3.666666        99.7751 
 522   0.0000       3.669672        99.8569 
 523   0.0000       3.671247        99.8997 
 524   0.0000       3.679083       100.1129 
 525   0.0000       3.689870       100.4065 
 526   0.0000       3.697317       100.6091 
 527   0.0000       3.701490       100.7227 
 528   0.0000       3.705863       100.8417 
 529   0.0000       3.711770       101.0024 
 530   0.0000       3.719805       101.2210 
 531   0.0000       3.725305       101.3707 
 532   0.0000       3.732034       101.5538 
 533   0.0000       3.735524       101.6488 
 534   0.0000       3.750234       102.0491 
 535   0.0000       3.754141       102.1554 
 536   0.0000       3.760002       102.3149 
 537   0.0000       3.762620       102.3861 
 538   0.0000       3.771303       102.6224 
 539   0.0000       3.781297       102.8943 
 540   0.0000       3.783329       102.9496 
 541   0.0000       3.794126       103.2434 
 542   0.0000       3.800751       103.4237 
 543   0.0000       3.805530       103.5537 
 544   0.0000       3.815498       103.8250 
 545   0.0000       3.818409       103.9042 
 546   0.0000       3.825411       104.0947 
 547   0.0000       3.836903       104.4074 
 548   0.0000       3.846578       104.6707 
 549   0.0000       3.856685       104.9457 
 550   0.0000       3.863587       105.1336 
 551   0.0000       3.869299       105.2890 
 552   0.0000       3.873869       105.4133 
 553   0.0000       3.887904       105.7952 
 554   0.0000       3.892926       105.9319 
 555   0.0000       3.898441       106.0820 
 556   0.0000       3.905885       106.2845 
 557   0.0000       3.917554       106.6021 
 558   0.0000       3.926644       106.8494 
 559   0.0000       3.934341       107.0589 
 560   0.0000       3.939667       107.2038 
 561   0.0000       3.957317       107.6841 
 562   0.0000       3.959369       107.7399 
 563   0.0000       3.973919       108.1358 
 564   0.0000       3.982635       108.3730 
 565   0.0000       3.995428       108.7211 
 566   0.0000       3.997475       108.7768 
 567   0.0000       4.011680       109.1634 
 568   0.0000       4.019023       109.3632 
 569   0.0000       4.025224       109.5319 
 570   0.0000       4.038770       109.9005 
 571   0.0000       4.040437       109.9459 
 572   0.0000       4.054912       110.3398 
 573   0.0000       4.059755       110.4715 
 574   0.0000       4.071468       110.7903 
 575   0.0000       4.080613       111.0391 
 576   0.0000       4.084319       111.1400 
 577   0.0000       4.090191       111.2997 
 578   0.0000       4.098507       111.5260 
 579   0.0000       4.103571       111.6638 
 580   0.0000       4.113853       111.9436 
 581   0.0000       4.116221       112.0081 
 582   0.0000       4.126507       112.2880 
 583   0.0000       4.134190       112.4970 
 584   0.0000       4.142133       112.7132 
 585   0.0000       4.153144       113.0128 
 586   0.0000       4.159897       113.1966 
 587   0.0000       4.161789       113.2480 
 588   0.0000       4.175660       113.6255 
 589   0.0000       4.180055       113.7451 
 590   0.0000       4.185645       113.8972 
 591   0.0000       4.191978       114.0695 
 592   0.0000       4.196585       114.1949 
 593   0.0000       4.206383       114.4615 
 594   0.0000       4.214919       114.6938 
 595   0.0000       4.222953       114.9124 
 596   0.0000       4.229338       115.0861 
 597   0.0000       4.236199       115.2728 
 598   0.0000       4.243636       115.4752 
 599   0.0000       4.253412       115.7412 
 600   0.0000       4.256389       115.8222 
 601   0.0000       4.266152       116.0879 
 602   0.0000       4.275296       116.3367 
 603   0.0000       4.283594       116.5625 
 604   0.0000       4.295530       116.8873 
 605   0.0000       4.305665       117.1631 
 606   0.0000       4.317023       117.4722 
 607   0.0000       4.321971       117.6068 
 608   0.0000       4.331657       117.8704 
 609   0.0000       4.332487       117.8930 
 610   0.0000       4.350490       118.3829 
 611   0.0000       4.351818       118.4190 
 612   0.0000       4.356808       118.5548 
 613   0.0000       4.359213       118.6202 
 614   0.0000       4.375668       119.0680 
 615   0.0000       4.377850       119.1274 
 616   0.0000       4.395062       119.5957 
 617   0.0000       4.397385       119.6589 
 618   0.0000       4.408692       119.9666 
 619   0.0000       4.417635       120.2100 
 620   0.0000       4.426379       120.4479 
 621   0.0000       4.432081       120.6031 
 622   0.0000       4.440081       120.8207 
 623   0.0000       4.443648       120.9178 
 624   0.0000       4.453475       121.1852 
 625   0.0000       4.456204       121.2595 
 626   0.0000       4.465915       121.5237 
 627   0.0000       4.477640       121.8428 
 628   0.0000       4.487636       122.1148 
 629   0.0000       4.501976       122.5050 
 630   0.0000       4.503465       122.5455 
 631   0.0000       4.520658       123.0134 
 632   0.0000       4.528548       123.2281 
 633   0.0000       4.535703       123.4228 
 634   0.0000       4.542396       123.6049 
 635   0.0000       4.545686       123.6944 
 636   0.0000       4.559101       124.0595 
 637   0.0000       4.566785       124.2685 
 638   0.0000       4.573494       124.4511 
 639   0.0000       4.581891       124.6796 
 640   0.0000       4.602151       125.2309 
 641   0.0000       4.607353       125.3725 
 642   0.0000       4.619301       125.6976 
 643   0.0000       4.623727       125.8180 
 644   0.0000       4.630568       126.0042 
 645   0.0000       4.633349       126.0798 
 646   0.0000       4.641248       126.2948 
 647   0.0000       4.645878       126.4208 
 648   0.0000       4.651594       126.5763 
 649   0.0000       4.662590       126.8755 
 650   0.0000       4.673153       127.1630 
 651   0.0000       4.679255       127.3290 
 652   0.0000       4.683020       127.4315 
 653   0.0000       4.689200       127.5996 
 654   0.0000       4.695060       127.7591 
 655   0.0000       4.700901       127.9180 
 656   0.0000       4.721543       128.4797 
 657   0.0000       4.735051       128.8473 
 658   0.0000       4.742167       129.0409 
 659   0.0000       4.751657       129.2991 
 660   0.0000       4.760967       129.5525 
 661   0.0000       4.774522       129.9214 
 662   0.0000       4.790788       130.3640 
 663   0.0000       4.809012       130.8599 
 664   0.0000       4.819547       131.1465 
 665   0.0000       4.825438       131.3068 
 666   0.0000       4.845983       131.8659 
 667   0.0000       4.865617       132.4002 
 668   0.0000       4.883333       132.8822 
 669   0.0000       4.895392       133.2104 
 670   0.0000       4.911128       133.6386 
 671   0.0000       4.926576       134.0589 
 672   0.0000       4.934399       134.2718 
 673   0.0000       4.962791       135.0444 
 674   0.0000       4.974697       135.3684 
 675   0.0000       4.991239       135.8185 
 676   0.0000       5.010860       136.3524 
 677   0.0000       5.025934       136.7626 
 678   0.0000       5.030267       136.8805 
 679   0.0000       5.044953       137.2802 
 680   0.0000       5.048368       137.3731 
 681   0.0000       5.067291       137.8880 
 682   0.0000       5.087921       138.4494 
 683   0.0000       5.089258       138.4857 
 684   0.0000       5.103978       138.8863 
 685   0.0000       5.115748       139.2066 
 686   0.0000       5.126269       139.4929 
 687   0.0000       5.128162       139.5444 
 688   0.0000       5.149738       140.1315 
 689   0.0000       5.159272       140.3909 
 690   0.0000       5.168526       140.6427 
 691   0.0000       5.177911       140.8981 
 692   0.0000       5.189427       141.2115 
 693   0.0000       5.202069       141.5555 
 694   0.0000       5.216083       141.9368 
 695   0.0000       5.220035       142.0444 
 696   0.0000       5.225620       142.1963 
 697   0.0000       5.232038       142.3710 
 698   0.0000       5.242796       142.6637 
 699   0.0000       5.253335       142.9505 
 700   0.0000       5.265800       143.2897 
 701   0.0000       5.277024       143.5951 
 702   0.0000       5.290760       143.9689 
 703   0.0000       5.304843       144.3521 
 704   0.0000       5.320822       144.7869 
 705   0.0000       5.330110       145.0397 
 706   0.0000       5.338973       145.2808 
 707   0.0000       5.353992       145.6895 
 708   0.0000       5.369477       146.1109 
 709   0.0000       5.380521       146.4114 
 710   0.0000       5.383230       146.4851 
 711   0.0000       5.410787       147.2350 
 712   0.0000       5.441112       148.0602 
 713   0.0000       5.466405       148.7484 
 714   0.0000       5.480938       149.1439 
 715   0.0000       5.483561       149.2153 
 716   0.0000       5.494113       149.5024 
 717   0.0000       5.511755       149.9825 
 718   0.0000       5.521357       150.2438 
 719   0.0000       5.535864       150.6385 
 720   0.0000       5.540421       150.7625 
 721   0.0000       5.554404       151.1430 
 722   0.0000       5.563168       151.3815 
 723   0.0000       5.569754       151.5607 
 724   0.0000       5.581409       151.8779 
 725   0.0000       5.592876       152.1899 
 726   0.0000       5.621462       152.9678 
 727   0.0000       5.628546       153.1605 
 728   0.0000       5.645287       153.6161 
 729   0.0000       5.651185       153.7766 
 730   0.0000       5.666202       154.1852 
 731   0.0000       5.671274       154.3232 
 732   0.0000       5.681799       154.6096 
 733   0.0000       5.686852       154.7471 
 734   0.0000       5.703105       155.1894 
 735   0.0000       5.717611       155.5841 
 736   0.0000       5.719222       155.6279 
 737   0.0000       5.735838       156.0801 
 738   0.0000       5.739470       156.1789 
 739   0.0000       5.751362       156.5025 
 740   0.0000       5.772068       157.0660 
 741   0.0000       5.777987       157.2270 
 742   0.0000       5.795925       157.7151 
 743   0.0000       5.805860       157.9855 
 744   0.0000       5.816246       158.2681 
 745   0.0000       5.825999       158.5335 
 746   0.0000       5.860463       159.4713 
 747   0.0000       5.869819       159.7259 
 748   0.0000       5.889946       160.2736 
 749   0.0000       5.913208       160.9066 
 750   0.0000       5.935199       161.5050 
 751   0.0000       5.960956       162.2059 
 752   0.0000       5.971934       162.5046 
 753   0.0000       5.981947       162.7770 
 754   0.0000       5.999746       163.2614 
 755   0.0000       6.005292       163.4123 
 756   0.0000       6.040605       164.3732 
 757   0.0000       6.052883       164.7073 
 758   0.0000       6.069086       165.1482 
 759   0.0000       6.075732       165.3291 
 760   0.0000       6.095315       165.8619 
 761   0.0000       6.167772       167.8336 
 762   0.0000       6.228018       169.4730 
 763   0.0000       6.230063       169.5286 
 764   0.0000       6.265166       170.4838 
 765   0.0000       6.302626       171.5032 
 766   0.0000       6.314635       171.8300 
 767   0.0000       6.342714       172.5940 
 768   0.0000       6.349135       172.7687 
 769   0.0000       6.365976       173.2270 
 770   0.0000       6.383733       173.7102 
 771   0.0000       6.390745       173.9010 
 772   0.0000       6.405309       174.2973 
 773   0.0000       6.438129       175.1904 
 774   0.0000       6.453941       175.6207 
 775   0.0000       6.460841       175.8084 
 776   0.0000       6.501993       176.9282 
 777   0.0000       6.512895       177.2249 
 778   0.0000       6.555658       178.3885 
 779   0.0000       6.619698       180.1311 
 780   0.0000       6.679753       181.7653 
 781   0.0000       6.691367       182.0814 
 782   0.0000       6.745705       183.5600 
 783   0.0000       6.755362       183.8227 
 784   0.0000       6.816082       185.4750 
 785   0.0000       6.850899       186.4224 
 786   0.0000       6.908560       187.9915 
 787   0.0000       6.920169       188.3074 
 788   0.0000       6.969639       189.6535 
 789   0.0000       6.988567       190.1686 
 790   0.0000       7.054295       191.9571 
 791   0.0000       7.065159       192.2528 
 792   0.0000       7.081952       192.7097 
 793   0.0000       7.131972       194.0708 
 794   0.0000       7.147642       194.4972 
 795   0.0000       7.258383       197.5107 
 796   0.0000       7.259310       197.5359 
 797   0.0000       7.282739       198.1734 
 798   0.0000       7.347626       199.9391 
 799   0.0000       7.377033       200.7393 
 800   0.0000       7.403010       201.4461 
 801   0.0000       7.522931       204.7094 
 802   0.0000       7.556156       205.6135 
 803   0.0000       7.578032       206.2087 
 804   0.0000       7.589382       206.5176 
 805   0.0000       7.747595       210.8228 
 806   0.0000       7.825604       212.9455 
 807   0.0000       7.932655       215.8585 
 808   0.0000       8.047256       218.9770 
 809   0.0000       9.487284       258.1621 
 810   0.0000       9.674387       263.2535 
 811   0.0000      10.786466       293.5147 
 812   0.0000      11.218306       305.2656 
 813   0.0000      12.123355       329.8933 
 814   0.0000      12.556547       341.6810 
 815   0.0000      12.947729       352.3256 
 816   0.0000      13.116568       356.9199 
 817   0.0000      13.285493       361.5166 
 818   0.0000      13.388521       364.3202 
 819   0.0000      13.422642       365.2487 
 820   0.0000      13.505633       367.5070 
 821   0.0000      13.732410       373.6779 
 822   0.0000      13.952933       379.6786 
 823   0.0000      14.075761       383.0209 
 824   0.0000      14.247267       387.6878 
 825   0.0000      14.515618       394.9900 
 826   0.0000      14.705599       400.1597 
 827   0.0000      15.945373       433.8957 

                    ********************************
                    * MULLIKEN POPULATION ANALYSIS *
                    ********************************

-----------------------
MULLIKEN ATOMIC CHARGES
-----------------------
   0 C :   -0.262764
   1 C :    0.017217
   2 O :   -0.311317
   3 C :    0.396108
   4 O :   -0.382747
   5 C :   -0.171245
   6 C :    0.123631
   7 C :   -0.321951
   8 N :   -0.136139
   9 C :    0.203769
  10 S :   -0.440607
  11 N :   -0.219762
  12 C :    0.065164
  13 C :    0.008915
  14 C :   -0.195684
  15 C :   -0.135280
  16 C :   -0.270233
  17 C :    0.303548
  18 O :   -0.359794
  19 C :   -0.246750
  20 H :    0.109881
  21 H :    0.104748
  22 H :    0.088977
  23 H :    0.111174
  24 H :    0.089137
  25 H :    0.122762
  26 H :    0.139594
  27 H :    0.121825
  28 H :    0.196185
  29 H :    0.200448
  30 H :    0.167697
  31 H :    0.170968
  32 H :    0.163362
  33 H :    0.132100
  34 H :    0.241288
  35 H :    0.175774
Sum of atomic charges:   -0.0000000

--------------------------------
MULLIKEN REDUCED ORBITAL CHARGES
--------------------------------
  0 C s       :     3.258898  s :     3.258898
      pz      :     0.969973  p :     2.927210
      px      :     0.978127
      py      :     0.979110
      dz2     :     0.017974  d :     0.072151
      dxz     :     0.011878
      dyz     :     0.014730
      dx2y2   :     0.017909
      dxy     :     0.009660
      f0      :     0.000436  f :     0.004505
      f+1     :     0.000904
      f-1     :     0.000512
      f+2     :     0.000897
      f-2     :     0.000772
      f+3     :     0.000339
      f-3     :     0.000644
  1 C s       :     3.169734  s :     3.169734
      pz      :     0.997924  p :     2.642665
      px      :     0.678868
      py      :     0.965873
      dz2     :     0.027295  d :     0.158672
      dxz     :     0.044122
      dyz     :     0.017222
      dx2y2   :     0.042405
      dxy     :     0.027627
      f0      :     0.001451  f :     0.011712
      f+1     :     0.001771
      f-1     :     0.000816
      f+2     :     0.001907
      f-2     :     0.001381
      f+3     :     0.002265
      f-3     :     0.002121
  2 O s       :     3.725515  s :     3.725515
      pz      :     1.775310  p :     4.549950
      px      :     1.152335
      py      :     1.622305
      dz2     :     0.003906  d :     0.033548
      dxz     :     0.006405
      dyz     :     0.002995
      dx2y2   :     0.004764
      dxy     :     0.015478
      f0      :     0.000242  f :     0.002304
      f+1     :     0.000475
      f-1     :     0.000123
      f+2     :     0.000192
      f-2     :     0.000212
[...]
 15 C s       :     2.705442  s :     2.705442
      pz      :     0.888343  p :     2.791980
      px      :     0.931652
      py      :     0.971985
      dz2     :     0.089266  d :     0.416124
      dxz     :     0.067547
      dyz     :     0.056520
      dx2y2   :     0.112526
      dxy     :     0.090265
      f0      :     0.002859  f :     0.041106
      f+1     :     0.005005
      f-1     :     0.006063
      f+2     :     0.006718
      f-2     :     0.006632
      f+3     :     0.006868
      f-3     :     0.006961
 16 C s       :     2.701546  s :     2.701546
      pz      :     0.935853  p :     2.868617
      px      :     0.960243
      py      :     0.972521
      dz2     :     0.043334  d :     0.390691
      dxz     :     0.054427
      dyz     :     0.087055
      dx2y2   :     0.094205
      dxy     :     0.111670
      f0      :     0.004538  f :     0.040359
      f+1     :     0.004412
      f-1     :     0.003359
      f+2     :     0.006075
      f-2     :     0.005602
      f+3     :     0.008667
      f-3     :     0.007706
 17 C s       :     2.701337  s :     2.701337
      pz      :     0.835460  p :     2.683608
      px      :     0.819902
      py      :     1.028246
      dz2     :     0.122443  d :     0.709367
      dxz     :     0.108687
      dyz     :     0.137893
      dx2y2   :     0.168782
      dxy     :     0.171562
      f0      :     0.009138  f :     0.099335
      f+1     :     0.015912
      f-1     :     0.008934
      f+2     :     0.015391
      f-2     :     0.015234
      f+3     :     0.016502
      f-3     :     0.018224
 18 O s       :     3.177184  s :     3.177184
      pz      :     1.453113  p :     4.346338
      px      :     1.407527
      py      :     1.485698
      dz2     :     0.008261  d :     0.075561
      dxz     :     0.017483
      dyz     :     0.016546
      dx2y2   :     0.016826
      dxy     :     0.016445
      f0      :     0.000585  f :     0.005069
      f+1     :     0.000767
      f-1     :     0.000311
      f+2     :     0.000766
      f-2     :     0.000937
      f+3     :     0.000767
      f-3     :     0.000936
 19 C s       :     2.695785  s :     2.695785
      pz      :     0.929919  p :     2.850208
      px      :     0.951004
      py      :     0.969285
      dz2     :     0.071449  d :     0.387669
      dxz     :     0.064801
      dyz     :     0.058648
      dx2y2   :     0.098478
      dxy     :     0.094293
      f0      :     0.003002  f :     0.040701
      f+1     :     0.004960
      f-1     :     0.005471
      f+2     :     0.006803
      f-2     :     0.007110
      f+3     :     0.006957
      f-3     :     0.006397
 20 H s       :     0.839731  s :     0.839731
      pz      :     0.068164  p :     0.156541
      px      :     0.047992
      py      :     0.040384
      dz2     :     0.008873  d :     0.027834
      dxz     :     0.007010
      dyz     :     0.007222
      dx2y2   :     0.002494
      dxy     :     0.002234
 21 H s       :     0.846871  s :     0.846871
      pz      :     0.043286  p :     0.151002
      px      :     0.038584
      py      :     0.069133
      dz2     :     0.004024  d :     0.027510
      dxz     :     0.001462
      dyz     :     0.007776
      dx2y2   :     0.006357
      dxy     :     0.007891
 22 H s       :     0.847965  s :     0.847965
      pz      :     0.041500  p :     0.151481
      px      :     0.068403
      py      :     0.041579
      dz2     :     0.002469  d :     0.027458
      dxz     :     0.008505
      dyz     :     0.001330
      dx2y2   :     0.007689
      dxy     :     0.007466
 23 H s       :     0.857303  s :     0.857303
      pz      :     0.068511  p :     0.145508
      px      :     0.037367
      py      :     0.039630
      dz2     :     0.007566  d :     0.026855
      dxz     :     0.007501
      dyz     :     0.007565
      dx2y2   :     0.002127
      dxy     :     0.002096
 24 H s       :     0.852639  s :     0.852639
      pz      :     0.050123  p :     0.159496
      px      :     0.029463
      py      :     0.079910
      dz2     :     0.004702  d :     0.028174
      dxz     :     0.001172
      dyz     :     0.008895
      dx2y2   :     0.007345
      dxy     :     0.006061
 25 H s       :     0.831935  s :     0.831935
      pz      :     0.051097  p :     0.149038
      px      :     0.039469
      py      :     0.058472
      dz2     :     0.006934  d :     0.027554
      dxz     :     0.003773
      dyz     :     0.006935
      dx2y2   :     0.004628
      dxy     :     0.005283
 26 H s       :     0.831160  s :     0.831160
      pz      :     0.041635  p :     0.150372
      px      :     0.047106
      py      :     0.061631
      dz2     :     0.004001  d :     0.027613
      dxz     :     0.002974
      dyz     :     0.006627
      dx2y2   :     0.008111
      dxy     :     0.005900
 27 H s       :     0.836526  s :     0.836526
      pz      :     0.037113  p :     0.152535
      px      :     0.073005
      py      :     0.042417
      dz2     :     0.002337  d :     0.027662
      dxz     :     0.008206
      dyz     :     0.000712
      dx2y2   :     0.007225
      dxy     :     0.009182
 28 H s       :     0.742781  s :     0.742781
      pz      :     0.055048  p :     0.253496
      px      :     0.091221
      py      :     0.107226
      dz2     :     0.007299  d :     0.061663
      dxz     :     0.003644
      dyz     :     0.015460
      dx2y2   :     0.016849
      dxy     :     0.018411
 29 H s       :     0.747543  s :     0.747543
      pz      :     0.117902  p :     0.254537
      px      :     0.092687
      py      :     0.043948
      dz2     :     0.022301  d :     0.061408
      dxz     :     0.018382
      dyz     :     0.012681
      dx2y2   :     0.004845
      dxy     :     0.003199
 30 H s       :     0.824009  s :     0.824009
      pz      :     0.037193  p :     0.149313
      px      :     0.074648
      py      :     0.037472
      dz2     :     0.002730  d :     0.028418
      dxz     :     0.008062
      dyz     :     0.001650
      dx2y2   :     0.008219
      dxy     :     0.007756
 31 H s       :     0.837101  s :     0.837101
      pz      :     0.055943  p :     0.157006
      px      :     0.065735
      py      :     0.035328
      dz2     :     0.005360  d :     0.027393
      dxz     :     0.006996
      dyz     :     0.003416
      dx2y2   :     0.005669
      dxy     :     0.005952
 32 H s       :     0.841172  s :     0.841172
      pz      :     0.036677  p :     0.150750
      px      :     0.038978
      py      :     0.075095
      dz2     :     0.002590  d :     0.026411
      dxz     :     0.000722
      dyz     :     0.007154
      dx2y2   :     0.007936
      dxy     :     0.008009
 33 H s       :     0.848118  s :     0.848118
      pz      :     0.055461  p :     0.158963
      px      :     0.049142
      py      :     0.054360
      dz2     :     0.005493  d :     0.027742
      dxz     :     0.004359
      dyz     :     0.005961
      dx2y2   :     0.006244
      dxy     :     0.005685
 34 H s       :     0.706081  s :     0.706081
      pz      :     0.108797  p :     0.347489
      px      :     0.085626
      py      :     0.153066
      dz2     :     0.020893  d :     0.099508
      dxz     :     0.009995
      dyz     :     0.024735
      dx2y2   :     0.022341
      dxy     :     0.021543
 35 H s       :     0.837160  s :     0.837160
      pz      :     0.041399  p :     0.159244
      px      :     0.041294
      py      :     0.076551
      dz2     :     0.002556  d :     0.028041
      dxz     :     0.000906
      dyz     :     0.007876
      dx2y2   :     0.008146
      dxy     :     0.008558


                      *****************************
                      * MAYER POPULATION ANALYSIS *
                      *****************************

  NA   - Mulliken gross atomic population
  ZA   - Total nuclear charge
  QA   - Mulliken gross atomic charge
  VA   - Mayer's total valence
  BVA  - Mayer's bonded valence
  FA   - Mayer's free valence

  ATOM       NA         ZA         QA         VA         BVA        FA
  0 C      6.2628     6.0000    -0.2628     3.8922     3.8922    -0.0000
  1 C      5.9828     6.0000     0.0172     3.8601     3.8601     0.0000
  2 O      8.3113     8.0000    -0.3113     2.0607     2.0607    -0.0000
  3 C      5.6039     6.0000     0.3961     4.2429     4.2429    -0.0000
  4 O      8.3827     8.0000    -0.3827     2.1283     2.1283     0.0000
  5 C      6.1712     6.0000    -0.1712     3.5786     3.5786    -0.0000
  6 C      5.8764     6.0000     0.1236     3.7943     3.7943    -0.0000
  7 C      6.3220     6.0000    -0.3220     3.8777     3.8777     0.0000
  8 N      7.1361     7.0000    -0.1361     3.2548     3.2548     0.0000
  9 C      5.7962     6.0000     0.2038     4.1460     4.1460     0.0000
 10 S     16.4406    16.0000    -0.4406     1.7512     1.7512     0.0000
 11 N      7.2198     7.0000    -0.2198     3.2519     3.2519    -0.0000
 12 C      5.9348     6.0000     0.0652     3.9453     3.9453     0.0000
 13 C      5.9911     6.0000     0.0089     3.7375     3.7375    -0.0000
 14 C      6.1957     6.0000    -0.1957     3.8719     3.8719     0.0000
 15 C      6.1353     6.0000    -0.1353     3.8111     3.8111    -0.0000
 16 C      6.2702     6.0000    -0.2702     3.7823     3.7823    -0.0000
 17 C      5.6965     6.0000     0.3035     3.8736     3.8736     0.0000
 18 O      8.3598     8.0000    -0.3598     2.1160     2.1160     0.0000
 19 C      6.2467     6.0000    -0.2467     3.8190     3.8190     0.0000
 20 H      0.8901     1.0000     0.1099     0.9771     0.9771    -0.0000
 21 H      0.8953     1.0000     0.1047     0.9859     0.9859     0.0000
 22 H      0.9110     1.0000     0.0890     0.9832     0.9832    -0.0000
 23 H      0.8888     1.0000     0.1112     0.9729     0.9729    -0.0000
 24 H      0.9109     1.0000     0.0891     0.9669     0.9669     0.0000
 25 H      0.8772     1.0000     0.1228     0.9839     0.9839     0.0000
 26 H      0.8604     1.0000     0.1396     0.9780     0.9780     0.0000
 27 H      0.8782     1.0000     0.1218     0.9707     0.9707    -0.0000
 28 H      0.8038     1.0000     0.1962     1.0219     1.0219    -0.0000
 29 H      0.7996     1.0000     0.2004     1.0143     1.0143    -0.0000
 30 H      0.8323     1.0000     0.1677     0.9922     0.9922     0.0000
 31 H      0.8290     1.0000     0.1710     0.9867     0.9867    -0.0000
 32 H      0.8366     1.0000     0.1634     0.9771     0.9771    -0.0000
 33 H      0.8679     1.0000     0.1321     0.9907     0.9907     0.0000
 34 H      0.7587     1.0000     0.2413     1.0103     1.0103     0.0000
 35 H      0.8242     1.0000     0.1758     0.9869     0.9869    -0.0000

  Mayer bond orders larger than 0.100000
B(  0-C ,  1-C ) :   0.9780 B(  0-C , 20-H ) :   0.9697 B(  0-C , 21-H ) :   0.9817 
B(  0-C , 22-H ) :   0.9753 B(  1-C ,  2-O ) :   0.9134 B(  1-C , 23-H ) :   0.9807 
B(  1-C , 24-H ) :   0.9616 B(  2-O ,  3-C ) :   1.1708 B(  3-C ,  4-O ) :   2.0857 
B(  3-C ,  5-C ) :   0.9224 B(  5-C ,  6-C ) :   1.6945 B(  5-C , 12-C ) :   0.9581 
B(  6-C ,  7-C ) :   0.9476 B(  6-C ,  8-N ) :   1.1088 B(  7-C , 25-H ) :   0.9804 
B(  7-C , 26-H ) :   0.9703 B(  7-C , 27-H ) :   0.9660 B(  8-N ,  9-C ) :   1.1956 
B(  8-N , 28-H ) :   0.9522 B(  9-C , 10-S ) :   1.6104 B(  9-C , 11-N ) :   1.2877 
B( 11-N , 12-C ) :   0.9908 B( 11-N , 29-H ) :   0.9482 B( 12-C , 13-C ) :   0.9473 
B( 12-C , 30-H ) :   0.9957 B( 13-C , 14-C ) :   1.3901 B( 13-C , 19-C ) :   1.3533 
B( 14-C , 15-C ) :   1.3973 B( 14-C , 31-H ) :   0.9600 B( 15-C , 16-C ) :   1.3587 
B( 15-C , 32-H ) :   0.9708 B( 16-C , 17-C ) :   1.3327 B( 16-C , 33-H ) :   0.9852 
B( 17-C , 18-O ) :   1.1097 B( 17-C , 19-C ) :   1.3686 B( 18-O , 34-H ) :   0.9793 
B( 19-C , 35-H ) :   0.9561 

-------
TIMINGS
-------

Total SCF time: 0 days 1 hours 48 min 30 sec 

Total time                  ....    6510.812 sec
Sum of individual times     ....    6504.322 sec  ( 99.9%)

Fock matrix formation       ....    6488.305 sec  ( 99.7%)
Diagonalization             ....       1.338 sec  (  0.0%)
Density matrix formation    ....       0.192 sec  (  0.0%)
Population analysis         ....       0.347 sec  (  0.0%)
Initial guess               ....       6.345 sec  (  0.1%)
Orbital Transformation      ....       0.000 sec  (  0.0%)
Orbital Orthonormalization  ....       0.000 sec  (  0.0%)
DIIS solution               ....       3.923 sec  (  0.1%)
SOSCF solution              ....       2.527 sec  (  0.0%)

Maximum memory used throughout the entire SCF-calculation: 759.6 MB

------------------------------------------------------------------------------
                                ORCA  MP2 
------------------------------------------------------------------------------

Freezing NCore=48 chemical core electrons

-------------
RI-MP2 ENERGY
-------------
Dimension of the basis                    ...  828
Memory devoted to MP2                     ...  256 MB   
Data format for buffers                   ... DOUBLE
Compression type for matrix containers    ... UNCOMPRESSED
Overall scaling of the MP2 energy         ...   1.000e+00
Calculating two index integrals           ... done (    0.032 sec)
Cholesky decomposition of V**-1           ... done (    0.515 sec)

-----------------
RI-TRANSFORMATION (AUX index driven)
-----------------

Dimension of the orbital-basis         ... 828
Dimension of the aux-basis             ... 2141
Transformation of internal/external MOs...   24-  76 to   77- 827
Number Format for Storage              ... Double (8 Byte)
Integral mode                          ... Direct

First Phase: integral generation and transformation of MO indices
  Aux angular momentum 0               ... done (    4.648 sec)
  Aux angular momentum 1               ... done (    6.686 sec)
  Aux angular momentum 2               ... done (    8.492 sec)
  Aux angular momentum 3               ... done (    6.769 sec)
  Aux angular momentum 4               ... done (    2.274 sec)
Closing buffer VIA ( 0.63 GB; CompressionRatio= 1.00)
  Phase 1 completed in    29.209 sec
Second Phase: sorting and transformation of aux index

IA-Transformation
Memory available                       ... 156 MB 
Max. # MO pairs treated in a batch     ... 11    
# of internal orbitals                 ... 53
# batches for internal orbitals        ... 5
Closing buffer IAV ( 0.63 GB; CompressionRatio= 1.00)
(ia|v) transformation done in    27.303 sec

  Phase 2 completed in    27.322 sec
RI-Integral transformation completed in    56.541 sec
Opening buffers                              ... done

Starting loop over batches of integrals:

Operator 0  - window                       ... ( 24- 76)x( 77-827)
Operator 0  - Memory available             ...   256 MB
Operator 0  - Memory needed per MO         ...  12.3 MB
Operator 0  - Number of orbitals per batch ... 13
Operator 0  - Number of batches            ... 5

OPERATOR  0   PASS   0:  MOs    24 ...   36
  Reading integrals       ... ok
  Internal MO  26
  Internal MO  29
  Internal MO  32
  Internal MO  35
OPERATOR  0   PASS   1:  MOs    37 ...   49
  Reading integrals       ... ok
  Internal MO  38
  Internal MO  41
  Internal MO  44
  Internal MO  47
OPERATOR  0   PASS   2:  MOs    50 ...   62
  Reading integrals       ... ok
  Internal MO  50
  Internal MO  53
  Internal MO  56
  Internal MO  59
  Internal MO  62
OPERATOR  0   PASS   3:  MOs    63 ...   75
  Reading integrals       ... ok
  Internal MO  65
  Internal MO  68
  Internal MO  71
  Internal MO  74
OPERATOR  0   PASS   4:  MOs    76 ...   76
  Reading integrals       ... ok
Time spent in pair loops =   108.756 sec
Deleting buffer (Ka|jb)[aa] ...done

-----------------------------------------------
 RI-MP2 CORRELATION ENERGY:     -3.541674024 Eh
-----------------------------------------------


-------
TIMINGS
-------

Total time                :  165.963 sec
Integral trafo            :   56.556 sec ( 34.1%)
I/O of integrals          :    2.688 sec (  1.6%)
K(i,j) Operators          :   79.422 sec ( 47.9%)
T(i,j) pair energies      :    3.069 sec (  1.8%)
V-calculation             :    0.032 sec (  0.0%)
V**(-1/2)                 :    0.515 sec (  0.3%)
Gamma(ia|P)               :    0.000 sec (  0.0%)
Gamma-Trafo               :    0.000 sec (  0.0%)
D(virtual)                :    0.000 sec (  0.0%)
D(internal)               :    0.000 sec (  0.0%)
W(virtual)                :    0.000 sec (  0.0%)
W(internal)               :    0.000 sec (  0.0%)
L(virtual)                :    0.000 sec (  0.0%)
L(internal)               :    0.000 sec (  0.0%)
G(D)                      :    0.000 sec (  0.0%)
G(Z)                      :    0.000 sec (  0.0%)
Z-Vector Solution         :    0.000 sec (  0.0%)
3-Index Derivative        :    0.000 sec (  0.0%)
2-Index Derivative        :    0.000 sec (  0.0%)
Separable Gradient        :    0.000 sec (  0.0%)


---------------------------------------
MP2 TOTAL ENERGY:    -1274.330697141 Eh
---------------------------------------

Maximum memory used throughout the entire MP2-calculation: 306.0 MB

-------------------------   --------------------
FINAL SINGLE POINT ENERGY     -1274.330697141070
-------------------------   --------------------


                            ***************************************
                            *     ORCA property calculations      *
                            ***************************************


  WARNING: The energy has been calculated at the MP2 level but the densities
           used in the property calculations are still SCF densities
           MP2 response densities have not been calculated 
           use %mp2 Density relaxed end
           or  %mp2 Density unrelaxed end

                                    ---------------------
                                    Active property flags
                                    ---------------------
   (+) Dipole Moment


------------------------------------------------------------------------------
                       ORCA ELECTRIC PROPERTIES CALCULATION
------------------------------------------------------------------------------

Dipole Moment Calculation                       ... on
Quadrupole Moment Calculation                   ... off
Polarizability Calculation                      ... off
GBWName                                         ... CONFS/Conf173.orca.gbw
Electron density file                           ... CONFS/Conf173.orca.scfp
The origin for moment calculation is the CENTER OF MASS  = (32.801513, 31.394764 35.225551)

-------------
DIPOLE MOMENT
-------------
                                X             Y             Z
Electronic contribution:      9.97894       7.84474       6.18103
Nuclear contribution   :    -11.54140      -8.80569      -6.76082
                        -----------------------------------------
Total Dipole Moment    :     -1.56246      -0.96095      -0.57980
                        -----------------------------------------
Magnitude (a.u.)       :      1.92376
Magnitude (Debye)      :      4.88982



--------------------
Rotational spectrum 
--------------------
 
Rotational constants in cm-1:     0.012106     0.009301     0.006776 
Rotational constants in MHz :   362.919113   278.841516   203.138988 

 Dipole components along the rotational axes: 
x,y,z [a.u.] :    -1.234180    -0.760018     1.264925 
x,y,z [Debye]:    -3.137036    -1.931813     3.215183 

 

Timings for individual modules:

Sum of individual times         ...     6682.132 sec (= 111.369 min)
GTO integral calculation        ...        4.221 sec (=   0.070 min)   0.1 %
SCF iterations                  ...     6510.907 sec (= 108.515 min)  97.4 %
MP2 module                      ...      167.005 sec (=   2.783 min)   2.5 %
                             ****ORCA TERMINATED NORMALLY****
TOTAL RUN TIME: 0 days 1 hours 51 minutes 23 seconds 575 msec
