
                                        *****************
                                        * O   R   C   A *
                                        *****************

                                            #,                                       
                                            ###                                      
                                            ####                                     
                                            #####                                    
                                            ######                                   
                                           ########,                                 
                                     ,,################,,,,,                         
                               ,,#################################,,                 
                          ,,##########################################,,             
                       ,#########################################, ''#####,          
                    ,#############################################,,   '####,        
                  ,##################################################,,,,####,       
                ,###########''''           ''''###############################       
              ,#####''   ,,,,##########,,,,          '''####'''          '####       
            ,##' ,,,,###########################,,,                        '##       
           ' ,,###''''                  '''############,,,                           
         ,,##''                                '''############,,,,        ,,,,,,###''
      ,#''                                            '''#######################'''  
     '                                                          ''''####''''         
             ,#######,   #######,   ,#######,      ##                                
            ,#'     '#,  ##    ##  ,#'     '#,    #''#        ######   ,####,        
            ##       ##  ##   ,#'  ##            #'  '#       #        #'  '#        
            ##       ##  #######   ##           ,######,      #####,   #    #        
            '#,     ,#'  ##    ##  '#,     ,#' ,#      #,         ##   #,  ,#        
             '#######'   ##     ##  '#######'  #'      '#     #####' # '####'        



                  #######################################################
                  #                        -***-                        #
                  #          Department of theory and spectroscopy      #
                  #    Directorship and core code : Frank Neese         #
                  #        Max Planck Institute fuer Kohlenforschung    #
                  #                Kaiser Wilhelm Platz 1               #
                  #                 D-45470 Muelheim/Ruhr               #
                  #                      Germany                        #
                  #                                                     #
                  #                  All rights reserved                #
                  #                        -***-                        #
                  #######################################################


                         Program Version 5.0.0 -  RELEASE  -
                                (SVN: $Rev: 19529$)
                ($Date: 2021-06-28 11:36:33 +0200 (Mo, 28 Jun 2021) $)


 With contributions from (in alphabetic order):
   Daniel Aravena         : Magnetic Suceptibility
   Michael Atanasov       : Ab Initio Ligand Field Theory (pilot matlab implementation)
   Alexander A. Auer      : GIAO ZORA, VPT2 properties, NMR spectrum
   Ute Becker             : Parallelization
   Giovanni Bistoni       : ED, misc. LED, open-shell LED, HFLD
   Martin Brehm           : Molecular dynamics
   Dmytro Bykov           : SCF Hessian
   Vijay G. Chilkuri      : MRCI spin determinant printing, contributions to CSF-ICE
   Dipayan Datta          : RHF DLPNO-CCSD density
   Achintya Kumar Dutta   : EOM-CC, STEOM-CC
   Dmitry Ganyushin       : Spin-Orbit,Spin-Spin,Magnetic field MRCI
   Miquel Garcia          : C-PCM Hessian, Gaussian charge scheme
   Yang Guo               : DLPNO-NEVPT2, F12-NEVPT2, CIM, IAO-localization
   Andreas Hansen         : Spin unrestricted coupled pair/coupled cluster methods
   Benjamin Helmich-Paris : MC-RPA, TRAH-SCF, COSX integrals
   Lee Huntington         : MR-EOM, pCC
   Robert Izsak           : Overlap fitted RIJCOSX, COSX-SCS-MP3, EOM
   Marcus Kettner         : VPT2
   Christian Kollmar      : KDIIS, OOCD, Brueckner-CCSD(T), CCSD density, CASPT2, CASPT2-K
   Simone Kossmann        : Meta GGA functionals, TD-DFT gradient, OOMP2, MP2 Hessian
   Martin Krupicka        : Initial AUTO-CI
   Lucas Lang             : DCDCAS
   Marvin Lechner         : AUTO-CI (C++ implementation), FIC-MRCC
   Dagmar Lenk            : GEPOL surface, SMD
   Dimitrios Liakos       : Extrapolation schemes; Compound Job, initial MDCI parallelization
   Dimitrios Manganas     : Further ROCIS development; embedding schemes
   Dimitrios Pantazis     : SARC Basis sets
   Anastasios Papadopoulos: AUTO-CI, single reference methods and gradients
   Taras Petrenko         : DFT Hessian,TD-DFT gradient, ASA, ECA, R-Raman, ABS, FL, XAS/XES, NRVS
   Peter Pinski           : DLPNO-MP2, DLPNO-MP2 Gradient
   Christoph Reimann      : Effective Core Potentials
   Marius Retegan         : Local ZFS, SOC
   Christoph Riplinger    : Optimizer, TS searches, QM/MM, DLPNO-CCSD(T), (RO)-DLPNO pert. Triples
   Tobias Risthaus        : Range-separated hybrids, TD-DFT gradient, RPA, STAB
   Michael Roemelt        : Original ROCIS implementation
   Masaaki Saitow         : Open-shell DLPNO-CCSD energy and density
   Barbara Sandhoefer     : DKH picture change effects
   Avijit Sen             : IP-ROCIS
   Kantharuban Sivalingam : CASSCF convergence, NEVPT2, FIC-MRCI
   Bernardo de Souza      : ESD, SOC TD-DFT
   Georgi Stoychev        : AutoAux, RI-MP2 NMR
   Willem Van den Heuvel  : Paramagnetic NMR
   Boris Wezisla          : Elementary symmetry handling
   Frank Wennmohs         : Technical directorship


 We gratefully acknowledge several colleagues who have allowed us to
 interface, adapt or use parts of their codes:
   Stefan Grimme, W. Hujo, H. Kruse, P. Pracht,  : VdW corrections, initial TS optimization,
                  C. Bannwarth, S. Ehlert          DFT functionals, gCP, sTDA/sTD-DF
   Ed Valeev, F. Pavosevic, A. Kumar             : LibInt (2-el integral package), F12 methods
   Garnet Chan, S. Sharma, J. Yang, R. Olivares  : DMRG
   Ulf Ekstrom                                   : XCFun DFT Library
   Mihaly Kallay                                 : mrcc  (arbitrary order and MRCC methods)
   Jiri Pittner, Ondrej Demel                    : Mk-CCSD
   Frank Weinhold                                : gennbo (NPA and NBO analysis)
   Christopher J. Cramer and Donald G. Truhlar   : smd solvation model
   Lars Goerigk                                  : TD-DFT with DH, B97 family of functionals
   V. Asgeirsson, H. Jonsson                     : NEB implementation
   FAccTs GmbH                                   : IRC, NEB, NEB-TS, DLPNO-Multilevel, CI-OPT
                                                   MM, QMMM, 2- and 3-layer-ONIOM, Crystal-QMMM,
                                                   LR-CPCM, SF, NACMEs, symmetry and pop. for TD-DFT,
                                                   nearIR, NL-DFT gradient (VV10), updates on ESD,
                                                   ML-optimized integration grids
   S Lehtola, MJT Oliveira, MAL Marques          : LibXC Library
   Liviu Ungur et al                             : ANISO software


 Your calculation uses the libint2 library for the computation of 2-el integrals
 For citations please refer to: http://libint.valeyev.net

 Your ORCA version has been built with support for libXC version: 5.1.0
 For citations please refer to: https://tddft.org/programs/libxc/

 This ORCA versions uses:
   CBLAS   interface :  Fast vector & matrix operations
   LAPACKE interface :  Fast linear algebra routines
   SCALAPACK package :  Parallel linear algebra routines
   Shared memory     :  Shared parallel matrices
   BLAS/LAPACK       :  OpenBLAS 0.3.15  USE64BITINT DYNAMIC_ARCH NO_AFFINITY SkylakeX SINGLE_THREADED
        Core in use  :  SkylakeX
   Copyright (c) 2011-2014, The OpenBLAS Project


================================================================================

----- Orbital basis set information -----
Your calculation utilizes the basis: cc-pVTZ 
       H, B-Ne : Obtained from the ccRepo (grant-hill.group.shef.ac.uk/ccrepo) Feb. 2017
                 T. H. Dunning, Jr., J. Chem. Phys. 90, 1007 (1989)
            He : Obtained from the ccRepo (grant-hill.group.shef.ac.uk/ccrepo) Feb. 2017
                 D. E. Woon, T. H. Dunning, Jr., J. Chem. Phys. 100, 2975 (1994)
  Li-Be, Na-Mg : Obtained from the ccRepo (grant-hill.group.shef.ac.uk/ccrepo) Feb. 2017
                 B. P. Prascher, D. E. Woon, K. A. Peterson, T. H. Dunning, Jr., A. K. Wilson, Theor. Chem. Acc. 128, 69 (2011)
         Al-Ar : Obtained from the ccRepo (grant-hill.group.shef.ac.uk/ccrepo) Feb. 2017
                 D. E. Woon, T. H. Dunning, Jr., J. Chem. Phys. 98, 1358 (1993)
            Ca : Obtained from the Peterson Research Group Website (tyr0.chem.wsu.edu/~kipeters) Feb. 2017
                 J. Koput, K. A. Peterson, J. Phys. Chem. 106, 9595 (2002)
         Sc-Zn : Obtained from the ccRepo (grant-hill.group.shef.ac.uk/ccrepo) Feb. 2017
                 N. B. Balabanov, K. A. Peterson, J. Chem. Phys. 123, 064107 (2005)
                 N. B. Balabanov, K. A. Peterson, J. Chem. Phys. 125, 074110 (2006)
         Ga-Kr : Obtained from the ccRepo (grant-hill.group.shef.ac.uk/ccrepo) Feb. 2017
                 A. K. Wilson, D. E. Woon, K. A. Peterson, T. H. Dunning, Jr., J. Chem. Phys. 110, 7667 (1999)
             Y : Obtained from the ccRepo (grant-hill.group.shef.ac.uk/ccrepo) Feb. 2017
                 K. A. Peterson, D. Figgen, M. Dolg, H. Stoll, J. Chem. Phys. 126, 124101 (2007)
        Ag, Au : Obtained from the Peterson Research Group Website (tyr0.chem.wsu.edu/~kipeters) Feb. 2017
                 K. A. Peterson, C. Puzzarini, Theor. Chem. Acc. 114, 283 (2005)

----- AuxC basis set information -----
Your calculation utilizes the auxiliary basis: cc-pVTZ/C 
  Obtained from the EMSL Basis Set Exchange (bse.pnl.gov) Feb. 2017
  H-He, B-F, Al-Ar, Ga-Kr : F. Weigend, A. Kohn, C. Hattig, J. Chem. Phys. 116, 3175 (2002)
             Li-Be, Na-Mg : C. Haettig, Phys. Chem. Chem. Phys. 7, 59 (2005)
                       Ne : C. Haettig, Phys. Chem. Chem. Phys. 7, 59 (2005)
                            F. Weigend, A. Kohn, C. Hattig, J. Chem. Phys. 116, 3175 (2002)
                    Sc-Zn : J. G. Hill, J. A. Platts, J. Chem. Phys. 128, 044104 (2008)

================================================================================
                                        WARNINGS
                       Please study these warnings very carefully!
================================================================================


WARNING: No MP2 level density has been requested!
         To caclulate MP2 level properties use
         %mp2 Density relaxed end
         or
         %mp2 Density unrelaxed end

WARNING: Post HF methods need fully converged wavefunctions
  ===> : Setting SCFConvForced true
         You can overwrite this default with %scf ConvForced false 


INFO   : the flag for use of the SHARK integral package has been found!

================================================================================
                                       INPUT FILE
================================================================================
NAME = CONFS/Conf458.orca
|  1> ! ri-mp2 cc-pvtz cc-pvtz/c TightSCF NoKeepInts
|  2> 
|  3> %scf
|  4>   MaxCore 4096
|  5> end
|  6> *xyz  0  1
|  7>     C       15.0863396   14.8130051   16.9474864
|  8>     C       16.4002452   14.0408802   16.6811839
|  9>     O       17.5464105   14.8902240   16.4195103
| 10>     C       17.4203205   16.2189949   16.1305406
| 11>     O       16.8333387   16.5832007   15.1269020
| 12>     C       17.7643610   17.1173802   17.2888632
| 13>     C       17.4606268   18.4408772   17.2966470
| 14>     C       16.6835561   19.2125130   16.2516448
| 15>     N       17.9223935   19.2581853   18.3332398
| 16>     C       18.8446329   18.8773012   19.2716860
| 17>     S       19.4765502   19.9461538   20.3642401
| 18>     N       19.2266345   17.5598714   19.2505715
| 19>     C       18.5712749   16.5093473   18.4501172
| 20>     C       17.7326715   15.6311225   19.3734064
| 21>     C       18.1143693   14.3001677   19.6272575
| 22>     C       17.3515943   13.4880758   20.4833281
| 23>     C       16.2022572   14.0132237   21.0980403
| 24>     C       15.8287181   15.3430919   20.8612551
| 25>     O       14.7213789   15.8544936   21.4550341
| 26>     C       16.5902589   16.1489121   20.0095053
| 27>     H       15.2045181   15.5497099   17.7488274
| 28>     H       14.2963856   14.1154411   17.2505492
| 29>     H       14.7394266   15.3297210   16.0438723
| 30>     H       16.6192302   13.3916170   17.5377426
| 31>     H       16.2423460   13.3879494   15.8129799
| 32>     H       17.2164485   19.2050925   15.2921226
| 33>     H       16.5134040   20.2592524   16.5293703
| 34>     H       15.7013888   18.7527256   16.0832017
| 35>     H       17.6618710   20.2312996   18.3529421
| 36>     H       19.8880949   17.3016121   19.9714603
| 37>     H       19.3639020   15.8873852   18.0106589
| 38>     H       19.0023119   13.8908994   19.1523729
| 39>     H       17.6530730   12.4586697   20.6702404
| 40>     H       15.6099242   13.3902206   21.7603040
| 41>     H       14.3675212   15.1750971   22.0486725
| 42>     H       16.2892217   17.1782861   19.8482233
| 43> *
| 44> 
| 45>                          ****END OF INPUT****
================================================================================

                       ****************************
                       * Single Point Calculation *
                       ****************************

---------------------------------
CARTESIAN COORDINATES (ANGSTROEM)
---------------------------------
  C     15.086340   14.813005   16.947486
  C     16.400245   14.040880   16.681184
  O     17.546411   14.890224   16.419510
  C     17.420320   16.218995   16.130541
  O     16.833339   16.583201   15.126902
  C     17.764361   17.117380   17.288863
  C     17.460627   18.440877   17.296647
  C     16.683556   19.212513   16.251645
  N     17.922393   19.258185   18.333240
  C     18.844633   18.877301   19.271686
  S     19.476550   19.946154   20.364240
  N     19.226634   17.559871   19.250571
  C     18.571275   16.509347   18.450117
  C     17.732671   15.631122   19.373406
  C     18.114369   14.300168   19.627257
  C     17.351594   13.488076   20.483328
  C     16.202257   14.013224   21.098040
  C     15.828718   15.343092   20.861255
  O     14.721379   15.854494   21.455034
  C     16.590259   16.148912   20.009505
  H     15.204518   15.549710   17.748827
  H     14.296386   14.115441   17.250549
  H     14.739427   15.329721   16.043872
  H     16.619230   13.391617   17.537743
  H     16.242346   13.387949   15.812980
  H     17.216448   19.205092   15.292123
  H     16.513404   20.259252   16.529370
  H     15.701389   18.752726   16.083202
  H     17.661871   20.231300   18.352942
  H     19.888095   17.301612   19.971460
  H     19.363902   15.887385   18.010659
  H     19.002312   13.890899   19.152373
  H     17.653073   12.458670   20.670240
  H     15.609924   13.390221   21.760304
  H     14.367521   15.175097   22.048672
  H     16.289222   17.178286   19.848223

----------------------------
CARTESIAN COORDINATES (A.U.)
----------------------------
  NO LB      ZA    FRAG     MASS         X           Y           Z
   0 C     6.0000    0    12.011   28.509050   27.992523   32.026108
   1 C     6.0000    0    12.011   30.991972   26.533418   31.522869
   2 O     8.0000    0    15.999   33.157910   28.138445   31.028378
   3 C     6.0000    0    12.011   32.919635   30.649459   30.482304
   4 O     8.0000    0    15.999   31.810400   31.337708   28.585702
   5 C     6.0000    0    12.011   33.569777   32.347161   32.671217
   6 C     6.0000    0    12.011   32.995803   34.848208   32.685926
   7 C     6.0000    0    12.011   31.527352   36.306388   30.711158
   8 N     7.0000    0    14.007   33.868415   36.392696   34.644802
   9 C     6.0000    0    12.011   35.611195   35.672929   36.418209
  10 S    16.0000    0    32.060   36.805346   37.692768   38.482837
  11 N     7.0000    0    14.007   36.333074   33.183348   36.378308
  12 C     6.0000    0    12.011   35.094624   31.198145   34.865669
  13 C     6.0000    0    12.011   33.509893   29.538541   36.610432
  14 C     6.0000    0    12.011   34.231197   27.023401   37.090141
  15 C     6.0000    0    12.011   32.789761   25.488769   38.707880
  16 C     6.0000    0    12.011   30.617829   26.481155   39.869518
  17 C     6.0000    0    12.011   29.911942   28.994242   39.422059
  18 O     8.0000    0    15.999   27.819374   29.960651   40.544139
  19 C     6.0000    0    12.011   31.351046   30.517021   37.812485
  20 H     1.0000    0     1.008   28.732375   29.384693   33.540423
  21 H     1.0000    0     1.008   27.016253   26.674318   32.598814
  22 H     1.0000    0     1.008   27.853480   28.968974   30.318525
  23 H     1.0000    0     1.008   31.405794   25.306489   33.141531
  24 H     1.0000    0     1.008   30.693586   25.299558   29.882201
  25 H     1.0000    0     1.008   32.534373   36.292365   28.897924
  26 H     1.0000    0     1.008   31.205811   38.284439   31.235983
  27 H     1.0000    0     1.008   29.671325   35.437516   30.392847
  28 H     1.0000    0     1.008   33.376099   38.231616   34.682034
  29 H     1.0000    0     1.008   37.583053   32.695309   37.740590
  30 H     1.0000    0     1.008   36.592472   30.022807   34.035213
  31 H     1.0000    0     1.008   35.909165   26.249996   36.192740
  32 H     1.0000    0     1.008   33.359473   23.543474   39.061093
  33 H     1.0000    0     1.008   29.498482   25.303850   41.121015
  34 H     1.0000    0     1.008   27.150680   28.676778   41.665953
  35 H     1.0000    0     1.008   30.782168   32.462256   37.507706

--------------------------------
INTERNAL COORDINATES (ANGSTROEM)
--------------------------------
 C      0   0   0     0.000000000000     0.00000000     0.00000000
 C      1   0   0     1.547075243295     0.00000000     0.00000000
 O      2   1   0     1.450363009201   114.20123326     0.00000000
 C      3   2   1     1.365662579228   122.34394954   345.75804560
 O      4   3   2     1.218393999368   120.63913538   296.97304553
 C      4   3   2     1.505712873880   113.36947690   103.34173139
 C      6   4   3     1.357924652107   122.33212605   193.05033584
 C      7   6   4     1.513700855072   127.42423309     4.17835125
 N      7   6   4     1.398479763374   120.00014065   186.57423607
 C      9   7   6     1.369773513702   124.58490615    10.29940680
 S     10   9   7     1.653916508169   122.01330097   172.80184339
 N     10   9   7     1.371857252939   116.35715787   353.33216990
 C     12  10   9     1.474389424942   124.66866088   349.94462182
 C     13  12  10     1.525449903688   109.02410513   254.70837202
 C     14  13  12     1.407684009691   120.29271632   249.12857241
 C     15  14  13     1.405053674012   120.60686530   179.58850177
 C     16  15  14     1.405214280862   119.64054986   359.57873568
 C     17  16  15     1.401480688250   119.91453147   359.59707081
 O     18  17  16     1.356578528306   120.08786892   180.13635196
 C     18  17  16     1.398130289563   120.30857472     0.36740964
 H      1   2   3     1.094918955214   111.72292442   306.07917029
 H      1   2   3     1.096571893200   109.99262378   186.56744388
 H      1   2   3     1.097206631679   111.21092565    67.68789142
 H      2   1   3     1.096900150262   109.30198646   122.71502591
 H      2   1   3     1.097738116568   108.10950332   238.98323238
 H      8   7   6     1.097593834754   110.53819226   296.63550475
 H      8   7   6     1.096242017986   113.04973495   175.87945074
 H      8   7   6     1.097465323519   110.59841727    55.33341921
 H      9   7   6     1.007577091093   119.57452247   182.49792915
 H     12  10   9     1.011883584594   114.59237148   181.68243975
 H     13  12  10     1.099189779306   107.43931615   137.64663358
 H     15  14  13     1.086948934218   119.91585109   359.10159421
 H     16  15  14     1.088807849513   120.04781285   179.76261824
 H     17  16  15     1.085165634286   119.92531568   180.02020779
 H     19  18  17     0.969124050891   107.57085277     4.13896845
 H     20  18  17     1.084548805349   119.10692417   180.63236787

---------------------------
INTERNAL COORDINATES (A.U.)
---------------------------
 C      0   0   0     0.000000000000     0.00000000     0.00000000
 C      1   0   0     2.923548518398     0.00000000     0.00000000
 O      2   1   0     2.740788882160   114.20123326     0.00000000
 C      3   2   1     2.580728266086   122.34394954   345.75804560
 O      4   3   2     2.302430982018   120.63913538   296.97304553
 C      4   3   2     2.845384967952   113.36947690   103.34173139
 C      6   4   3     2.566105702983   122.33212605   193.05033584
 C      7   6   4     2.860480064768   127.42423309     4.17835125
 N      7   6   4     2.642743756608   120.00014065   186.57423607
 C      9   7   6     2.588496806396   124.58490615    10.29940680
 S     10   9   7     3.125449248810   122.01330097   172.80184339
 N     10   9   7     2.592434502888   116.35715787   353.33216990
 C     12  10   9     2.786192227890   124.66866088   349.94462182
 C     13  12  10     2.882682548988   109.02410513   254.70837202
 C     14  13  12     2.660137261416   120.29271632   249.12857241
 C     15  14  13     2.655166647343   120.60686530   179.58850177
 C     16  15  14     2.655470150305   119.64054986   359.57873568
 C     17  16  15     2.648414682773   119.91453147   359.59707081
 O     18  17  16     2.563561897656   120.08786892   180.13635196
 C     18  17  16     2.642083346814   120.30857472     0.36740964
 H      1   2   3     2.069096964193   111.72292442   306.07917029
 H      1   2   3     2.072220564303   109.99262378   186.56744388
 H      1   2   3     2.073420046196   111.21092565    67.68789142
 H      2   1   3     2.072840880252   109.30198646   122.71502591
 H      2   1   3     2.074424407079   108.10950332   238.98323238
 H      8   7   6     2.074151753966   110.53819226   296.63550475
 H      8   7   6     2.071597190490   113.04973495   175.87945074
 H      8   7   6     2.073908902925   110.59841727    55.33341921
 H      9   7   6     1.904044760979   119.57452247   182.49792915
 H     12  10   9     1.912182854293   114.59237148   181.68243975
 H     13  12  10     2.077167652093   107.43931615   137.64663358
 H     15  14  13     2.054035807229   119.91585109   359.10159421
 H     16  15  14     2.057548648044   120.04781285   179.76261824
 H     17  16  15     2.050665858744   119.92531568   180.02020779
 H     19  18  17     1.831379045981   107.57085277     4.13896845
 H     20  18  17     2.049500220981   119.10692417   180.63236787

---------------------
BASIS SET INFORMATION
---------------------
There are 5 groups of distinct atoms

 Group   1 Type C   : 18s5p2d1f contracted to 4s3p2d1f pattern {8811/311/11/1}
 Group   2 Type O   : 18s5p2d1f contracted to 4s3p2d1f pattern {8811/311/11/1}
 Group   3 Type N   : 18s5p2d1f contracted to 4s3p2d1f pattern {8811/311/11/1}
 Group   4 Type S   : 41s16p2d1f contracted to 5s4p2d1f pattern {13131311/7711/11/1}
 Group   5 Type H   : 5s2p1d contracted to 3s2p1d pattern {311/11/1}

Atom   0C    basis set group =>   1
Atom   1C    basis set group =>   1
Atom   2O    basis set group =>   2
Atom   3C    basis set group =>   1
Atom   4O    basis set group =>   2
Atom   5C    basis set group =>   1
Atom   6C    basis set group =>   1
Atom   7C    basis set group =>   1
Atom   8N    basis set group =>   3
Atom   9C    basis set group =>   1
Atom  10S    basis set group =>   4
Atom  11N    basis set group =>   3
Atom  12C    basis set group =>   1
Atom  13C    basis set group =>   1
Atom  14C    basis set group =>   1
Atom  15C    basis set group =>   1
Atom  16C    basis set group =>   1
Atom  17C    basis set group =>   1
Atom  18O    basis set group =>   2
Atom  19C    basis set group =>   1
Atom  20H    basis set group =>   5
Atom  21H    basis set group =>   5
Atom  22H    basis set group =>   5
Atom  23H    basis set group =>   5
Atom  24H    basis set group =>   5
Atom  25H    basis set group =>   5
Atom  26H    basis set group =>   5
Atom  27H    basis set group =>   5
Atom  28H    basis set group =>   5
Atom  29H    basis set group =>   5
Atom  30H    basis set group =>   5
Atom  31H    basis set group =>   5
Atom  32H    basis set group =>   5
Atom  33H    basis set group =>   5
Atom  34H    basis set group =>   5
Atom  35H    basis set group =>   5
---------------------------------
AUXILIARY/C BASIS SET INFORMATION
---------------------------------
There are 5 groups of distinct atoms

 Group   1 Type C   : 8s6p5d3f1g contracted to 8s6p5d3f1g pattern {11111111/111111/11111/111/1}
 Group   2 Type O   : 8s6p5d3f1g contracted to 8s6p5d3f1g pattern {11111111/111111/11111/111/1}
 Group   3 Type N   : 8s6p5d3f1g contracted to 8s6p5d3f1g pattern {11111111/111111/11111/111/1}
 Group   4 Type S   : 10s8p7d5f2g contracted to 10s8p7d5f2g pattern {1111111111/11111111/1111111/11111/11}
 Group   5 Type H   : 4s3p2d1f contracted to 4s3p2d1f pattern {1111/111/11/1}

Atom   0C    basis set group =>   1
Atom   1C    basis set group =>   1
Atom   2O    basis set group =>   2
Atom   3C    basis set group =>   1
Atom   4O    basis set group =>   2
Atom   5C    basis set group =>   1
Atom   6C    basis set group =>   1
Atom   7C    basis set group =>   1
Atom   8N    basis set group =>   3
Atom   9C    basis set group =>   1
Atom  10S    basis set group =>   4
Atom  11N    basis set group =>   3
Atom  12C    basis set group =>   1
Atom  13C    basis set group =>   1
Atom  14C    basis set group =>   1
Atom  15C    basis set group =>   1
Atom  16C    basis set group =>   1
Atom  17C    basis set group =>   1
Atom  18O    basis set group =>   2
Atom  19C    basis set group =>   1
Atom  20H    basis set group =>   5
Atom  21H    basis set group =>   5
Atom  22H    basis set group =>   5
Atom  23H    basis set group =>   5
Atom  24H    basis set group =>   5
Atom  25H    basis set group =>   5
Atom  26H    basis set group =>   5
Atom  27H    basis set group =>   5
Atom  28H    basis set group =>   5
Atom  29H    basis set group =>   5
Atom  30H    basis set group =>   5
Atom  31H    basis set group =>   5
Atom  32H    basis set group =>   5
Atom  33H    basis set group =>   5
Atom  34H    basis set group =>   5
Atom  35H    basis set group =>   5
------------------------------------------------------------------------------
                           ORCA GTO INTEGRAL CALCULATION
------------------------------------------------------------------------------
------------------------------------------------------------------------------
                   ___                                                        
                  /   \      - P O W E R E D   B Y -                         
                 /     \                                                     
                 |  |  |   _    _      __       _____    __    __             
                 |  |  |  | |  | |    /  \     |  _  \  |  |  /  |          
                  \  \/   | |  | |   /    \    | | | |  |  | /  /          
                 / \  \   | |__| |  /  /\  \   | |_| |  |  |/  /          
                |  |  |   |  __  | /  /__\  \  |    /   |      \           
                |  |  |   | |  | | |   __   |  |    \   |  |\   \          
                \     /   | |  | | |  |  |  |  | |\  \  |  | \   \       
                 \___/    |_|  |_| |__|  |__|  |_| \__\ |__|  \__/        
                                                                              
                      - O R C A' S   B I G   F R I E N D -                    
                                      &                                       
                       - I N T E G R A L  F E E D E R -                       
                                                                              
 v1 FN, 2020, v2 2021                                                         
------------------------------------------------------------------------------


Reading SHARK input file CONFS/Conf458.orca.SHARKINP.tmp ... ok
----------------------
SHARK INTEGRAL PACKAGE
----------------------

Number of atoms                             ...     36
Number of basis functions                   ...    828
Number of shells                            ...    298
Maximum angular momentum                    ...      3
Integral batch strategy                     ... SHARK/LIBINT Hybrid
RI-J (if used) integral strategy            ... SPLIT-RIJ (Revised 2003 algorithm where possible)
Printlevel                                  ...      1
Contraction scheme used                     ... SEGMENTED contraction
Coulomb Range Separation                    ... NOT USED
Exchange Range Separation                   ... NOT USED
Finite Nucleus Model                        ... NOT USED
Auxiliary Coulomb fitting basis             ... NOT available
Auxiliary J/K fitting basis                 ... NOT available
Auxiliary Correlation fitting basis         ... AVAILABLE
   # of basis functions in Aux-C            ...   2141
   # of shells in Aux-C                     ...    629
   Maximum angular momentum in Aux-C        ...      4
Auxiliary 'external' fitting basis          ... NOT available
Integral threshold                          ...     2.500000e-11
Primitive cut-off                           ...     2.500000e-12
Primitive pair pre-selection threshold      ...     2.500000e-12

Calculating pre-screening integrals         ... done (  0.6 sec) Dimension = 298
Organizing shell pair data                  ... done (  1.4 sec)
Shell pair information
Total number of shell pairs                 ...     44551
Shell pairs after pre-screening             ...     34656
Total number of primitive shell pairs       ...    234348
Primitive shell pairs kept                  ...     99325
          la=0 lb=0:   6873 shell pairs
          la=1 lb=0:   9593 shell pairs
          la=1 lb=1:   3389 shell pairs
          la=2 lb=0:   5545 shell pairs
          la=2 lb=1:   3821 shell pairs
          la=2 lb=2:   1095 shell pairs
          la=3 lb=0:   2003 shell pairs
          la=3 lb=1:   1390 shell pairs
          la=3 lb=2:    794 shell pairs
          la=3 lb=3:    153 shell pairs

Calculating one electron integrals          ... done (  0.4 sec)
Calculating RI/C V-Matrix + Cholesky decomp.... done (  1.2 sec)
Calculating Nuclear repulsion               ... done (  0.1 sec) ENN=   1735.542177292426 Eh

SHARK setup successfully completed in   4.0 seconds

Maximum memory used throughout the entire GTOINT-calculation: 518.3 MB
-------------------------------------------------------------------------------
                                 ORCA SCF
-------------------------------------------------------------------------------

------------
SCF SETTINGS
------------
Hamiltonian:
 Ab initio Hamiltonian  Method          .... Hartree-Fock(GTOs)


General Settings:
 Integral files         IntName         .... CONFS/Conf458.orca
 Hartree-Fock type      HFTyp           .... RHF
 Total Charge           Charge          ....    0
 Multiplicity           Mult            ....    1
 Number of Electrons    NEL             ....  154
 Basis Dimension        Dim             ....  828
 Nuclear Repulsion      ENuc            ....   1735.5421772924 Eh

Convergence Acceleration:
 DIIS                   CNVDIIS         .... on
   Start iteration      DIISMaxIt       ....    12
   Startup error        DIISStart       ....  0.200000
   # of expansion vecs  DIISMaxEq       ....     5
   Bias factor          DIISBfac        ....   1.050
   Max. coefficient     DIISMaxC        ....  10.000
 Trust-Rad. Augm. Hess. CNVTRAH         .... auto
   Auto Start mean grad. ratio tolernc. ....  1.125000
   Auto Start start iteration           ....    20
   Auto Start num. interpolation iter.  ....    10
   Max. Number of Micro iterations      ....    16
   Max. Number of Macro iterations      .... Maxiter - #DIIS iter
   Number of Davidson start vectors     ....     2
   Converg. threshold I  (grad. norm)   ....   1.000e-05
   Converg. threshold II (energy diff.) ....   1.000e-08
   Grad. Scal. Fac. for Micro threshold ....   0.100
   Minimum threshold for Micro iter.    ....   0.010
   NR start threshold (gradient norm)   ....   0.001
   Initial trust radius                 ....   0.400
   Minimum AH scaling param. (alpha)    ....   1.000
   Maximum AH scaling param. (alpha)    .... 1000.000
   Orbital update algorithm             .... Taylor
   White noise on init. David. guess    .... on
   Maximum white noise                  ....   0.010
   Quad. conv. algorithm                .... NR
 SOSCF                  CNVSOSCF        .... on
   Start iteration      SOSCFMaxIt      ....   150
   Startup grad/error   SOSCFStart      ....  0.003300
 Level Shifting         CNVShift        .... on
   Level shift para.    LevelShift      ....    0.2500
   Turn off err/grad.   ShiftErr        ....    0.0010
 Zerner damping         CNVZerner       .... off
 Static damping         CNVDamp         .... on
   Fraction old density DampFac         ....    0.7000
   Max. Damping (<1)    DampMax         ....    0.9800
   Min. Damping (>=0)   DampMin         ....    0.0000
   Turn off err/grad.   DampErr         ....    0.1000
 Fernandez-Rico         CNVRico         .... off

SCF Procedure:
 Maximum # iterations   MaxIter         ....   125
 SCF integral mode      SCFMode         .... Direct
   Integral package                     .... SHARK and LIBINT hybrid scheme
 Reset frequency        DirectResetFreq ....    20
 Integral Threshold     Thresh          ....  2.500e-11 Eh
 Primitive CutOff       TCut            ....  2.500e-12 Eh

Convergence Tolerance:
 Convergence Check Mode ConvCheckMode   .... Total+1el-Energy
 Convergence forced     ConvForced      .... 1
 Energy Change          TolE            ....  1.000e-08 Eh
 1-El. energy change                    ....  1.000e-05 Eh
 Orbital Gradient       TolG            ....  1.000e-05
 Orbital Rotation angle TolX            ....  1.000e-05
 DIIS Error             TolErr          ....  5.000e-07


Diagonalization of the overlap matrix:
Smallest eigenvalue                        ... 3.025e-05
Time for diagonalization                   ...    0.141 sec
Threshold for overlap eigenvalues          ... 1.000e-08
Number of eigenvalues below threshold      ... 0
Time for construction of square roots      ...    0.075 sec
Total time needed                          ...    0.219 sec

Time for model grid setup =    1.600 sec

------------------------------
INITIAL GUESS: MODEL POTENTIAL
------------------------------
Loading Hartree-Fock densities                     ... done
Calculating cut-offs                               ... done
Initializing the effective Hamiltonian             ... done
Setting up the integral package (SHARK)            ... done
Starting the Coulomb interaction                   ... done (   4.8 sec)
Reading the grid                                   ... done
Mapping shells                                     ... done
Starting the XC term evaluation                    ... done (   1.6 sec)
Transforming the Hamiltonian                       ... done (   0.1 sec)
Diagonalizing the Hamiltonian                      ... done (   0.1 sec)
Back transforming the eigenvectors                 ... done (   0.0 sec)
Now organizing SCF variables                       ... done
                      ------------------
                      INITIAL GUESS DONE (   8.3 sec)
                      ------------------
--------------
SCF ITERATIONS
--------------
ITER       Energy         Delta-E        Max-DP      RMS-DP      [F,P]     Damp
               ***  Starting incremental Fock matrix formation  ***
  0  -1270.0014558520   0.000000000000 0.04934677  0.00044015  0.3174085 0.7000
  1  -1270.2673778057  -0.265921953770 0.03609644  0.00035519  0.1893353 0.7000
                               ***Turning on DIIS***
  2  -1270.4330775215  -0.165699715743 0.02584395  0.00023701  0.1096271 0.7000
  3  -1272.5716045156  -2.138526994142 0.06313116  0.00050888  0.0828374 0.0000
  4  -1270.7424679089   1.829136606728 0.00821958  0.00009905  0.0068850 0.0000
  5  -1270.7980406873  -0.055572778410 0.00442476  0.00005277  0.0051134 0.0000
                      *** Initiating the SOSCF procedure ***
                           *** Shutting down DIIS ***
                      *** Re-Reading the Fockian *** 
                      *** Removing any level shift *** 
ITER      Energy       Delta-E        Grad      Rot      Max-DP    RMS-DP
  6  -1270.77839279   0.0196478981  0.001812  0.001812  0.002149  0.000027
               *** Restarting incremental Fock matrix formation ***
  7  -1270.79337244  -0.0149796552  0.001066  0.002760  0.001398  0.000017
  8  -1270.79342295  -0.0000505042  0.000471  0.003214  0.001465  0.000018
  9  -1270.79344232  -0.0000193736  0.000145  0.000275  0.000355  0.000005
 10  -1270.79344495  -0.0000026232  0.000050  0.000144  0.000126  0.000002
 11  -1270.79344521  -0.0000002630  0.000027  0.000152  0.000077  0.000001
 12  -1270.79344529  -0.0000000802  0.000011  0.000046  0.000036  0.000000
 13  -1270.79344529  -0.0000000039  0.000003  0.000012  0.000006  0.000000
                  ***Gradient check signals convergence***
              ***Rediagonalizing the Fockian in SOSCF/NRSCF***

               *****************************************************
               *                     SUCCESS                       *
               *           SCF CONVERGED AFTER  14 CYCLES          *
               *****************************************************


----------------
TOTAL SCF ENERGY
----------------

Total Energy       :        -1270.79344528 Eh          -34580.04766 eV

Components:
Nuclear Repulsion  :         1735.54217729 Eh           47226.50359 eV
Electronic Energy  :        -3006.33562258 Eh          -81806.55125 eV
One Electron Energy:        -5192.12454615 Eh         -141284.89169 eV
Two Electron Energy:         2185.78892357 Eh           59478.34043 eV

Virial components:
Potential Energy   :        -2539.75843783 Eh          -69110.34060 eV
Kinetic Energy     :         1268.96499255 Eh           34530.29293 eV
Virial Ratio       :            2.00144090


---------------
SCF CONVERGENCE
---------------

  Last Energy change         ...    9.3200e-09  Tolerance :   1.0000e-08
  Last MAX-Density change    ...    2.1954e-06  Tolerance :   1.0000e-07
  Last RMS-Density change    ...    3.2060e-08  Tolerance :   5.0000e-09
  Last Orbital Gradient      ...    8.7684e-07  Tolerance :   1.0000e-05
  Last Orbital Rotation      ...    2.2454e-06  Tolerance :   1.0000e-05

             **** THE GBW FILE WAS UPDATED (CONFS/Conf458.orca.gbw) ****
             **** DENSITY CONFS/Conf458.orca.scfp WAS UPDATED ****
             **** ENERGY FILE WAS UPDATED (CONFS/Conf458.orca.en.tmp) ****
             **** THE GBW FILE WAS UPDATED (CONFS/Conf458.orca.gbw) ****
             **** DENSITY CONFS/Conf458.orca.scfp WAS UPDATED ****
----------------
ORBITAL ENERGIES
----------------

  NO   OCC          E(Eh)            E(eV) 
   0   2.0000     -91.890758     -2500.4746 
   1   2.0000     -20.601077      -560.5838 
   2   2.0000     -20.581153      -560.0416 
   3   2.0000     -20.546176      -559.0899 
   4   2.0000     -15.631085      -425.3435 
   5   2.0000     -15.609585      -424.7584 
   6   2.0000     -11.393650      -310.0370 
   7   2.0000     -11.385398      -309.8124 
   8   2.0000     -11.337319      -308.5041 
   9   2.0000     -11.318476      -307.9914 
  10   2.0000     -11.311659      -307.8059 
  11   2.0000     -11.298744      -307.4545 
  12   2.0000     -11.263653      -306.4996 
  13   2.0000     -11.259932      -306.3983 
  14   2.0000     -11.259434      -306.3848 
  15   2.0000     -11.253436      -306.2216 
  16   2.0000     -11.247920      -306.0715 
  17   2.0000     -11.242588      -305.9264 
  18   2.0000     -11.242463      -305.9230 
  19   2.0000     -11.224354      -305.4302 
  20   2.0000      -8.895788      -242.0667 
  21   2.0000      -6.577354      -178.9789 
  22   2.0000      -6.575359      -178.9246 
  23   2.0000      -6.574764      -178.9084 
  24   2.0000      -1.443063       -39.2677 
  25   2.0000      -1.420767       -38.6610 
  26   2.0000      -1.349831       -36.7308 
  27   2.0000      -1.342133       -36.5213 
  28   2.0000      -1.240483       -33.7553 
  29   2.0000      -1.161558       -31.6076 
  30   2.0000      -1.121291       -30.5119 
  31   2.0000      -1.045734       -28.4559 
  32   2.0000      -1.030766       -28.0486 
  33   2.0000      -1.020036       -27.7566 
  34   2.0000      -0.998687       -27.1757 
  35   2.0000      -0.986477       -26.8434 
  36   2.0000      -0.925169       -25.1751 
  37   2.0000      -0.896419       -24.3928 
  38   2.0000      -0.848917       -23.1002 
  39   2.0000      -0.843037       -22.9402 
  40   2.0000      -0.838559       -22.8184 
  41   2.0000      -0.818975       -22.2855 
  42   2.0000      -0.744691       -20.2641 
  43   2.0000      -0.734682       -19.9917 
  44   2.0000      -0.720611       -19.6088 
  45   2.0000      -0.700127       -19.0514 
  46   2.0000      -0.691402       -18.8140 
  47   2.0000      -0.672626       -18.3031 
  48   2.0000      -0.671097       -18.2615 
  49   2.0000      -0.660252       -17.9664 
  50   2.0000      -0.653734       -17.7890 
  51   2.0000      -0.644606       -17.5406 
  52   2.0000      -0.636337       -17.3156 
  53   2.0000      -0.626615       -17.0511 
  54   2.0000      -0.611485       -16.6394 
  55   2.0000      -0.603579       -16.4242 
  56   2.0000      -0.601085       -16.3563 
  57   2.0000      -0.581239       -15.8163 
  58   2.0000      -0.572162       -15.5693 
  59   2.0000      -0.566101       -15.4044 
  60   2.0000      -0.545629       -14.8473 
  61   2.0000      -0.544176       -14.8078 
  62   2.0000      -0.534614       -14.5476 
  63   2.0000      -0.529086       -14.3972 
  64   2.0000      -0.528330       -14.3766 
  65   2.0000      -0.515890       -14.0381 
  66   2.0000      -0.504448       -13.7267 
  67   2.0000      -0.495016       -13.4701 
  68   2.0000      -0.484697       -13.1893 
  69   2.0000      -0.463490       -12.6122 
  70   2.0000      -0.454959       -12.3801 
  71   2.0000      -0.442451       -12.0397 
  72   2.0000      -0.356620        -9.7041 
  73   2.0000      -0.353221        -9.6116 
  74   2.0000      -0.330341        -8.9890 
  75   2.0000      -0.326083        -8.8732 
  76   2.0000      -0.317843        -8.6490 
  77   0.0000       0.069316         1.8862 
  78   0.0000       0.101604         2.7648 
  79   0.0000       0.121597         3.3088 
  80   0.0000       0.128811         3.5051 
  81   0.0000       0.133558         3.6343 
  82   0.0000       0.140173         3.8143 
  83   0.0000       0.149352         4.0641 
  84   0.0000       0.152959         4.1622 
  85   0.0000       0.158969         4.3258 
  86   0.0000       0.170014         4.6263 
  87   0.0000       0.181160         4.9296 
  88   0.0000       0.188887         5.1399 
  89   0.0000       0.191844         5.2203 
  90   0.0000       0.200405         5.4533 
  91   0.0000       0.203024         5.5246 
  92   0.0000       0.220600         6.0028 
  93   0.0000       0.230043         6.2598 
  94   0.0000       0.233842         6.3632 
  95   0.0000       0.241599         6.5743 
  96   0.0000       0.245336         6.6759 
  97   0.0000       0.254732         6.9316 
  98   0.0000       0.265201         7.2165 
  99   0.0000       0.290488         7.9046 
 100   0.0000       0.291393         7.9292 
 101   0.0000       0.305287         8.3073 
 102   0.0000       0.311919         8.4877 
 103   0.0000       0.315652         8.5893 
 104   0.0000       0.326490         8.8842 
 105   0.0000       0.332492         9.0476 
 106   0.0000       0.340241         9.2584 
 107   0.0000       0.350972         9.5504 
 108   0.0000       0.362910         9.8753 
 109   0.0000       0.368520        10.0279 
 110   0.0000       0.370301        10.0764 
 111   0.0000       0.377002        10.2588 
 112   0.0000       0.380470        10.3531 
 113   0.0000       0.393824        10.7165 
 114   0.0000       0.399389        10.8679 
 115   0.0000       0.402750        10.9594 
 116   0.0000       0.416170        11.3246 
 117   0.0000       0.427848        11.6423 
 118   0.0000       0.430434        11.7127 
 119   0.0000       0.437716        11.9109 
 120   0.0000       0.446204        12.1418 
 121   0.0000       0.450420        12.2566 
 122   0.0000       0.458210        12.4685 
 123   0.0000       0.461106        12.5473 
 124   0.0000       0.469335        12.7712 
 125   0.0000       0.471247        12.8233 
 126   0.0000       0.478901        13.0316 
 127   0.0000       0.480278        13.0690 
 128   0.0000       0.491749        13.3812 
 129   0.0000       0.497854        13.5473 
 130   0.0000       0.502952        13.6860 
 131   0.0000       0.511129        13.9085 
 132   0.0000       0.512859        13.9556 
 133   0.0000       0.519304        14.1310 
 134   0.0000       0.526023        14.3138 
 135   0.0000       0.531544        14.4641 
 136   0.0000       0.538595        14.6559 
 137   0.0000       0.543697        14.7948 
 138   0.0000       0.545391        14.8408 
 139   0.0000       0.550891        14.9905 
 140   0.0000       0.558867        15.2075 
 141   0.0000       0.562773        15.3138 
 142   0.0000       0.564618        15.3640 
 143   0.0000       0.571997        15.5648 
 144   0.0000       0.572982        15.5916 
 145   0.0000       0.587306        15.9814 
 146   0.0000       0.589482        16.0406 
 147   0.0000       0.594756        16.1841 
 148   0.0000       0.597174        16.2499 
 149   0.0000       0.600442        16.3389 
 150   0.0000       0.605071        16.4648 
 151   0.0000       0.607651        16.5350 
 152   0.0000       0.613147        16.6846 
 153   0.0000       0.618067        16.8185 
 154   0.0000       0.621105        16.9011 
 155   0.0000       0.628546        17.1036 
 156   0.0000       0.632857        17.2209 
 157   0.0000       0.635451        17.2915 
 158   0.0000       0.637480        17.3467 
 159   0.0000       0.646574        17.5942 
 160   0.0000       0.651248        17.7214 
 161   0.0000       0.656059        17.8523 
 162   0.0000       0.662942        18.0396 
 163   0.0000       0.666317        18.1314 
 164   0.0000       0.673272        18.3207 
 165   0.0000       0.677769        18.4430 
 166   0.0000       0.684382        18.6230 
 167   0.0000       0.685812        18.6619 
 168   0.0000       0.692477        18.8433 
 169   0.0000       0.697457        18.9788 
 170   0.0000       0.703407        19.1407 
 171   0.0000       0.713714        19.4211 
 172   0.0000       0.718127        19.5412 
 173   0.0000       0.723623        19.6908 
 174   0.0000       0.725041        19.7294 
 175   0.0000       0.732715        19.9382 
 176   0.0000       0.737315        20.0634 
 177   0.0000       0.741028        20.1644 
 178   0.0000       0.752847        20.4860 
 179   0.0000       0.764488        20.8028 
 180   0.0000       0.773847        21.0574 
 181   0.0000       0.778341        21.1797 
 182   0.0000       0.788005        21.4427 
 183   0.0000       0.799957        21.7679 
 184   0.0000       0.808253        21.9937 
 185   0.0000       0.811209        22.0741 
 186   0.0000       0.822513        22.3817 
 187   0.0000       0.829573        22.5738 
 188   0.0000       0.838900        22.8276 
 189   0.0000       0.845786        23.0150 
 190   0.0000       0.851095        23.1595 
 191   0.0000       0.853296        23.2194 
 192   0.0000       0.858940        23.3730 
 193   0.0000       0.865619        23.5547 
 194   0.0000       0.874118        23.7860 
 195   0.0000       0.880104        23.9489 
 196   0.0000       0.891807        24.2673 
 197   0.0000       0.900069        24.4921 
 198   0.0000       0.904172        24.6038 
 199   0.0000       0.910767        24.7832 
 200   0.0000       0.911921        24.8146 
 201   0.0000       0.920379        25.0448 
 202   0.0000       0.935050        25.4440 
 203   0.0000       0.937273        25.5045 
 204   0.0000       0.945251        25.7216 
 205   0.0000       0.951467        25.8907 
 206   0.0000       0.958103        26.0713 
 207   0.0000       0.964299        26.2399 
 208   0.0000       0.973352        26.4863 
 209   0.0000       0.981474        26.7073 
 210   0.0000       0.989618        26.9289 
 211   0.0000       0.994157        27.0524 
 212   0.0000       1.004299        27.3284 
 213   0.0000       1.008057        27.4306 
 214   0.0000       1.020581        27.7714 
 215   0.0000       1.022144        27.8140 
 216   0.0000       1.026158        27.9232 
 217   0.0000       1.034980        28.1632 
 218   0.0000       1.040877        28.3237 
 219   0.0000       1.046842        28.4860 
 220   0.0000       1.060241        28.8506 
 221   0.0000       1.064058        28.9545 
 222   0.0000       1.074868        29.2486 
 223   0.0000       1.077764        29.3274 
 224   0.0000       1.084505        29.5109 
 225   0.0000       1.091800        29.7094 
 226   0.0000       1.107504        30.1367 
 227   0.0000       1.118912        30.4471 
 228   0.0000       1.127628        30.6843 
 229   0.0000       1.133255        30.8374 
 230   0.0000       1.139147        30.9978 
 231   0.0000       1.144090        31.1323 
 232   0.0000       1.146821        31.2066 
 233   0.0000       1.154498        31.4155 
 234   0.0000       1.161860        31.6158 
 235   0.0000       1.165247        31.7080 
 236   0.0000       1.172279        31.8993 
 237   0.0000       1.190300        32.3897 
 238   0.0000       1.192382        32.4464 
 239   0.0000       1.194796        32.5120 
 240   0.0000       1.198665        32.6173 
 241   0.0000       1.208278        32.8789 
 242   0.0000       1.212078        32.9823 
 243   0.0000       1.217906        33.1409 
 244   0.0000       1.223604        33.2960 
 245   0.0000       1.226638        33.3785 
 246   0.0000       1.239524        33.7292 
 247   0.0000       1.254002        34.1231 
 248   0.0000       1.255845        34.1733 
 249   0.0000       1.261029        34.3143 
 250   0.0000       1.263142        34.3718 
 251   0.0000       1.278658        34.7941 
 252   0.0000       1.279868        34.8270 
 253   0.0000       1.295396        35.2495 
 254   0.0000       1.297841        35.3161 
 255   0.0000       1.306345        35.5475 
 256   0.0000       1.321251        35.9531 
 257   0.0000       1.331214        36.2242 
 258   0.0000       1.342006        36.5178 
 259   0.0000       1.343988        36.5718 
 260   0.0000       1.355387        36.8820 
 261   0.0000       1.359996        37.0074 
 262   0.0000       1.373516        37.3753 
 263   0.0000       1.376106        37.4458 
 264   0.0000       1.395077        37.9620 
 265   0.0000       1.398725        38.0612 
 266   0.0000       1.405671        38.2502 
 267   0.0000       1.411003        38.3953 
 268   0.0000       1.412259        38.4295 
 269   0.0000       1.416106        38.5342 
 270   0.0000       1.429167        38.8896 
 271   0.0000       1.435475        39.0613 
 272   0.0000       1.445824        39.3429 
 273   0.0000       1.447755        39.3954 
 274   0.0000       1.462690        39.8018 
 275   0.0000       1.471785        40.0493 
 276   0.0000       1.476620        40.1809 
 277   0.0000       1.481199        40.3055 
 278   0.0000       1.487025        40.4640 
 279   0.0000       1.494668        40.6720 
 280   0.0000       1.496787        40.7296 
 281   0.0000       1.510812        41.1113 
 282   0.0000       1.512959        41.1697 
 283   0.0000       1.520709        41.3806 
 284   0.0000       1.524115        41.4733 
 285   0.0000       1.525981        41.5241 
 286   0.0000       1.533245        41.7217 
 287   0.0000       1.543747        42.0075 
 288   0.0000       1.553891        42.2835 
 289   0.0000       1.555576        42.3294 
 290   0.0000       1.560288        42.4576 
 291   0.0000       1.567474        42.6531 
 292   0.0000       1.573525        42.8178 
 293   0.0000       1.580099        42.9967 
 294   0.0000       1.592602        43.3369 
 295   0.0000       1.597021        43.4572 
 296   0.0000       1.604418        43.6584 
 297   0.0000       1.612411        43.8759 
 298   0.0000       1.615933        43.9718 
 299   0.0000       1.632282        44.4166 
 300   0.0000       1.640322        44.6354 
 301   0.0000       1.650377        44.9090 
 302   0.0000       1.663331        45.2615 
 303   0.0000       1.672541        45.5122 
 304   0.0000       1.677149        45.6375 
 305   0.0000       1.683792        45.8183 
 306   0.0000       1.702121        46.3171 
 307   0.0000       1.711997        46.5858 
 308   0.0000       1.716577        46.7104 
 309   0.0000       1.718614        46.7659 
 310   0.0000       1.723229        46.8915 
 311   0.0000       1.740911        47.3726 
 312   0.0000       1.744548        47.4716 
 313   0.0000       1.756176        47.7880 
 314   0.0000       1.774385        48.2835 
 315   0.0000       1.783038        48.5189 
 316   0.0000       1.789653        48.6989 
 317   0.0000       1.794214        48.8230 
 318   0.0000       1.806296        49.1518 
 319   0.0000       1.814589        49.3775 
 320   0.0000       1.828315        49.7510 
 321   0.0000       1.843502        50.1642 
 322   0.0000       1.843998        50.1777 
 323   0.0000       1.855974        50.5036 
 324   0.0000       1.875124        51.0247 
 325   0.0000       1.886878        51.3446 
 326   0.0000       1.901092        51.7313 
 327   0.0000       1.905789        51.8591 
 328   0.0000       1.916563        52.1523 
 329   0.0000       1.926321        52.4179 
 330   0.0000       1.934392        52.6375 
 331   0.0000       1.940719        52.8096 
 332   0.0000       1.953842        53.1668 
 333   0.0000       1.962045        53.3899 
 334   0.0000       1.980523        53.8928 
 335   0.0000       1.987771        54.0900 
 336   0.0000       2.001239        54.4565 
 337   0.0000       2.005926        54.5840 
 338   0.0000       2.023054        55.0501 
 339   0.0000       2.030642        55.2566 
 340   0.0000       2.039870        55.5077 
 341   0.0000       2.055618        55.9362 
 342   0.0000       2.066879        56.2426 
 343   0.0000       2.077958        56.5441 
 344   0.0000       2.109703        57.4079 
 345   0.0000       2.122227        57.7487 
 346   0.0000       2.125697        57.8432 
 347   0.0000       2.139795        58.2268 
 348   0.0000       2.143601        58.3303 
 349   0.0000       2.156780        58.6890 
 350   0.0000       2.164182        58.8904 
 351   0.0000       2.195080        59.7312 
 352   0.0000       2.216693        60.3193 
 353   0.0000       2.226354        60.5822 
 354   0.0000       2.232185        60.7408 
 355   0.0000       2.265620        61.6506 
 356   0.0000       2.267829        61.7108 
 357   0.0000       2.286734        62.2252 
 358   0.0000       2.295740        62.4703 
 359   0.0000       2.314381        62.9775 
 360   0.0000       2.317791        63.0703 
 361   0.0000       2.329729        63.3952 
 362   0.0000       2.345047        63.8120 
 363   0.0000       2.364981        64.3544 
 364   0.0000       2.368952        64.4625 
 365   0.0000       2.384687        64.8906 
 366   0.0000       2.396185        65.2035 
 367   0.0000       2.408138        65.5288 
 368   0.0000       2.417680        65.7884 
 369   0.0000       2.433686        66.2240 
 370   0.0000       2.460261        66.9471 
 371   0.0000       2.466293        67.1112 
 372   0.0000       2.480458        67.4967 
 373   0.0000       2.482438        67.5506 
 374   0.0000       2.493490        67.8513 
 375   0.0000       2.507471        68.2318 
 376   0.0000       2.517288        68.4989 
 377   0.0000       2.526851        68.7591 
 378   0.0000       2.552458        69.4559 
 379   0.0000       2.566238        69.8309 
 380   0.0000       2.577893        70.1480 
 381   0.0000       2.588119        70.4263 
 382   0.0000       2.605010        70.8859 
 383   0.0000       2.611939        71.0745 
 384   0.0000       2.631494        71.6066 
 385   0.0000       2.634709        71.6941 
 386   0.0000       2.641905        71.8899 
 387   0.0000       2.653662        72.2098 
 388   0.0000       2.667798        72.5945 
 389   0.0000       2.676104        72.8205 
 390   0.0000       2.679491        72.9127 
 391   0.0000       2.698798        73.4380 
 392   0.0000       2.717769        73.9543 
 393   0.0000       2.721948        74.0680 
 394   0.0000       2.733691        74.3875 
 395   0.0000       2.737547        74.4924 
 396   0.0000       2.749701        74.8232 
 397   0.0000       2.752972        74.9122 
 398   0.0000       2.772876        75.4538 
 399   0.0000       2.778130        75.5968 
 400   0.0000       2.787756        75.8587 
 401   0.0000       2.812853        76.5416 
 402   0.0000       2.817519        76.6686 
 403   0.0000       2.828951        76.9797 
 404   0.0000       2.833189        77.0950 
 405   0.0000       2.841185        77.3126 
 406   0.0000       2.850979        77.5791 
 407   0.0000       2.855724        77.7082 
 408   0.0000       2.863063        77.9079 
 409   0.0000       2.873127        78.1818 
 410   0.0000       2.890419        78.6523 
 411   0.0000       2.898285        78.8664 
 412   0.0000       2.909817        79.1801 
 413   0.0000       2.915647        79.3388 
 414   0.0000       2.920910        79.4820 
 415   0.0000       2.922387        79.5222 
 416   0.0000       2.931935        79.7820 
 417   0.0000       2.942793        80.0775 
 418   0.0000       2.957108        80.4670 
 419   0.0000       2.968791        80.7849 
 420   0.0000       2.978638        81.0529 
 421   0.0000       2.980892        81.1142 
 422   0.0000       2.984056        81.2003 
 423   0.0000       2.990594        81.3782 
 424   0.0000       3.006184        81.8024 
 425   0.0000       3.010573        81.9218 
 426   0.0000       3.018954        82.1499 
 427   0.0000       3.032989        82.5318 
 428   0.0000       3.040716        82.7421 
 429   0.0000       3.047796        82.9348 
 430   0.0000       3.050156        82.9990 
 431   0.0000       3.057324        83.1940 
 432   0.0000       3.062746        83.3416 
 433   0.0000       3.068806        83.5065 
 434   0.0000       3.074814        83.6700 
 435   0.0000       3.084717        83.9394 
 436   0.0000       3.091897        84.1348 
 437   0.0000       3.097006        84.2738 
 438   0.0000       3.106832        84.5412 
 439   0.0000       3.121191        84.9319 
 440   0.0000       3.122846        84.9770 
 441   0.0000       3.129233        85.1508 
 442   0.0000       3.132720        85.2456 
 443   0.0000       3.140911        85.4685 
 444   0.0000       3.143565        85.5407 
 445   0.0000       3.155547        85.8668 
 446   0.0000       3.160567        86.0034 
 447   0.0000       3.171560        86.3025 
 448   0.0000       3.181634        86.5767 
 449   0.0000       3.195249        86.9471 
 450   0.0000       3.200063        87.0781 
 451   0.0000       3.214545        87.4722 
 452   0.0000       3.217412        87.5502 
 453   0.0000       3.223051        87.7037 
 454   0.0000       3.233130        87.9779 
 455   0.0000       3.236408        88.0671 
 456   0.0000       3.242644        88.2368 
 457   0.0000       3.253144        88.5225 
 458   0.0000       3.255353        88.5826 
 459   0.0000       3.268783        88.9481 
 460   0.0000       3.276035        89.1455 
 461   0.0000       3.277034        89.1726 
 462   0.0000       3.282713        89.3272 
 463   0.0000       3.293075        89.6091 
 464   0.0000       3.300522        89.8118 
 465   0.0000       3.307328        89.9970 
 466   0.0000       3.313189        90.1565 
 467   0.0000       3.317147        90.2642 
 468   0.0000       3.328991        90.5865 
 469   0.0000       3.337744        90.8246 
 470   0.0000       3.344204        91.0004 
 471   0.0000       3.346694        91.0682 
 472   0.0000       3.353882        91.2638 
 473   0.0000       3.357403        91.3596 
 474   0.0000       3.360317        91.4389 
 475   0.0000       3.368437        91.6598 
 476   0.0000       3.374313        91.8197 
 477   0.0000       3.386398        92.1486 
 478   0.0000       3.386931        92.1631 
 479   0.0000       3.403136        92.6040 
 480   0.0000       3.411935        92.8435 
 481   0.0000       3.414031        92.9005 
 482   0.0000       3.417791        93.0028 
 483   0.0000       3.426383        93.2366 
 484   0.0000       3.428138        93.2844 
 485   0.0000       3.429476        93.3208 
 486   0.0000       3.433008        93.4169 
 487   0.0000       3.435903        93.4957 
 488   0.0000       3.438250        93.5595 
 489   0.0000       3.445504        93.7569 
 490   0.0000       3.452292        93.9417 
 491   0.0000       3.452971        93.9601 
 492   0.0000       3.462467        94.2185 
 493   0.0000       3.469701        94.4154 
 494   0.0000       3.478033        94.6421 
 495   0.0000       3.483125        94.7806 
 496   0.0000       3.491868        95.0185 
 497   0.0000       3.496660        95.1490 
 498   0.0000       3.501597        95.2833 
 499   0.0000       3.515741        95.6682 
 500   0.0000       3.521254        95.8182 
 501   0.0000       3.530394        96.0669 
 502   0.0000       3.542470        96.3955 
 503   0.0000       3.545493        96.4778 
 504   0.0000       3.553858        96.7054 
 505   0.0000       3.556019        96.7642 
 506   0.0000       3.559494        96.8588 
 507   0.0000       3.568050        97.0916 
 508   0.0000       3.580048        97.4181 
 509   0.0000       3.584908        97.5503 
 510   0.0000       3.593190        97.7757 
 511   0.0000       3.602064        98.0172 
 512   0.0000       3.607888        98.1756 
 513   0.0000       3.618936        98.4762 
 514   0.0000       3.624619        98.6309 
 515   0.0000       3.627381        98.7061 
 516   0.0000       3.634084        98.8884 
 517   0.0000       3.637102        98.9706 
 518   0.0000       3.645195        99.1908 
 519   0.0000       3.651077        99.3509 
 520   0.0000       3.656583        99.5007 
 521   0.0000       3.663859        99.6987 
 522   0.0000       3.666176        99.7617 
 523   0.0000       3.672909        99.9449 
 524   0.0000       3.679436       100.1225 
 525   0.0000       3.684365       100.2567 
 526   0.0000       3.692041       100.4655 
 527   0.0000       3.706729       100.8652 
 528   0.0000       3.711170       100.9861 
 529   0.0000       3.714290       101.0710 
 530   0.0000       3.720551       101.2413 
 531   0.0000       3.730651       101.5162 
 532   0.0000       3.737176       101.6937 
 533   0.0000       3.745742       101.9268 
 534   0.0000       3.753982       102.1510 
 535   0.0000       3.755502       102.1924 
 536   0.0000       3.756715       102.2254 
 537   0.0000       3.763652       102.4142 
 538   0.0000       3.766321       102.4868 
 539   0.0000       3.778562       102.8199 
 540   0.0000       3.791913       103.1832 
 541   0.0000       3.798206       103.3544 
 542   0.0000       3.799878       103.3999 
 543   0.0000       3.807257       103.6007 
 544   0.0000       3.815205       103.8170 
 545   0.0000       3.818736       103.9131 
 546   0.0000       3.830127       104.2231 
 547   0.0000       3.830874       104.2434 
 548   0.0000       3.840181       104.4967 
 549   0.0000       3.843750       104.5937 
 550   0.0000       3.850927       104.7891 
 551   0.0000       3.872501       105.3761 
 552   0.0000       3.875327       105.4530 
 553   0.0000       3.884525       105.7033 
 554   0.0000       3.902610       106.1954 
 555   0.0000       3.906260       106.2947 
 556   0.0000       3.915795       106.5542 
 557   0.0000       3.918950       106.6400 
 558   0.0000       3.926538       106.8465 
 559   0.0000       3.935724       107.0965 
 560   0.0000       3.946477       107.3891 
 561   0.0000       3.956983       107.6750 
 562   0.0000       3.965491       107.9065 
 563   0.0000       3.973030       108.1116 
 564   0.0000       3.983853       108.4061 
 565   0.0000       3.991114       108.6037 
 566   0.0000       3.997823       108.7863 
 567   0.0000       4.006634       109.0260 
 568   0.0000       4.017042       109.3093 
 569   0.0000       4.019210       109.3683 
 570   0.0000       4.029564       109.6500 
 571   0.0000       4.045436       110.0819 
 572   0.0000       4.052522       110.2747 
 573   0.0000       4.061391       110.5161 
 574   0.0000       4.069759       110.7438 
 575   0.0000       4.071077       110.7796 
 576   0.0000       4.079549       111.0102 
 577   0.0000       4.091714       111.3412 
 578   0.0000       4.097602       111.5014 
 579   0.0000       4.109839       111.8344 
 580   0.0000       4.114901       111.9721 
 581   0.0000       4.129105       112.3587 
 582   0.0000       4.135568       112.5345 
 583   0.0000       4.142706       112.7288 
 584   0.0000       4.152148       112.9857 
 585   0.0000       4.155287       113.0711 
 586   0.0000       4.162227       113.2600 
 587   0.0000       4.173430       113.5648 
 588   0.0000       4.176633       113.6520 
 589   0.0000       4.180926       113.7688 
 590   0.0000       4.189734       114.0085 
 591   0.0000       4.196061       114.1806 
 592   0.0000       4.199792       114.2821 
 593   0.0000       4.211330       114.5961 
 594   0.0000       4.219625       114.8218 
 595   0.0000       4.223950       114.9395 
 596   0.0000       4.231818       115.1536 
 597   0.0000       4.234701       115.2321 
 598   0.0000       4.238577       115.3375 
 599   0.0000       4.254002       115.7573 
 600   0.0000       4.258494       115.8795 
 601   0.0000       4.262779       115.9961 
 602   0.0000       4.272531       116.2615 
 603   0.0000       4.279043       116.4387 
 604   0.0000       4.296472       116.9129 
 605   0.0000       4.309707       117.2731 
 606   0.0000       4.319012       117.5263 
 607   0.0000       4.321816       117.6026 
 608   0.0000       4.325311       117.6977 
 609   0.0000       4.332791       117.9012 
 610   0.0000       4.335139       117.9651 
 611   0.0000       4.344499       118.2198 
 612   0.0000       4.352483       118.4371 
 613   0.0000       4.357566       118.5754 
 614   0.0000       4.366413       118.8161 
 615   0.0000       4.378964       119.1577 
 616   0.0000       4.386623       119.3661 
 617   0.0000       4.395869       119.6177 
 618   0.0000       4.410700       120.0212 
 619   0.0000       4.412818       120.0789 
 620   0.0000       4.419249       120.2539 
 621   0.0000       4.424227       120.3893 
 622   0.0000       4.428311       120.5005 
 623   0.0000       4.441829       120.8683 
 624   0.0000       4.449591       121.0795 
 625   0.0000       4.458279       121.3159 
 626   0.0000       4.467897       121.5777 
 627   0.0000       4.478258       121.8596 
 628   0.0000       4.483117       121.9918 
 629   0.0000       4.495598       122.3314 
 630   0.0000       4.508348       122.6784 
 631   0.0000       4.513067       122.8068 
 632   0.0000       4.534102       123.3792 
 633   0.0000       4.535695       123.4225 
 634   0.0000       4.541848       123.5900 
 635   0.0000       4.548512       123.7713 
 636   0.0000       4.555920       123.9729 
 637   0.0000       4.559531       124.0711 
 638   0.0000       4.572406       124.4215 
 639   0.0000       4.581432       124.6671 
 640   0.0000       4.597244       125.0974 
 641   0.0000       4.604241       125.2878 
 642   0.0000       4.610414       125.4557 
 643   0.0000       4.617426       125.6465 
 644   0.0000       4.626311       125.8883 
 645   0.0000       4.630790       126.0102 
 646   0.0000       4.635751       126.1452 
 647   0.0000       4.641640       126.3054 
 648   0.0000       4.647827       126.4738 
 649   0.0000       4.653801       126.6364 
 650   0.0000       4.663263       126.8938 
 651   0.0000       4.665400       126.9520 
 652   0.0000       4.676270       127.2478 
 653   0.0000       4.687490       127.5531 
 654   0.0000       4.701927       127.9459 
 655   0.0000       4.708074       128.1132 
 656   0.0000       4.718724       128.4030 
 657   0.0000       4.730116       128.7130 
 658   0.0000       4.732060       128.7659 
 659   0.0000       4.755796       129.4118 
 660   0.0000       4.762876       129.6044 
 661   0.0000       4.780476       130.0834 
 662   0.0000       4.787113       130.2640 
 663   0.0000       4.802220       130.6751 
 664   0.0000       4.815711       131.0422 
 665   0.0000       4.821099       131.1888 
 666   0.0000       4.849362       131.9579 
 667   0.0000       4.860898       132.2717 
 668   0.0000       4.864314       132.3647 
 669   0.0000       4.885850       132.9507 
 670   0.0000       4.914071       133.7187 
 671   0.0000       4.939729       134.4169 
 672   0.0000       4.955392       134.8431 
 673   0.0000       4.958163       134.9185 
 674   0.0000       4.980766       135.5335 
 675   0.0000       4.985157       135.6530 
 676   0.0000       5.019318       136.5826 
 677   0.0000       5.025559       136.7524 
 678   0.0000       5.035666       137.0274 
 679   0.0000       5.046066       137.3104 
 680   0.0000       5.051189       137.4498 
 681   0.0000       5.067321       137.8888 
 682   0.0000       5.084652       138.3604 
 683   0.0000       5.094217       138.6207 
 684   0.0000       5.112993       139.1316 
 685   0.0000       5.118689       139.2866 
 686   0.0000       5.123685       139.4226 
 687   0.0000       5.142992       139.9479 
 688   0.0000       5.146765       140.0506 
 689   0.0000       5.155089       140.2771 
 690   0.0000       5.169314       140.6642 
 691   0.0000       5.184119       141.0670 
 692   0.0000       5.198618       141.4616 
 693   0.0000       5.210355       141.7810 
 694   0.0000       5.213315       141.8615 
 695   0.0000       5.217579       141.9776 
 696   0.0000       5.222479       142.1109 
 697   0.0000       5.231413       142.3540 
 698   0.0000       5.237275       142.5135 
 699   0.0000       5.270785       143.4253 
 700   0.0000       5.273602       143.5020 
 701   0.0000       5.284776       143.8061 
 702   0.0000       5.300219       144.2263 
 703   0.0000       5.312701       144.5659 
 704   0.0000       5.321610       144.8084 
 705   0.0000       5.333669       145.1365 
 706   0.0000       5.345626       145.4619 
 707   0.0000       5.364791       145.9834 
 708   0.0000       5.383161       146.4832 
 709   0.0000       5.386397       146.5713 
 710   0.0000       5.392996       146.7509 
 711   0.0000       5.397426       146.8714 
 712   0.0000       5.425756       147.6423 
 713   0.0000       5.444628       148.1559 
 714   0.0000       5.464922       148.7081 
 715   0.0000       5.479954       149.1171 
 716   0.0000       5.487735       149.3289 
 717   0.0000       5.514334       150.0527 
 718   0.0000       5.517904       150.1498 
 719   0.0000       5.536800       150.6640 
 720   0.0000       5.541248       150.7850 
 721   0.0000       5.546683       150.9329 
 722   0.0000       5.564116       151.4073 
 723   0.0000       5.570055       151.5689 
 724   0.0000       5.582420       151.9054 
 725   0.0000       5.603184       152.4704 
 726   0.0000       5.608768       152.6223 
 727   0.0000       5.616330       152.8281 
 728   0.0000       5.624773       153.0579 
 729   0.0000       5.637628       153.4077 
 730   0.0000       5.646737       153.6555 
 731   0.0000       5.653732       153.8459 
 732   0.0000       5.685368       154.7067 
 733   0.0000       5.705582       155.2568 
 734   0.0000       5.707255       155.3023 
 735   0.0000       5.722533       155.7180 
 736   0.0000       5.728561       155.8821 
 737   0.0000       5.743271       156.2824 
 738   0.0000       5.747851       156.4070 
 739   0.0000       5.752618       156.5367 
 740   0.0000       5.771472       157.0497 
 741   0.0000       5.782554       157.3513 
 742   0.0000       5.804884       157.9589 
 743   0.0000       5.819681       158.3616 
 744   0.0000       5.830150       158.6465 
 745   0.0000       5.840607       158.9310 
 746   0.0000       5.866474       159.6349 
 747   0.0000       5.873465       159.8251 
 748   0.0000       5.904433       160.6678 
 749   0.0000       5.920969       161.1178 
 750   0.0000       5.957141       162.1021 
 751   0.0000       5.973887       162.5577 
 752   0.0000       5.988953       162.9677 
 753   0.0000       6.008259       163.4930 
 754   0.0000       6.014318       163.6579 
 755   0.0000       6.046231       164.5263 
 756   0.0000       6.048626       164.5915 
 757   0.0000       6.064199       165.0153 
 758   0.0000       6.084455       165.5664 
 759   0.0000       6.094547       165.8410 
 760   0.0000       6.120435       166.5455 
 761   0.0000       6.175630       168.0474 
 762   0.0000       6.223239       169.3429 
 763   0.0000       6.228021       169.4731 
 764   0.0000       6.255277       170.2148 
 765   0.0000       6.290002       171.1597 
 766   0.0000       6.327641       172.1839 
 767   0.0000       6.342486       172.5878 
 768   0.0000       6.357244       172.9894 
 769   0.0000       6.366923       173.2528 
 770   0.0000       6.370239       173.3430 
 771   0.0000       6.384616       173.7342 
 772   0.0000       6.405914       174.3138 
 773   0.0000       6.449070       175.4881 
 774   0.0000       6.458945       175.7568 
 775   0.0000       6.484686       176.4573 
 776   0.0000       6.497990       176.8193 
 777   0.0000       6.551461       178.2743 
 778   0.0000       6.569571       178.7671 
 779   0.0000       6.599947       179.5937 
 780   0.0000       6.660520       181.2420 
 781   0.0000       6.698716       182.2813 
 782   0.0000       6.727042       183.0521 
 783   0.0000       6.785598       184.6455 
 784   0.0000       6.807240       185.2344 
 785   0.0000       6.904520       187.8815 
 786   0.0000       6.907665       187.9671 
 787   0.0000       6.921421       188.3414 
 788   0.0000       6.969222       189.6422 
 789   0.0000       7.032784       191.3718 
 790   0.0000       7.051416       191.8788 
 791   0.0000       7.061936       192.1651 
 792   0.0000       7.079268       192.6367 
 793   0.0000       7.140113       194.2924 
 794   0.0000       7.209224       196.1730 
 795   0.0000       7.257175       197.4778 
 796   0.0000       7.270583       197.8426 
 797   0.0000       7.280536       198.1135 
 798   0.0000       7.342684       199.8046 
 799   0.0000       7.404349       201.4826 
 800   0.0000       7.421370       201.9457 
 801   0.0000       7.578474       206.2208 
 802   0.0000       7.585069       206.4002 
 803   0.0000       7.656494       208.3438 
 804   0.0000       7.661010       208.4667 
 805   0.0000       7.815362       212.6668 
 806   0.0000       7.822571       212.8630 
 807   0.0000       7.897711       214.9077 
 808   0.0000       7.932553       215.8558 
 809   0.0000       9.483911       258.0703 
 810   0.0000       9.532990       259.4059 
 811   0.0000      10.797463       293.8139 
 812   0.0000      11.415394       310.6287 
 813   0.0000      11.943256       324.9925 
 814   0.0000      12.631945       343.7327 
 815   0.0000      12.928129       351.7923 
 816   0.0000      12.976270       353.1022 
 817   0.0000      13.093373       356.2888 
 818   0.0000      13.204209       359.3048 
 819   0.0000      13.393761       364.4628 
 820   0.0000      13.509013       367.5989 
 821   0.0000      13.891004       377.9934 
 822   0.0000      13.974363       380.2617 
 823   0.0000      14.055083       382.4583 
 824   0.0000      14.098072       383.6280 
 825   0.0000      14.564846       396.3296 
 826   0.0000      14.829774       403.5387 
 827   0.0000      16.045564       436.6220 

                    ********************************
                    * MULLIKEN POPULATION ANALYSIS *
                    ********************************

-----------------------
MULLIKEN ATOMIC CHARGES
-----------------------
   0 C :   -0.335330
   1 C :    0.039485
   2 O :   -0.400255
   3 C :    0.522696
   4 O :   -0.416558
   5 C :   -0.273628
   6 C :    0.156116
   7 C :   -0.271605
   8 N :   -0.123890
   9 C :    0.208054
  10 S :   -0.435732
  11 N :   -0.198531
  12 C :    0.050047
  13 C :    0.080765
  14 C :   -0.204341
  15 C :   -0.125642
  16 C :   -0.277050
  17 C :    0.326458
  18 O :   -0.358139
  19 C :   -0.304911
  20 H :    0.105556
  21 H :    0.108400
  22 H :    0.125576
  23 H :    0.111684
  24 H :    0.119123
  25 H :    0.135718
  26 H :    0.094860
  27 H :    0.128856
  28 H :    0.198309
  29 H :    0.192865
  30 H :    0.151627
  31 H :    0.154955
  32 H :    0.166236
  33 H :    0.133402
  34 H :    0.241497
  35 H :    0.173327
Sum of atomic charges:    0.0000000

--------------------------------
MULLIKEN REDUCED ORBITAL CHARGES
--------------------------------
  0 C s       :     3.270311  s :     3.270311
      pz      :     1.023393  p :     2.987537
      px      :     0.958633
      py      :     1.005512
      dz2     :     0.010938  d :     0.073140
      dxz     :     0.011192
      dyz     :     0.023662
      dx2y2   :     0.007230
      dxy     :     0.020119
      f0      :     0.000374  f :     0.004342
      f+1     :     0.000379
      f-1     :     0.001052
      f+2     :     0.000237
      f-2     :     0.000895
      f+3     :     0.000303
      f-3     :     0.001102
  1 C s       :     3.158155  s :     3.158155
      pz      :     1.018855  p :     2.634106
      px      :     0.730096
      py      :     0.885155
      dz2     :     0.018656  d :     0.156731
      dxz     :     0.028621
      dyz     :     0.041876
      dx2y2   :     0.031410
      dxy     :     0.036167
      f0      :     0.001257  f :     0.011523
      f+1     :     0.001242
      f-1     :     0.001750
      f+2     :     0.000561
      f-2     :     0.002100
      f+3     :     0.002341
      f-3     :     0.002272
  2 O s       :     3.729813  s :     3.729813
      pz      :     1.826215  p :     4.637360
      px      :     1.550393
      py      :     1.260753
      dz2     :     0.003915  d :     0.030797
      dxz     :     0.002575
      dyz     :     0.005027
      dx2y2   :     0.011885
      dxy     :     0.007396
      f0      :     0.000322  f :     0.002285
      f+1     :     0.000188
      f-1     :     0.000459
      f+2     :     0.000253
      f-2     :     0.000194
[...]
 15 C s       :     2.705911  s :     2.705911
      pz      :     0.889025  p :     2.795419
      px      :     0.945361
      py      :     0.961033
      dz2     :     0.084134  d :     0.417645
      dxz     :     0.074728
      dyz     :     0.054299
      dx2y2   :     0.114579
      dxy     :     0.089904
      f0      :     0.003363  f :     0.041103
      f+1     :     0.005078
      f-1     :     0.005328
      f+2     :     0.007299
      f-2     :     0.005855
      f+3     :     0.007854
      f-3     :     0.006326
 16 C s       :     2.701684  s :     2.701684
      pz      :     0.931745  p :     2.868903
      px      :     0.964805
      py      :     0.972353
      dz2     :     0.038962  d :     0.390753
      dxz     :     0.061333
      dyz     :     0.080393
      dx2y2   :     0.099196
      dxy     :     0.110869
      f0      :     0.003664  f :     0.040325
      f+1     :     0.004360
      f-1     :     0.004277
      f+2     :     0.006205
      f-2     :     0.004684
      f+3     :     0.009586
      f-3     :     0.007549
 17 C s       :     2.701412  s :     2.701412
      pz      :     0.853432  p :     2.679685
      px      :     0.823401
      py      :     1.002852
      dz2     :     0.117844  d :     0.709542
      dxz     :     0.110799
      dyz     :     0.130402
      dx2y2   :     0.172559
      dxy     :     0.177938
      f0      :     0.008137  f :     0.099353
      f+1     :     0.015350
      f-1     :     0.009175
      f+2     :     0.016061
      f-2     :     0.013133
      f+3     :     0.019923
      f-3     :     0.017573
 18 O s       :     3.176965  s :     3.176965
      pz      :     1.449063  p :     4.346049
      px      :     1.383621
      py      :     1.513365
      dz2     :     0.007443  d :     0.075515
      dxz     :     0.017005
      dyz     :     0.016624
      dx2y2   :     0.015641
      dxy     :     0.018802
      f0      :     0.000553  f :     0.005061
      f+1     :     0.000711
      f-1     :     0.000416
      f+2     :     0.000566
      f-2     :     0.000969
      f+3     :     0.000849
      f-3     :     0.000996
 19 C s       :     2.694954  s :     2.694954
      pz      :     0.925525  p :     2.842429
      px      :     0.955950
      py      :     0.960953
      dz2     :     0.069077  d :     0.388617
      dxz     :     0.071797
      dyz     :     0.055910
      dx2y2   :     0.100585
      dxy     :     0.091248
      f0      :     0.003333  f :     0.040827
      f+1     :     0.005232
      f-1     :     0.004970
      f+2     :     0.007298
      f-2     :     0.006416
      f+3     :     0.007556
      f-3     :     0.006022
 20 H s       :     0.846589  s :     0.846589
      pz      :     0.062598  p :     0.158839
      px      :     0.039414
      py      :     0.056827
      dz2     :     0.008121  d :     0.027889
      dxz     :     0.004476
      dyz     :     0.007027
      dx2y2   :     0.003551
      dxy     :     0.004714
 21 H s       :     0.843424  s :     0.843424
      pz      :     0.043859  p :     0.152086
      px      :     0.056166
      py      :     0.052061
      dz2     :     0.003262  d :     0.027581
      dxz     :     0.004834
      dyz     :     0.004827
      dx2y2   :     0.008066
      dxy     :     0.006591
 22 H s       :     0.844308  s :     0.844308
      pz      :     0.063912  p :     0.154528
      px      :     0.042501
      py      :     0.048115
      dz2     :     0.008055  d :     0.027629
      dxz     :     0.006464
      dyz     :     0.007307
      dx2y2   :     0.002563
      dxy     :     0.003239
 23 H s       :     0.852991  s :     0.852991
      pz      :     0.068866  p :     0.149474
      px      :     0.031110
      py      :     0.049498
      dz2     :     0.008852  d :     0.027148
      dxz     :     0.003901
      dyz     :     0.007986
      dx2y2   :     0.002708
      dxy     :     0.003701
 24 H s       :     0.854990  s :     0.854990
      pz      :     0.063893  p :     0.146105
      px      :     0.032445
      py      :     0.049767
      dz2     :     0.007470  d :     0.027040
      dxz     :     0.005033
      dyz     :     0.008184
      dx2y2   :     0.002945
      dxy     :     0.003407
 25 H s       :     0.823722  s :     0.823722
      pz      :     0.067167  p :     0.151436
      px      :     0.046463
      py      :     0.037806
      dz2     :     0.008989  d :     0.027752
      dxz     :     0.007466
      dyz     :     0.007038
      dx2y2   :     0.002211
      dxy     :     0.002048
 26 H s       :     0.845213  s :     0.845213
      pz      :     0.039366  p :     0.150346
      px      :     0.041067
      py      :     0.069913
      dz2     :     0.003224  d :     0.027702
      dxz     :     0.001085
      dyz     :     0.007877
      dx2y2   :     0.006665
      dxy     :     0.008850
 27 H s       :     0.827413  s :     0.827413
      pz      :     0.039941  p :     0.150624
      px      :     0.066332
      py      :     0.044352
      dz2     :     0.002457  d :     0.027758
      dxz     :     0.007848
      dyz     :     0.001862
      dx2y2   :     0.008484
      dxy     :     0.007107
 28 H s       :     0.742209  s :     0.742209
      pz      :     0.058659  p :     0.253513
      px      :     0.075057
      py      :     0.119798
      dz2     :     0.005563  d :     0.061790
      dxz     :     0.001623
      dyz     :     0.017611
      dx2y2   :     0.017166
      dxy     :     0.019827
 29 H s       :     0.749410  s :     0.749410
      pz      :     0.107692  p :     0.254207
      px      :     0.100118
      py      :     0.046397
      dz2     :     0.018897  d :     0.061382
      dxz     :     0.014401
      dyz     :     0.009767
      dx2y2   :     0.010535
      dxy     :     0.007781
 30 H s       :     0.831244  s :     0.831244
      pz      :     0.042694  p :     0.147490
      px      :     0.056643
      py      :     0.048153
      dz2     :     0.003755  d :     0.028434
      dxz     :     0.006393
      dyz     :     0.004548
      dx2y2   :     0.006383
      dxy     :     0.007355
 31 H s       :     0.843472  s :     0.843472
      pz      :     0.050443  p :     0.157556
      px      :     0.067655
      py      :     0.039459
      dz2     :     0.004419  d :     0.027563
      dxz     :     0.006737
      dyz     :     0.002906
      dx2y2   :     0.006730
      dxy     :     0.006771
 32 H s       :     0.842512  s :     0.842512
      pz      :     0.038642  p :     0.151447
      px      :     0.038371
      py      :     0.074434
      dz2     :     0.002814  d :     0.026455
      dxz     :     0.000862
      dyz     :     0.007257
      dx2y2   :     0.007615
      dxy     :     0.007907
 33 H s       :     0.847946  s :     0.847946
      pz      :     0.058988  p :     0.158926
      px      :     0.050479
      py      :     0.049460
      dz2     :     0.006145  d :     0.027741
      dxz     :     0.005242
      dyz     :     0.005600
      dx2y2   :     0.005619
      dxy     :     0.005136
 34 H s       :     0.705937  s :     0.705937
      pz      :     0.120429  p :     0.347438
      px      :     0.086041
      py      :     0.140967
      dz2     :     0.025165  d :     0.099481
      dxz     :     0.013238
      dyz     :     0.023396
      dx2y2   :     0.019294
      dxy     :     0.018388
 35 H s       :     0.838878  s :     0.838878
      pz      :     0.041348  p :     0.157678
      px      :     0.040114
      py      :     0.076216
      dz2     :     0.002878  d :     0.028129
      dxz     :     0.000904
      dyz     :     0.008063
      dx2y2   :     0.007962
      dxy     :     0.008321


                      *****************************
                      * MAYER POPULATION ANALYSIS *
                      *****************************

  NA   - Mulliken gross atomic population
  ZA   - Total nuclear charge
  QA   - Mulliken gross atomic charge
  VA   - Mayer's total valence
  BVA  - Mayer's bonded valence
  FA   - Mayer's free valence

  ATOM       NA         ZA         QA         VA         BVA        FA
  0 C      6.3353     6.0000    -0.3353     3.8691     3.8691     0.0000
  1 C      5.9605     6.0000     0.0395     3.8510     3.8510    -0.0000
  2 O      8.4003     8.0000    -0.4003     1.9875     1.9875    -0.0000
  3 C      5.4773     6.0000     0.5227     4.2255     4.2255     0.0000
  4 O      8.4166     8.0000    -0.4166     2.0978     2.0978    -0.0000
  5 C      6.2736     6.0000    -0.2736     3.6593     3.6593     0.0000
  6 C      5.8439     6.0000     0.1561     3.8809     3.8809     0.0000
  7 C      6.2716     6.0000    -0.2716     3.9096     3.9096    -0.0000
  8 N      7.1239     7.0000    -0.1239     3.3018     3.3018    -0.0000
  9 C      5.7919     6.0000     0.2081     4.1520     4.1520     0.0000
 10 S     16.4357    16.0000    -0.4357     1.7620     1.7620    -0.0000
 11 N      7.1985     7.0000    -0.1985     3.2481     3.2481    -0.0000
 12 C      5.9500     6.0000     0.0500     3.9486     3.9486     0.0000
 13 C      5.9192     6.0000     0.0808     3.6920     3.6920     0.0000
 14 C      6.2043     6.0000    -0.2043     3.8369     3.8369     0.0000
 15 C      6.1256     6.0000    -0.1256     3.7877     3.7877     0.0000
 16 C      6.2771     6.0000    -0.2771     3.7915     3.7915     0.0000
 17 C      5.6735     6.0000     0.3265     3.8697     3.8697     0.0000
 18 O      8.3581     8.0000    -0.3581     2.1184     2.1184    -0.0000
 19 C      6.3049     6.0000    -0.3049     3.8341     3.8341     0.0000
 20 H      0.8944     1.0000     0.1056     0.9779     0.9779    -0.0000
 21 H      0.8916     1.0000     0.1084     0.9852     0.9852     0.0000
 22 H      0.8744     1.0000     0.1256     0.9832     0.9832     0.0000
 23 H      0.8883     1.0000     0.1117     0.9697     0.9697    -0.0000
 24 H      0.8809     1.0000     0.1191     0.9752     0.9752     0.0000
 25 H      0.8643     1.0000     0.1357     0.9796     0.9796     0.0000
 26 H      0.9051     1.0000     0.0949     0.9858     0.9858     0.0000
 27 H      0.8711     1.0000     0.1289     0.9790     0.9790    -0.0000
 28 H      0.8017     1.0000     0.1983     1.0222     1.0222    -0.0000
 29 H      0.8071     1.0000     0.1929     1.0199     1.0199    -0.0000
 30 H      0.8484     1.0000     0.1516     0.9940     0.9940     0.0000
 31 H      0.8450     1.0000     0.1550     0.9843     0.9843     0.0000
 32 H      0.8338     1.0000     0.1662     0.9751     0.9751    -0.0000
 33 H      0.8666     1.0000     0.1334     0.9906     0.9906     0.0000
 34 H      0.7585     1.0000     0.2415     1.0106     1.0106    -0.0000
 35 H      0.8267     1.0000     0.1733     0.9844     0.9844     0.0000

  Mayer bond orders larger than 0.100000
B(  0-C ,  1-C ) :   0.9578 B(  0-C , 20-H ) :   0.9709 B(  0-C , 21-H ) :   0.9765 
B(  0-C , 22-H ) :   0.9720 B(  1-C ,  2-O ) :   0.8814 B(  1-C , 23-H ) :   0.9738 
B(  1-C , 24-H ) :   0.9862 B(  2-O ,  3-C ) :   1.0992 B(  3-C ,  4-O ) :   2.0050 
B(  3-C ,  5-C ) :   1.0600 B(  5-C ,  6-C ) :   1.6513 B(  5-C , 12-C ) :   0.9704 
B(  6-C ,  7-C ) :   0.9686 B(  6-C ,  8-N ) :   1.1555 B(  7-C , 25-H ) :   0.9575 
B(  7-C , 26-H ) :   0.9891 B(  7-C , 27-H ) :   0.9636 B(  8-N ,  9-C ) :   1.1788 
B(  8-N , 28-H ) :   0.9482 B(  9-C , 10-S ) :   1.6145 B(  9-C , 11-N ) :   1.3023 
B( 11-N , 12-C ) :   0.9811 B( 11-N , 29-H ) :   0.9534 B( 12-C , 13-C ) :   0.9404 
B( 12-C , 30-H ) :   1.0026 B( 13-C , 14-C ) :   1.3468 B( 13-C , 19-C ) :   1.3637 
B( 14-C , 15-C ) :   1.3825 B( 14-C , 31-H ) :   0.9735 B( 15-C , 16-C ) :   1.3643 
B( 15-C , 32-H ) :   0.9691 B( 16-C , 17-C ) :   1.3290 B( 16-C , 33-H ) :   0.9836 
B( 17-C , 18-O ) :   1.1121 B( 17-C , 19-C ) :   1.3671 B( 18-O , 34-H ) :   0.9795 
B( 19-C , 35-H ) :   0.9586 

-------
TIMINGS
-------

Total SCF time: 0 days 2 hours 13 min 33 sec 

Total time                  ....    8013.817 sec
Sum of individual times     ....    8003.805 sec  ( 99.9%)

Fock matrix formation       ....    7967.885 sec  ( 99.4%)
Diagonalization             ....       1.681 sec  (  0.0%)
Density matrix formation    ....       0.239 sec  (  0.0%)
Population analysis         ....       0.342 sec  (  0.0%)
Initial guess               ....       6.733 sec  (  0.1%)
Orbital Transformation      ....       0.000 sec  (  0.0%)
Orbital Orthonormalization  ....       0.000 sec  (  0.0%)
DIIS solution               ....      21.278 sec  (  0.3%)
SOSCF solution              ....       4.047 sec  (  0.1%)

Maximum memory used throughout the entire SCF-calculation: 760.8 MB

------------------------------------------------------------------------------
                                ORCA  MP2 
------------------------------------------------------------------------------

Freezing NCore=48 chemical core electrons

-------------
RI-MP2 ENERGY
-------------
Dimension of the basis                    ...  828
Memory devoted to MP2                     ...  256 MB   
Data format for buffers                   ... DOUBLE
Compression type for matrix containers    ... UNCOMPRESSED
Overall scaling of the MP2 energy         ...   1.000e+00
Calculating two index integrals           ... done (    0.046 sec)
Cholesky decomposition of V**-1           ... done (    0.673 sec)

-----------------
RI-TRANSFORMATION (AUX index driven)
-----------------

Dimension of the orbital-basis         ... 828
Dimension of the aux-basis             ... 2141
Transformation of internal/external MOs...   24-  76 to   77- 827
Number Format for Storage              ... Double (8 Byte)
Integral mode                          ... Direct

First Phase: integral generation and transformation of MO indices
  Aux angular momentum 0               ... done (    6.350 sec)
  Aux angular momentum 1               ... done (   10.989 sec)
  Aux angular momentum 2               ... done (   13.970 sec)
  Aux angular momentum 3               ... done (   11.037 sec)
  Aux angular momentum 4               ... done (    3.807 sec)
Closing buffer VIA ( 0.63 GB; CompressionRatio= 1.00)
  Phase 1 completed in    47.250 sec
Second Phase: sorting and transformation of aux index

IA-Transformation
Memory available                       ... 156 MB 
Max. # MO pairs treated in a batch     ... 11    
# of internal orbitals                 ... 53
# batches for internal orbitals        ... 5
Closing buffer IAV ( 0.63 GB; CompressionRatio= 1.00)
(ia|v) transformation done in    44.574 sec

  Phase 2 completed in    44.592 sec
RI-Integral transformation completed in    91.947 sec
Opening buffers                              ... done

Starting loop over batches of integrals:

Operator 0  - window                       ... ( 24- 76)x( 77-827)
Operator 0  - Memory available             ...   256 MB
Operator 0  - Memory needed per MO         ...  12.3 MB
Operator 0  - Number of orbitals per batch ... 13
Operator 0  - Number of batches            ... 5

OPERATOR  0   PASS   0:  MOs    24 ...   36
  Reading integrals       ... ok
  Internal MO  26
  Internal MO  29
  Internal MO  32
  Internal MO  35
OPERATOR  0   PASS   1:  MOs    37 ...   49
  Reading integrals       ... ok
  Internal MO  38
  Internal MO  41
  Internal MO  44
  Internal MO  47
OPERATOR  0   PASS   2:  MOs    50 ...   62
  Reading integrals       ... ok
  Internal MO  50
  Internal MO  53
  Internal MO  56
  Internal MO  59
  Internal MO  62
OPERATOR  0   PASS   3:  MOs    63 ...   75
  Reading integrals       ... ok
  Internal MO  65
  Internal MO  68
  Internal MO  71
  Internal MO  74
OPERATOR  0   PASS   4:  MOs    76 ...   76
  Reading integrals       ... ok
Time spent in pair loops =   133.155 sec
Deleting buffer (Ka|jb)[aa] ...done

-----------------------------------------------
 RI-MP2 CORRELATION ENERGY:     -3.537428890 Eh
-----------------------------------------------


-------
TIMINGS
-------

Total time                :  225.998 sec
Integral trafo            :   91.996 sec ( 40.7%)
I/O of integrals          :    6.048 sec (  2.7%)
K(i,j) Operators          :   63.144 sec ( 27.9%)
T(i,j) pair energies      :    9.543 sec (  4.2%)
V-calculation             :    0.046 sec (  0.0%)
V**(-1/2)                 :    0.673 sec (  0.3%)
Gamma(ia|P)               :    0.000 sec (  0.0%)
Gamma-Trafo               :    0.000 sec (  0.0%)
D(virtual)                :    0.000 sec (  0.0%)
D(internal)               :    0.000 sec (  0.0%)
W(virtual)                :    0.000 sec (  0.0%)
W(internal)               :    0.000 sec (  0.0%)
L(virtual)                :    0.000 sec (  0.0%)
L(internal)               :    0.000 sec (  0.0%)
G(D)                      :    0.000 sec (  0.0%)
G(Z)                      :    0.000 sec (  0.0%)
Z-Vector Solution         :    0.000 sec (  0.0%)
3-Index Derivative        :    0.000 sec (  0.0%)
2-Index Derivative        :    0.000 sec (  0.0%)
Separable Gradient        :    0.000 sec (  0.0%)


---------------------------------------
MP2 TOTAL ENERGY:    -1274.330874173 Eh
---------------------------------------

Maximum memory used throughout the entire MP2-calculation: 305.9 MB

-------------------------   --------------------
FINAL SINGLE POINT ENERGY     -1274.330874172980
-------------------------   --------------------


                            ***************************************
                            *     ORCA property calculations      *
                            ***************************************


  WARNING: The energy has been calculated at the MP2 level but the densities
           used in the property calculations are still SCF densities
           MP2 response densities have not been calculated 
           use %mp2 Density relaxed end
           or  %mp2 Density unrelaxed end

                                    ---------------------
                                    Active property flags
                                    ---------------------
   (+) Dipole Moment


------------------------------------------------------------------------------
                       ORCA ELECTRIC PROPERTIES CALCULATION
------------------------------------------------------------------------------

Dipole Moment Calculation                       ... on
Quadrupole Moment Calculation                   ... off
Polarizability Calculation                      ... off
GBWName                                         ... CONFS/Conf458.orca.gbw
Electron density file                           ... CONFS/Conf458.orca.scfp
The origin for moment calculation is the CENTER OF MASS  = (32.849864, 31.428903 35.175264)

-------------
DIPOLE MOMENT
-------------
                                X             Y             Z
Electronic contribution:     10.04352       8.45183       5.59597
Nuclear contribution   :    -11.13051     -10.05748      -5.44736
                        -----------------------------------------
Total Dipole Moment    :     -1.08699      -1.60564       0.14861
                        -----------------------------------------
Magnitude (a.u.)       :      1.94467
Magnitude (Debye)      :      4.94295



--------------------
Rotational spectrum 
--------------------
 
Rotational constants in cm-1:     0.012172     0.009478     0.006667 
Rotational constants in MHz :   364.904298   284.150649   199.868011 

 Dipole components along the rotational axes: 
x,y,z [a.u.] :    -1.921442    -0.140894     0.264450 
x,y,z [Debye]:    -4.883919    -0.358124     0.672180 

 

Timings for individual modules:

Sum of individual times         ...     8244.773 sec (= 137.413 min)
GTO integral calculation        ...        4.119 sec (=   0.069 min)   0.0 %
SCF iterations                  ...     8014.013 sec (= 133.567 min)  97.2 %
MP2 module                      ...      226.641 sec (=   3.777 min)   2.7 %
                             ****ORCA TERMINATED NORMALLY****
TOTAL RUN TIME: 0 days 2 hours 17 minutes 26 seconds 792 msec
