
                                        *****************
                                        * O   R   C   A *
                                        *****************

                                            #,                                       
                                            ###                                      
                                            ####                                     
                                            #####                                    
                                            ######                                   
                                           ########,                                 
                                     ,,################,,,,,                         
                               ,,#################################,,                 
                          ,,##########################################,,             
                       ,#########################################, ''#####,          
                    ,#############################################,,   '####,        
                  ,##################################################,,,,####,       
                ,###########''''           ''''###############################       
              ,#####''   ,,,,##########,,,,          '''####'''          '####       
            ,##' ,,,,###########################,,,                        '##       
           ' ,,###''''                  '''############,,,                           
         ,,##''                                '''############,,,,        ,,,,,,###''
      ,#''                                            '''#######################'''  
     '                                                          ''''####''''         
             ,#######,   #######,   ,#######,      ##                                
            ,#'     '#,  ##    ##  ,#'     '#,    #''#        ######   ,####,        
            ##       ##  ##   ,#'  ##            #'  '#       #        #'  '#        
            ##       ##  #######   ##           ,######,      #####,   #    #        
            '#,     ,#'  ##    ##  '#,     ,#' ,#      #,         ##   #,  ,#        
             '#######'   ##     ##  '#######'  #'      '#     #####' # '####'        



                  #######################################################
                  #                        -***-                        #
                  #          Department of theory and spectroscopy      #
                  #    Directorship and core code : Frank Neese         #
                  #        Max Planck Institute fuer Kohlenforschung    #
                  #                Kaiser Wilhelm Platz 1               #
                  #                 D-45470 Muelheim/Ruhr               #
                  #                      Germany                        #
                  #                                                     #
                  #                  All rights reserved                #
                  #                        -***-                        #
                  #######################################################


                         Program Version 5.0.0 -  RELEASE  -
                                (SVN: $Rev: 19529$)
                ($Date: 2021-06-28 11:36:33 +0200 (Mo, 28 Jun 2021) $)


 With contributions from (in alphabetic order):
   Daniel Aravena         : Magnetic Suceptibility
   Michael Atanasov       : Ab Initio Ligand Field Theory (pilot matlab implementation)
   Alexander A. Auer      : GIAO ZORA, VPT2 properties, NMR spectrum
   Ute Becker             : Parallelization
   Giovanni Bistoni       : ED, misc. LED, open-shell LED, HFLD
   Martin Brehm           : Molecular dynamics
   Dmytro Bykov           : SCF Hessian
   Vijay G. Chilkuri      : MRCI spin determinant printing, contributions to CSF-ICE
   Dipayan Datta          : RHF DLPNO-CCSD density
   Achintya Kumar Dutta   : EOM-CC, STEOM-CC
   Dmitry Ganyushin       : Spin-Orbit,Spin-Spin,Magnetic field MRCI
   Miquel Garcia          : C-PCM Hessian, Gaussian charge scheme
   Yang Guo               : DLPNO-NEVPT2, F12-NEVPT2, CIM, IAO-localization
   Andreas Hansen         : Spin unrestricted coupled pair/coupled cluster methods
   Benjamin Helmich-Paris : MC-RPA, TRAH-SCF, COSX integrals
   Lee Huntington         : MR-EOM, pCC
   Robert Izsak           : Overlap fitted RIJCOSX, COSX-SCS-MP3, EOM
   Marcus Kettner         : VPT2
   Christian Kollmar      : KDIIS, OOCD, Brueckner-CCSD(T), CCSD density, CASPT2, CASPT2-K
   Simone Kossmann        : Meta GGA functionals, TD-DFT gradient, OOMP2, MP2 Hessian
   Martin Krupicka        : Initial AUTO-CI
   Lucas Lang             : DCDCAS
   Marvin Lechner         : AUTO-CI (C++ implementation), FIC-MRCC
   Dagmar Lenk            : GEPOL surface, SMD
   Dimitrios Liakos       : Extrapolation schemes; Compound Job, initial MDCI parallelization
   Dimitrios Manganas     : Further ROCIS development; embedding schemes
   Dimitrios Pantazis     : SARC Basis sets
   Anastasios Papadopoulos: AUTO-CI, single reference methods and gradients
   Taras Petrenko         : DFT Hessian,TD-DFT gradient, ASA, ECA, R-Raman, ABS, FL, XAS/XES, NRVS
   Peter Pinski           : DLPNO-MP2, DLPNO-MP2 Gradient
   Christoph Reimann      : Effective Core Potentials
   Marius Retegan         : Local ZFS, SOC
   Christoph Riplinger    : Optimizer, TS searches, QM/MM, DLPNO-CCSD(T), (RO)-DLPNO pert. Triples
   Tobias Risthaus        : Range-separated hybrids, TD-DFT gradient, RPA, STAB
   Michael Roemelt        : Original ROCIS implementation
   Masaaki Saitow         : Open-shell DLPNO-CCSD energy and density
   Barbara Sandhoefer     : DKH picture change effects
   Avijit Sen             : IP-ROCIS
   Kantharuban Sivalingam : CASSCF convergence, NEVPT2, FIC-MRCI
   Bernardo de Souza      : ESD, SOC TD-DFT
   Georgi Stoychev        : AutoAux, RI-MP2 NMR
   Willem Van den Heuvel  : Paramagnetic NMR
   Boris Wezisla          : Elementary symmetry handling
   Frank Wennmohs         : Technical directorship


 We gratefully acknowledge several colleagues who have allowed us to
 interface, adapt or use parts of their codes:
   Stefan Grimme, W. Hujo, H. Kruse, P. Pracht,  : VdW corrections, initial TS optimization,
                  C. Bannwarth, S. Ehlert          DFT functionals, gCP, sTDA/sTD-DF
   Ed Valeev, F. Pavosevic, A. Kumar             : LibInt (2-el integral package), F12 methods
   Garnet Chan, S. Sharma, J. Yang, R. Olivares  : DMRG
   Ulf Ekstrom                                   : XCFun DFT Library
   Mihaly Kallay                                 : mrcc  (arbitrary order and MRCC methods)
   Jiri Pittner, Ondrej Demel                    : Mk-CCSD
   Frank Weinhold                                : gennbo (NPA and NBO analysis)
   Christopher J. Cramer and Donald G. Truhlar   : smd solvation model
   Lars Goerigk                                  : TD-DFT with DH, B97 family of functionals
   V. Asgeirsson, H. Jonsson                     : NEB implementation
   FAccTs GmbH                                   : IRC, NEB, NEB-TS, DLPNO-Multilevel, CI-OPT
                                                   MM, QMMM, 2- and 3-layer-ONIOM, Crystal-QMMM,
                                                   LR-CPCM, SF, NACMEs, symmetry and pop. for TD-DFT,
                                                   nearIR, NL-DFT gradient (VV10), updates on ESD,
                                                   ML-optimized integration grids
   S Lehtola, MJT Oliveira, MAL Marques          : LibXC Library
   Liviu Ungur et al                             : ANISO software


 Your calculation uses the libint2 library for the computation of 2-el integrals
 For citations please refer to: http://libint.valeyev.net

 Your ORCA version has been built with support for libXC version: 5.1.0
 For citations please refer to: https://tddft.org/programs/libxc/

 This ORCA versions uses:
   CBLAS   interface :  Fast vector & matrix operations
   LAPACKE interface :  Fast linear algebra routines
   SCALAPACK package :  Parallel linear algebra routines
   Shared memory     :  Shared parallel matrices
   BLAS/LAPACK       :  OpenBLAS 0.3.15  USE64BITINT DYNAMIC_ARCH NO_AFFINITY SkylakeX SINGLE_THREADED
        Core in use  :  SkylakeX
   Copyright (c) 2011-2014, The OpenBLAS Project


================================================================================

----- Orbital basis set information -----
Your calculation utilizes the basis: cc-pVTZ 
       H, B-Ne : Obtained from the ccRepo (grant-hill.group.shef.ac.uk/ccrepo) Feb. 2017
                 T. H. Dunning, Jr., J. Chem. Phys. 90, 1007 (1989)
            He : Obtained from the ccRepo (grant-hill.group.shef.ac.uk/ccrepo) Feb. 2017
                 D. E. Woon, T. H. Dunning, Jr., J. Chem. Phys. 100, 2975 (1994)
  Li-Be, Na-Mg : Obtained from the ccRepo (grant-hill.group.shef.ac.uk/ccrepo) Feb. 2017
                 B. P. Prascher, D. E. Woon, K. A. Peterson, T. H. Dunning, Jr., A. K. Wilson, Theor. Chem. Acc. 128, 69 (2011)
         Al-Ar : Obtained from the ccRepo (grant-hill.group.shef.ac.uk/ccrepo) Feb. 2017
                 D. E. Woon, T. H. Dunning, Jr., J. Chem. Phys. 98, 1358 (1993)
            Ca : Obtained from the Peterson Research Group Website (tyr0.chem.wsu.edu/~kipeters) Feb. 2017
                 J. Koput, K. A. Peterson, J. Phys. Chem. 106, 9595 (2002)
         Sc-Zn : Obtained from the ccRepo (grant-hill.group.shef.ac.uk/ccrepo) Feb. 2017
                 N. B. Balabanov, K. A. Peterson, J. Chem. Phys. 123, 064107 (2005)
                 N. B. Balabanov, K. A. Peterson, J. Chem. Phys. 125, 074110 (2006)
         Ga-Kr : Obtained from the ccRepo (grant-hill.group.shef.ac.uk/ccrepo) Feb. 2017
                 A. K. Wilson, D. E. Woon, K. A. Peterson, T. H. Dunning, Jr., J. Chem. Phys. 110, 7667 (1999)
             Y : Obtained from the ccRepo (grant-hill.group.shef.ac.uk/ccrepo) Feb. 2017
                 K. A. Peterson, D. Figgen, M. Dolg, H. Stoll, J. Chem. Phys. 126, 124101 (2007)
        Ag, Au : Obtained from the Peterson Research Group Website (tyr0.chem.wsu.edu/~kipeters) Feb. 2017
                 K. A. Peterson, C. Puzzarini, Theor. Chem. Acc. 114, 283 (2005)

----- AuxC basis set information -----
Your calculation utilizes the auxiliary basis: cc-pVTZ/C 
  Obtained from the EMSL Basis Set Exchange (bse.pnl.gov) Feb. 2017
  H-He, B-F, Al-Ar, Ga-Kr : F. Weigend, A. Kohn, C. Hattig, J. Chem. Phys. 116, 3175 (2002)
             Li-Be, Na-Mg : C. Haettig, Phys. Chem. Chem. Phys. 7, 59 (2005)
                       Ne : C. Haettig, Phys. Chem. Chem. Phys. 7, 59 (2005)
                            F. Weigend, A. Kohn, C. Hattig, J. Chem. Phys. 116, 3175 (2002)
                    Sc-Zn : J. G. Hill, J. A. Platts, J. Chem. Phys. 128, 044104 (2008)

================================================================================
                                        WARNINGS
                       Please study these warnings very carefully!
================================================================================


WARNING: No MP2 level density has been requested!
         To caclulate MP2 level properties use
         %mp2 Density relaxed end
         or
         %mp2 Density unrelaxed end

WARNING: Post HF methods need fully converged wavefunctions
  ===> : Setting SCFConvForced true
         You can overwrite this default with %scf ConvForced false 


INFO   : the flag for use of the SHARK integral package has been found!

================================================================================
                                       INPUT FILE
================================================================================
NAME = CONFS/Conf917.orca
|  1> ! ri-mp2 cc-pvtz cc-pvtz/c TightSCF NoKeepInts
|  2> 
|  3> %scf
|  4>   MaxCore 4096
|  5> end
|  6> *xyz  0  1
|  7>     C       14.3642371   14.6744566   16.5578323
|  8>     C       15.4629884   15.6292574   17.0511745
|  9>     O       16.6979943   15.1963233   16.4531967
| 10>     C       17.8488021   15.9425898   16.4204453
| 11>     O       18.8777958   15.4144803   16.0428591
| 12>     C       17.9099804   17.0457641   17.4228773
| 13>     C       17.3584960   18.2584358   17.1925128
| 14>     C       16.6275001   18.7017556   15.9433554
| 15>     N       17.5083711   19.2799160   18.1325403
| 16>     C       18.2775567   19.1897404   19.2640029
| 17>     S       18.4471294   20.4660577   20.3013146
| 18>     N       18.8976379   17.9858043   19.4961172
| 19>     C       18.7249776   16.7639121   18.6841617
| 20>     C       18.1013869   15.6302425   19.4931393
| 21>     C       18.5401322   14.3076156   19.2992307
| 22>     C       17.9584448   13.2472302   20.0134955
| 23>     C       16.9260587   13.5095680   20.9297067
| 24>     C       16.4815598   14.8243034   21.1221588
| 25>     O       15.4745947   15.0795885   21.9946028
| 26>     C       17.0616417   15.8785582   20.4093388
| 27>     H       13.3915481   14.9523908   16.9814676
| 28>     H       14.5881242   13.6434166   16.8597331
| 29>     H       14.2862645   14.7042800   15.4638417
| 30>     H       15.1996955   16.6448626   16.7396571
| 31>     H       15.5290564   15.5969268   18.1460616
| 32>     H       15.5942371   18.9920077   16.1706641
| 33>     H       16.5934677   17.9189086   15.1756866
| 34>     H       17.1281910   19.5669070   15.4897343
| 35>     H       17.0782431   20.1773854   17.9718057
| 36>     H       19.4450689   17.9444990   20.3466747
| 37>     H       19.7248420   16.4363891   18.3623402
| 38>     H       19.3257521   14.0989545   18.5756697
| 39>     H       18.3041682   12.2280419   19.8487810
| 40>     H       16.4719169   12.6924486   21.4804853
| 41>     H       15.2440652   14.2423050   22.4251784
| 42>     H       16.6950732   16.8866766   20.5721565
| 43> *
| 44> 
| 45>                          ****END OF INPUT****
================================================================================

                       ****************************
                       * Single Point Calculation *
                       ****************************

---------------------------------
CARTESIAN COORDINATES (ANGSTROEM)
---------------------------------
  C     14.364237   14.674457   16.557832
  C     15.462988   15.629257   17.051174
  O     16.697994   15.196323   16.453197
  C     17.848802   15.942590   16.420445
  O     18.877796   15.414480   16.042859
  C     17.909980   17.045764   17.422877
  C     17.358496   18.258436   17.192513
  C     16.627500   18.701756   15.943355
  N     17.508371   19.279916   18.132540
  C     18.277557   19.189740   19.264003
  S     18.447129   20.466058   20.301315
  N     18.897638   17.985804   19.496117
  C     18.724978   16.763912   18.684162
  C     18.101387   15.630242   19.493139
  C     18.540132   14.307616   19.299231
  C     17.958445   13.247230   20.013496
  C     16.926059   13.509568   20.929707
  C     16.481560   14.824303   21.122159
  O     15.474595   15.079588   21.994603
  C     17.061642   15.878558   20.409339
  H     13.391548   14.952391   16.981468
  H     14.588124   13.643417   16.859733
  H     14.286264   14.704280   15.463842
  H     15.199695   16.644863   16.739657
  H     15.529056   15.596927   18.146062
  H     15.594237   18.992008   16.170664
  H     16.593468   17.918909   15.175687
  H     17.128191   19.566907   15.489734
  H     17.078243   20.177385   17.971806
  H     19.445069   17.944499   20.346675
  H     19.724842   16.436389   18.362340
  H     19.325752   14.098954   18.575670
  H     18.304168   12.228042   19.848781
  H     16.471917   12.692449   21.480485
  H     15.244065   14.242305   22.425178
  H     16.695073   16.886677   20.572156

----------------------------
CARTESIAN COORDINATES (A.U.)
----------------------------
  NO LB      ZA    FRAG     MASS         X           Y           Z
   0 C     6.0000    0    12.011   27.144474   27.730704   31.289768
   1 C     6.0000    0    12.011   29.220813   29.535016   32.222050
   2 O     8.0000    0    15.999   31.554636   28.716889   31.092036
   3 C     6.0000    0    12.011   33.729348   30.127129   31.030145
   4 O     8.0000    0    15.999   35.673864   29.129146   30.316610
   5 C     6.0000    0    12.011   33.844958   32.211826   32.924467
   6 C     6.0000    0    12.011   32.802804   34.503443   32.489141
   7 C     6.0000    0    12.011   31.421421   35.341196   30.128575
   8 N     7.0000    0    14.007   33.086026   36.433761   34.265535
   9 C     6.0000    0    12.011   34.539577   36.263354   36.403690
  10 S    16.0000    0    32.060   34.860023   38.675244   38.363925
  11 N     7.0000    0    14.007   35.711360   33.988244   36.842322
  12 C     6.0000    0    12.011   35.385080   31.679203   35.307949
  13 C     6.0000    0    12.011   34.206664   29.536878   36.836695
  14 C     6.0000    0    12.011   35.035772   27.037475   36.470261
  15 C     6.0000    0    12.011   33.936542   25.033637   37.820025
  16 C     6.0000    0    12.011   31.985615   25.529384   39.551414
  17 C     6.0000    0    12.011   31.145634   28.013874   39.915095
  18 O     8.0000    0    15.999   29.242746   28.496292   41.563776
  19 C     6.0000    0    12.011   32.241830   30.006126   38.568061
  20 H     1.0000    0     1.008   25.306358   28.255924   32.090323
  21 H     1.0000    0     1.008   27.567560   25.782321   31.860278
  22 H     1.0000    0     1.008   26.997127   27.787062   29.222426
  23 H     1.0000    0     1.008   28.723262   31.454232   31.633367
  24 H     1.0000    0     1.008   29.345664   29.473920   34.291087
  25 H     1.0000    0     1.008   29.468837   35.889693   30.558127
  26 H     1.0000    0     1.008   31.357110   33.861830   28.677892
  27 H     1.0000    0     1.008   32.367590   36.976096   29.271356
  28 H     1.0000    0     1.008   32.273202   38.129733   33.961791
  29 H     1.0000    0     1.008   36.745855   33.910189   38.449643
  30 H     1.0000    0     1.008   37.274549   31.060274   34.699794
  31 H     1.0000    0     1.008   36.520379   26.643163   35.102928
  32 H     1.0000    0     1.008   34.589865   23.107650   37.508760
  33 H     1.0000    0     1.008   31.127412   23.985252   40.592234
  34 H     1.0000    0     1.008   28.807108   26.914056   42.377446
  35 H     1.0000    0     1.008   31.549116   31.911194   38.875742

--------------------------------
INTERNAL COORDINATES (ANGSTROEM)
--------------------------------
 C      0   0   0     0.000000000000     0.00000000     0.00000000
 C      1   0   0     1.536972840760     0.00000000     0.00000000
 O      2   1   0     1.438835973025   107.05486743     0.00000000
 C      3   2   1     1.371985763689   124.48709426   165.76425809
 O      4   3   2     1.216675395108   118.73176060   170.72732737
 C      4   3   2     1.491846585677   114.87107315    19.54997569
 C      6   4   3     1.351952476341   122.14507514   275.52566276
 C      7   6   4     1.513698008476   126.89184636   359.52642048
 N      7   6   4     1.396257872081   119.84871567   183.57471580
 C      9   7   6     1.371125720451   124.58798337     5.31407901
 S     10   9   7     1.653407485716   121.63347957   177.73387235
 N     10   9   7     1.373986854283   116.75706605   357.55081131
 C     12  10   9     1.477194591649   125.39357797   355.35062468
 C     13  12  10     1.525947862934   111.77068892   243.20349076
 C     14  13  12     1.406925691012   119.86170249   218.27635821
 C     15  14  13     1.404617966698   120.69488033   181.37672519
 C     16  15  14     1.405021403320   119.66549565     0.10515341
 C     17  16  15     1.401123211894   119.85968794     0.17296798
 O     18  17  16     1.356579421942   120.02657751   179.24463831
 C     18  17  16     1.398592344620   120.38009539   359.86227363
 H      1   2   3     1.096739794872   110.64682042   179.96022522
 H      1   2   3     1.097411959196   110.45681513    60.13937088
 H      1   2   3     1.097171178270   110.73037898   300.14561222
 H      2   1   3     1.094449708283   108.24775342   120.38517188
 H      2   1   3     1.097355006398   110.18173636   239.50911882
 H      8   7   6     1.097063331727   111.18220984   119.68337037
 H      8   7   6     1.096960808850   112.54974903   358.71176393
 H      8   7   6     1.097702338810   110.58391721   239.47786654
 H      9   7   6     1.008115584622   119.87750098   181.50165018
 H     12  10   9     1.012341290463   114.94406309   181.01852274
 H     13  12  10     1.100258702205   107.50479251   125.12694861
 H     15  14  13     1.088245653633   119.80281386     0.25402378
 H     16  15  14     1.088760913458   119.88469324   179.63936467
 H     17  16  15     1.085028089305   119.86443316   179.77378915
 H     19  18  17     0.969320822565   107.43723515     3.98034227
 H     20  18  17     1.084981463917   118.93273612   179.62297270

---------------------------
INTERNAL COORDINATES (A.U.)
---------------------------
 C      0   0   0     0.000000000000     0.00000000     0.00000000
 C      1   0   0     2.904457744311     0.00000000     0.00000000
 O      2   1   0     2.719005940651   107.05486743     0.00000000
 C      3   2   1     2.592677353011   124.48709426   165.76425809
 O      4   3   2     2.299183290634   118.73176060   170.72732737
 C      4   3   2     2.819181480755   114.87107315    19.54997569
 C      6   4   3     2.554819926361   122.14507514   275.52566276
 C      7   6   4     2.860474685481   126.89184636   359.52642048
 N      7   6   4     2.638544990565   119.84871567   183.57471580
 C      9   7   6     2.591052106827   124.58798337     5.31407901
 S     10   9   7     3.124487335778   121.63347957   177.73387235
 N     10   9   7     2.596458866202   116.75706605   357.55081131
 C     12  10   9     2.791493224726   125.39357797   355.35062468
 C     13  12  10     2.883623555587   111.77068892   243.20349076
 C     14  13  12     2.658704246791   119.86170249   218.27635821
 C     15  14  13     2.654343279845   120.69488033   181.37672519
 C     16  15  14     2.655105664573   119.66549565     0.10515341
 C     17  16  15     2.647739150360   119.85968794     0.17296798
 O     18  17  16     2.563563586383   120.02657751   179.24463831
 C     18  17  16     2.642956504331   120.38009539   359.86227363
 H      1   2   3     2.072537852482   110.64682042   179.96022522
 H      1   2   3     2.073808058971   110.45681513    60.13937088
 H      1   2   3     2.073353048962   110.73037898   300.14561222
 H      2   1   3     2.068210216004   108.24775342   120.38517188
 H      2   1   3     2.073700433780   110.18173636   239.50911882
 H      8   7   6     2.073149248530   111.18220984   119.68337037
 H      8   7   6     2.072955508371   112.54974903   358.71176393
 H      8   7   6     2.074356796917   110.58391721   239.47786654
 H      9   7   6     1.905062366273   119.87750098   181.50165018
 H     12  10   9     1.913047793035   114.94406309   181.01852274
 H     13  12  10     2.079187623632   107.50479251   125.12694861
 H     15  14  13     2.056486251796   119.80281386     0.25402378
 H     16  15  14     2.057459951754   119.88469324   179.63936467
 H     17  16  15     2.050405936399   119.86443316   179.77378915
 H     19  18  17     1.831750890555   107.43723515     3.98034227
 H     20  18  17     2.050317827185   118.93273612   179.62297270

---------------------
BASIS SET INFORMATION
---------------------
There are 5 groups of distinct atoms

 Group   1 Type C   : 18s5p2d1f contracted to 4s3p2d1f pattern {8811/311/11/1}
 Group   2 Type O   : 18s5p2d1f contracted to 4s3p2d1f pattern {8811/311/11/1}
 Group   3 Type N   : 18s5p2d1f contracted to 4s3p2d1f pattern {8811/311/11/1}
 Group   4 Type S   : 41s16p2d1f contracted to 5s4p2d1f pattern {13131311/7711/11/1}
 Group   5 Type H   : 5s2p1d contracted to 3s2p1d pattern {311/11/1}

Atom   0C    basis set group =>   1
Atom   1C    basis set group =>   1
Atom   2O    basis set group =>   2
Atom   3C    basis set group =>   1
Atom   4O    basis set group =>   2
Atom   5C    basis set group =>   1
Atom   6C    basis set group =>   1
Atom   7C    basis set group =>   1
Atom   8N    basis set group =>   3
Atom   9C    basis set group =>   1
Atom  10S    basis set group =>   4
Atom  11N    basis set group =>   3
Atom  12C    basis set group =>   1
Atom  13C    basis set group =>   1
Atom  14C    basis set group =>   1
Atom  15C    basis set group =>   1
Atom  16C    basis set group =>   1
Atom  17C    basis set group =>   1
Atom  18O    basis set group =>   2
Atom  19C    basis set group =>   1
Atom  20H    basis set group =>   5
Atom  21H    basis set group =>   5
Atom  22H    basis set group =>   5
Atom  23H    basis set group =>   5
Atom  24H    basis set group =>   5
Atom  25H    basis set group =>   5
Atom  26H    basis set group =>   5
Atom  27H    basis set group =>   5
Atom  28H    basis set group =>   5
Atom  29H    basis set group =>   5
Atom  30H    basis set group =>   5
Atom  31H    basis set group =>   5
Atom  32H    basis set group =>   5
Atom  33H    basis set group =>   5
Atom  34H    basis set group =>   5
Atom  35H    basis set group =>   5
---------------------------------
AUXILIARY/C BASIS SET INFORMATION
---------------------------------
There are 5 groups of distinct atoms

 Group   1 Type C   : 8s6p5d3f1g contracted to 8s6p5d3f1g pattern {11111111/111111/11111/111/1}
 Group   2 Type O   : 8s6p5d3f1g contracted to 8s6p5d3f1g pattern {11111111/111111/11111/111/1}
 Group   3 Type N   : 8s6p5d3f1g contracted to 8s6p5d3f1g pattern {11111111/111111/11111/111/1}
 Group   4 Type S   : 10s8p7d5f2g contracted to 10s8p7d5f2g pattern {1111111111/11111111/1111111/11111/11}
 Group   5 Type H   : 4s3p2d1f contracted to 4s3p2d1f pattern {1111/111/11/1}

Atom   0C    basis set group =>   1
Atom   1C    basis set group =>   1
Atom   2O    basis set group =>   2
Atom   3C    basis set group =>   1
Atom   4O    basis set group =>   2
Atom   5C    basis set group =>   1
Atom   6C    basis set group =>   1
Atom   7C    basis set group =>   1
Atom   8N    basis set group =>   3
Atom   9C    basis set group =>   1
Atom  10S    basis set group =>   4
Atom  11N    basis set group =>   3
Atom  12C    basis set group =>   1
Atom  13C    basis set group =>   1
Atom  14C    basis set group =>   1
Atom  15C    basis set group =>   1
Atom  16C    basis set group =>   1
Atom  17C    basis set group =>   1
Atom  18O    basis set group =>   2
Atom  19C    basis set group =>   1
Atom  20H    basis set group =>   5
Atom  21H    basis set group =>   5
Atom  22H    basis set group =>   5
Atom  23H    basis set group =>   5
Atom  24H    basis set group =>   5
Atom  25H    basis set group =>   5
Atom  26H    basis set group =>   5
Atom  27H    basis set group =>   5
Atom  28H    basis set group =>   5
Atom  29H    basis set group =>   5
Atom  30H    basis set group =>   5
Atom  31H    basis set group =>   5
Atom  32H    basis set group =>   5
Atom  33H    basis set group =>   5
Atom  34H    basis set group =>   5
Atom  35H    basis set group =>   5
------------------------------------------------------------------------------
                           ORCA GTO INTEGRAL CALCULATION
------------------------------------------------------------------------------
------------------------------------------------------------------------------
                   ___                                                        
                  /   \      - P O W E R E D   B Y -                         
                 /     \                                                     
                 |  |  |   _    _      __       _____    __    __             
                 |  |  |  | |  | |    /  \     |  _  \  |  |  /  |          
                  \  \/   | |  | |   /    \    | | | |  |  | /  /          
                 / \  \   | |__| |  /  /\  \   | |_| |  |  |/  /          
                |  |  |   |  __  | /  /__\  \  |    /   |      \           
                |  |  |   | |  | | |   __   |  |    \   |  |\   \          
                \     /   | |  | | |  |  |  |  | |\  \  |  | \   \       
                 \___/    |_|  |_| |__|  |__|  |_| \__\ |__|  \__/        
                                                                              
                      - O R C A' S   B I G   F R I E N D -                    
                                      &                                       
                       - I N T E G R A L  F E E D E R -                       
                                                                              
 v1 FN, 2020, v2 2021                                                         
------------------------------------------------------------------------------


Reading SHARK input file CONFS/Conf917.orca.SHARKINP.tmp ... ok
----------------------
SHARK INTEGRAL PACKAGE
----------------------

Number of atoms                             ...     36
Number of basis functions                   ...    828
Number of shells                            ...    298
Maximum angular momentum                    ...      3
Integral batch strategy                     ... SHARK/LIBINT Hybrid
RI-J (if used) integral strategy            ... SPLIT-RIJ (Revised 2003 algorithm where possible)
Printlevel                                  ...      1
Contraction scheme used                     ... SEGMENTED contraction
Coulomb Range Separation                    ... NOT USED
Exchange Range Separation                   ... NOT USED
Finite Nucleus Model                        ... NOT USED
Auxiliary Coulomb fitting basis             ... NOT available
Auxiliary J/K fitting basis                 ... NOT available
Auxiliary Correlation fitting basis         ... AVAILABLE
   # of basis functions in Aux-C            ...   2141
   # of shells in Aux-C                     ...    629
   Maximum angular momentum in Aux-C        ...      4
Auxiliary 'external' fitting basis          ... NOT available
Integral threshold                          ...     2.500000e-11
Primitive cut-off                           ...     2.500000e-12
Primitive pair pre-selection threshold      ...     2.500000e-12

Calculating pre-screening integrals         ... done (  0.9 sec) Dimension = 298
Organizing shell pair data                  ... done (  1.3 sec)
Shell pair information
Total number of shell pairs                 ...     44551
Shell pairs after pre-screening             ...     34237
Total number of primitive shell pairs       ...    234348
Primitive shell pairs kept                  ...     97546
          la=0 lb=0:   6827 shell pairs
          la=1 lb=0:   9494 shell pairs
          la=1 lb=1:   3358 shell pairs
          la=2 lb=0:   5461 shell pairs
          la=2 lb=1:   3752 shell pairs
          la=2 lb=2:   1084 shell pairs
          la=3 lb=0:   1989 shell pairs
          la=3 lb=1:   1358 shell pairs
          la=3 lb=2:    763 shell pairs
          la=3 lb=3:    151 shell pairs

Calculating one electron integrals          ... done (  0.4 sec)
Calculating RI/C V-Matrix + Cholesky decomp.... done (  0.9 sec)
Calculating Nuclear repulsion               ... done (  0.0 sec) ENN=   1723.736939145578 Eh

SHARK setup successfully completed in   4.0 seconds

Maximum memory used throughout the entire GTOINT-calculation: 508.4 MB
-------------------------------------------------------------------------------
                                 ORCA SCF
-------------------------------------------------------------------------------

------------
SCF SETTINGS
------------
Hamiltonian:
 Ab initio Hamiltonian  Method          .... Hartree-Fock(GTOs)


General Settings:
 Integral files         IntName         .... CONFS/Conf917.orca
 Hartree-Fock type      HFTyp           .... RHF
 Total Charge           Charge          ....    0
 Multiplicity           Mult            ....    1
 Number of Electrons    NEL             ....  154
 Basis Dimension        Dim             ....  828
 Nuclear Repulsion      ENuc            ....   1723.7369391456 Eh

Convergence Acceleration:
 DIIS                   CNVDIIS         .... on
   Start iteration      DIISMaxIt       ....    12
   Startup error        DIISStart       ....  0.200000
   # of expansion vecs  DIISMaxEq       ....     5
   Bias factor          DIISBfac        ....   1.050
   Max. coefficient     DIISMaxC        ....  10.000
 Trust-Rad. Augm. Hess. CNVTRAH         .... auto
   Auto Start mean grad. ratio tolernc. ....  1.125000
   Auto Start start iteration           ....    20
   Auto Start num. interpolation iter.  ....    10
   Max. Number of Micro iterations      ....    16
   Max. Number of Macro iterations      .... Maxiter - #DIIS iter
   Number of Davidson start vectors     ....     2
   Converg. threshold I  (grad. norm)   ....   1.000e-05
   Converg. threshold II (energy diff.) ....   1.000e-08
   Grad. Scal. Fac. for Micro threshold ....   0.100
   Minimum threshold for Micro iter.    ....   0.010
   NR start threshold (gradient norm)   ....   0.001
   Initial trust radius                 ....   0.400
   Minimum AH scaling param. (alpha)    ....   1.000
   Maximum AH scaling param. (alpha)    .... 1000.000
   Orbital update algorithm             .... Taylor
   White noise on init. David. guess    .... on
   Maximum white noise                  ....   0.010
   Quad. conv. algorithm                .... NR
 SOSCF                  CNVSOSCF        .... on
   Start iteration      SOSCFMaxIt      ....   150
   Startup grad/error   SOSCFStart      ....  0.003300
 Level Shifting         CNVShift        .... on
   Level shift para.    LevelShift      ....    0.2500
   Turn off err/grad.   ShiftErr        ....    0.0010
 Zerner damping         CNVZerner       .... off
 Static damping         CNVDamp         .... on
   Fraction old density DampFac         ....    0.7000
   Max. Damping (<1)    DampMax         ....    0.9800
   Min. Damping (>=0)   DampMin         ....    0.0000
   Turn off err/grad.   DampErr         ....    0.1000
 Fernandez-Rico         CNVRico         .... off

SCF Procedure:
 Maximum # iterations   MaxIter         ....   125
 SCF integral mode      SCFMode         .... Direct
   Integral package                     .... SHARK and LIBINT hybrid scheme
 Reset frequency        DirectResetFreq ....    20
 Integral Threshold     Thresh          ....  2.500e-11 Eh
 Primitive CutOff       TCut            ....  2.500e-12 Eh

Convergence Tolerance:
 Convergence Check Mode ConvCheckMode   .... Total+1el-Energy
 Convergence forced     ConvForced      .... 1
 Energy Change          TolE            ....  1.000e-08 Eh
 1-El. energy change                    ....  1.000e-05 Eh
 Orbital Gradient       TolG            ....  1.000e-05
 Orbital Rotation angle TolX            ....  1.000e-05
 DIIS Error             TolErr          ....  5.000e-07


Diagonalization of the overlap matrix:
Smallest eigenvalue                        ... 3.261e-05
Time for diagonalization                   ...    0.137 sec
Threshold for overlap eigenvalues          ... 1.000e-08
Number of eigenvalues below threshold      ... 0
Time for construction of square roots      ...    0.062 sec
Total time needed                          ...    0.201 sec

Time for model grid setup =    1.701 sec

------------------------------
INITIAL GUESS: MODEL POTENTIAL
------------------------------
Loading Hartree-Fock densities                     ... done
Calculating cut-offs                               ... done
Initializing the effective Hamiltonian             ... done
Setting up the integral package (SHARK)            ... done
Starting the Coulomb interaction                   ... done (   4.6 sec)
Reading the grid                                   ... done
Mapping shells                                     ... done
Starting the XC term evaluation                    ... done (   1.5 sec)
Transforming the Hamiltonian                       ... done (   0.1 sec)
Diagonalizing the Hamiltonian                      ... done (   0.1 sec)
Back transforming the eigenvectors                 ... done (   0.0 sec)
Now organizing SCF variables                       ... done
                      ------------------
                      INITIAL GUESS DONE (   8.1 sec)
                      ------------------
--------------
SCF ITERATIONS
--------------
ITER       Energy         Delta-E        Max-DP      RMS-DP      [F,P]     Damp
               ***  Starting incremental Fock matrix formation  ***
  0  -1269.9919838135   0.000000000000 0.04927098  0.00044904  0.3059819 0.7000
  1  -1270.2596693122  -0.267685498723 0.03607335  0.00036430  0.1804861 0.7000
                               ***Turning on DIIS***
  2  -1270.4263839304  -0.166714618141 0.02585020  0.00024223  0.1098401 0.7000
  3  -1272.5419997326  -2.115615802174 0.06324464  0.00051455  0.0829953 0.0000
  4  -1270.7388661537   1.803133578886 0.01252738  0.00010293  0.0066536 0.0000
  5  -1270.7945088233  -0.055642669662 0.00482040  0.00005284  0.0035298 0.0000
  6  -1270.7733098957   0.021198927641 0.00222068  0.00002677  0.0033106 0.0000
                      *** Initiating the SOSCF procedure ***
                           *** Shutting down DIIS ***
                      *** Re-Reading the Fockian *** 
                      *** Removing any level shift *** 
ITER      Energy       Delta-E        Grad      Rot      Max-DP    RMS-DP
  7  -1270.78829164  -0.0149817427  0.000815  0.000815  0.001235  0.000015
               *** Restarting incremental Fock matrix formation ***
  8  -1270.78866452  -0.0003728807  0.000432  0.001059  0.000725  0.000008
  9  -1270.78867783  -0.0000133155  0.000199  0.001241  0.001163  0.000011
 10  -1270.78868340  -0.0000055702  0.000059  0.000088  0.000159  0.000002
 11  -1270.78868395  -0.0000005453  0.000029  0.000052  0.000062  0.000001
 12  -1270.78868405  -0.0000001003  0.000007  0.000018  0.000032  0.000000
 13  -1270.78868406  -0.0000000095  0.000006  0.000024  0.000014  0.000000
                  ***Gradient check signals convergence***
              ***Rediagonalizing the Fockian in SOSCF/NRSCF***

               *****************************************************
               *                     SUCCESS                       *
               *           SCF CONVERGED AFTER  14 CYCLES          *
               *****************************************************


----------------
TOTAL SCF ENERGY
----------------

Total Energy       :        -1270.78868407 Eh          -34579.91810 eV

Components:
Nuclear Repulsion  :         1723.73693915 Eh           46905.26673 eV
Electronic Energy  :        -2994.52562322 Eh          -81485.18483 eV
One Electron Energy:        -5168.11312989 Eh         -140631.50783 eV
Two Electron Energy:         2173.58750667 Eh           59146.32300 eV

Virial components:
Potential Energy   :        -2539.80103034 Eh          -69111.49960 eV
Kinetic Energy     :         1269.01234627 Eh           34531.58149 eV
Virial Ratio       :            2.00139978


---------------
SCF CONVERGENCE
---------------

  Last Energy change         ...   -1.0889e-08  Tolerance :   1.0000e-08
  Last MAX-Density change    ...    3.4649e-06  Tolerance :   1.0000e-07
  Last RMS-Density change    ...    4.0811e-08  Tolerance :   5.0000e-09
  Last Orbital Gradient      ...    1.4238e-06  Tolerance :   1.0000e-05
  Last Orbital Rotation      ...    4.3863e-06  Tolerance :   1.0000e-05

             **** THE GBW FILE WAS UPDATED (CONFS/Conf917.orca.gbw) ****
             **** DENSITY CONFS/Conf917.orca.scfp WAS UPDATED ****
             **** ENERGY FILE WAS UPDATED (CONFS/Conf917.orca.en.tmp) ****
             **** THE GBW FILE WAS UPDATED (CONFS/Conf917.orca.gbw) ****
             **** DENSITY CONFS/Conf917.orca.scfp WAS UPDATED ****
----------------
ORBITAL ENERGIES
----------------

  NO   OCC          E(Eh)            E(eV) 
   0   2.0000     -91.889305     -2500.4351 
   1   2.0000     -20.601966      -560.6080 
   2   2.0000     -20.599820      -560.5496 
   3   2.0000     -20.552556      -559.2635 
   4   2.0000     -15.625162      -425.1823 
   5   2.0000     -15.611699      -424.8159 
   6   2.0000     -11.397665      -310.1462 
   7   2.0000     -11.386315      -309.8374 
   8   2.0000     -11.326305      -308.2044 
   9   2.0000     -11.316733      -307.9440 
  10   2.0000     -11.316581      -307.9398 
  11   2.0000     -11.302058      -307.5446 
  12   2.0000     -11.271056      -306.7010 
  13   2.0000     -11.265137      -306.5399 
  14   2.0000     -11.264070      -306.5109 
  15   2.0000     -11.256878      -306.3152 
  16   2.0000     -11.245989      -306.0189 
  17   2.0000     -11.242031      -305.9112 
  18   2.0000     -11.239188      -305.8338 
  19   2.0000     -11.232824      -305.6607 
  20   2.0000      -8.894434      -242.0299 
  21   2.0000      -6.576027      -178.9428 
  22   2.0000      -6.573996      -178.8875 
  23   2.0000      -6.573425      -178.8720 
  24   2.0000      -1.450862       -39.4800 
  25   2.0000      -1.419654       -38.6307 
  26   2.0000      -1.361020       -37.0352 
  27   2.0000      -1.339188       -36.4412 
  28   2.0000      -1.239494       -33.7283 
  29   2.0000      -1.161315       -31.6010 
  30   2.0000      -1.125614       -30.6295 
  31   2.0000      -1.049340       -28.5540 
  32   2.0000      -1.040577       -28.3155 
  33   2.0000      -1.019150       -27.7325 
  34   2.0000      -1.005318       -27.3561 
  35   2.0000      -0.989092       -26.9146 
  36   2.0000      -0.928071       -25.2541 
  37   2.0000      -0.881084       -23.9755 
  38   2.0000      -0.855500       -23.2793 
  39   2.0000      -0.841689       -22.9035 
  40   2.0000      -0.837393       -22.7866 
  41   2.0000      -0.836593       -22.7649 
  42   2.0000      -0.757491       -20.6124 
  43   2.0000      -0.739096       -20.1118 
  44   2.0000      -0.732023       -19.9193 
  45   2.0000      -0.697474       -18.9792 
  46   2.0000      -0.688377       -18.7317 
  47   2.0000      -0.681093       -18.5335 
  48   2.0000      -0.677963       -18.4483 
  49   2.0000      -0.665278       -18.1031 
  50   2.0000      -0.655365       -17.8334 
  51   2.0000      -0.651396       -17.7254 
  52   2.0000      -0.639510       -17.4020 
  53   2.0000      -0.612547       -16.6682 
  54   2.0000      -0.608035       -16.5455 
  55   2.0000      -0.603643       -16.4260 
  56   2.0000      -0.595154       -16.1950 
  57   2.0000      -0.584029       -15.8922 
  58   2.0000      -0.577217       -15.7069 
  59   2.0000      -0.572458       -15.5774 
  60   2.0000      -0.564588       -15.3632 
  61   2.0000      -0.559463       -15.2238 
  62   2.0000      -0.551454       -15.0058 
  63   2.0000      -0.526703       -14.3323 
  64   2.0000      -0.520379       -14.1602 
  65   2.0000      -0.514871       -14.0104 
  66   2.0000      -0.507586       -13.8121 
  67   2.0000      -0.502416       -13.6714 
  68   2.0000      -0.487448       -13.2641 
  69   2.0000      -0.468986       -12.7618 
  70   2.0000      -0.453613       -12.3434 
  71   2.0000      -0.451384       -12.2828 
  72   2.0000      -0.356883        -9.7113 
  73   2.0000      -0.351473        -9.5641 
  74   2.0000      -0.329099        -8.9552 
  75   2.0000      -0.324431        -8.8282 
  76   2.0000      -0.317971        -8.6524 
  77   0.0000       0.090370         2.4591 
  78   0.0000       0.104026         2.8307 
  79   0.0000       0.110223         2.9993 
  80   0.0000       0.128242         3.4897 
  81   0.0000       0.130037         3.5385 
  82   0.0000       0.142236         3.8705 
  83   0.0000       0.142847         3.8871 
  84   0.0000       0.150582         4.0975 
  85   0.0000       0.158743         4.3196 
  86   0.0000       0.169450         4.6110 
  87   0.0000       0.173307         4.7159 
  88   0.0000       0.180675         4.9164 
  89   0.0000       0.192887         5.2487 
  90   0.0000       0.196401         5.3444 
  91   0.0000       0.206505         5.6193 
  92   0.0000       0.207983         5.6595 
  93   0.0000       0.216882         5.9017 
  94   0.0000       0.219037         5.9603 
  95   0.0000       0.229878         6.2553 
  96   0.0000       0.235665         6.4128 
  97   0.0000       0.245341         6.6761 
  98   0.0000       0.253841         6.9074 
  99   0.0000       0.272230         7.4078 
 100   0.0000       0.281961         7.6725 
 101   0.0000       0.297845         8.1048 
 102   0.0000       0.308285         8.3889 
 103   0.0000       0.318636         8.6705 
 104   0.0000       0.321314         8.7434 
 105   0.0000       0.334497         9.1021 
 106   0.0000       0.341541         9.2938 
 107   0.0000       0.346578         9.4309 
 108   0.0000       0.350108         9.5269 
 109   0.0000       0.362349         9.8600 
 110   0.0000       0.365910         9.9569 
 111   0.0000       0.372171        10.1273 
 112   0.0000       0.379326        10.3220 
 113   0.0000       0.388859        10.5814 
 114   0.0000       0.400512        10.8985 
 115   0.0000       0.404117        10.9966 
 116   0.0000       0.410752        11.1771 
 117   0.0000       0.418683        11.3929 
 118   0.0000       0.430863        11.7244 
 119   0.0000       0.439660        11.9638 
 120   0.0000       0.445995        12.1362 
 121   0.0000       0.451097        12.2750 
 122   0.0000       0.453005        12.3269 
 123   0.0000       0.458236        12.4692 
 124   0.0000       0.464691        12.6449 
 125   0.0000       0.467529        12.7221 
 126   0.0000       0.476873        12.9764 
 127   0.0000       0.483062        13.1448 
 128   0.0000       0.487516        13.2660 
 129   0.0000       0.495679        13.4881 
 130   0.0000       0.500874        13.6295 
 131   0.0000       0.508535        13.8380 
 132   0.0000       0.512515        13.9462 
 133   0.0000       0.516718        14.0606 
 134   0.0000       0.521672        14.1954 
 135   0.0000       0.527553        14.3554 
 136   0.0000       0.532428        14.4881 
 137   0.0000       0.537176        14.6173 
 138   0.0000       0.541853        14.7446 
 139   0.0000       0.547913        14.9095 
 140   0.0000       0.551551        15.0085 
 141   0.0000       0.556883        15.1536 
 142   0.0000       0.567170        15.4335 
 143   0.0000       0.572150        15.5690 
 144   0.0000       0.575994        15.6736 
 145   0.0000       0.578929        15.7535 
 146   0.0000       0.586002        15.9459 
 147   0.0000       0.586441        15.9579 
 148   0.0000       0.591709        16.1012 
 149   0.0000       0.597861        16.2686 
 150   0.0000       0.601524        16.3683 
 151   0.0000       0.604308        16.4441 
 152   0.0000       0.607478        16.5303 
 153   0.0000       0.613228        16.6868 
 154   0.0000       0.620436        16.8829 
 155   0.0000       0.626489        17.0476 
 156   0.0000       0.628390        17.0993 
 157   0.0000       0.633914        17.2497 
 158   0.0000       0.635615        17.2960 
 159   0.0000       0.639655        17.4059 
 160   0.0000       0.644368        17.5341 
 161   0.0000       0.647854        17.6290 
 162   0.0000       0.657532        17.8924 
 163   0.0000       0.664006        18.0685 
 164   0.0000       0.665456        18.1080 
 165   0.0000       0.674900        18.3650 
 166   0.0000       0.677346        18.4315 
 167   0.0000       0.686031        18.6679 
 168   0.0000       0.692854        18.8535 
 169   0.0000       0.694356        18.8944 
 170   0.0000       0.702773        19.1234 
 171   0.0000       0.710395        19.3308 
 172   0.0000       0.714114        19.4320 
 173   0.0000       0.715477        19.4691 
 174   0.0000       0.728697        19.8289 
 175   0.0000       0.735118        20.0036 
 176   0.0000       0.740285        20.1442 
 177   0.0000       0.755838        20.5674 
 178   0.0000       0.760439        20.6926 
 179   0.0000       0.762261        20.7422 
 180   0.0000       0.768173        20.9030 
 181   0.0000       0.774749        21.0820 
 182   0.0000       0.785621        21.3778 
 183   0.0000       0.789898        21.4942 
 184   0.0000       0.805496        21.9187 
 185   0.0000       0.819300        22.2943 
 186   0.0000       0.822387        22.3783 
 187   0.0000       0.831179        22.6175 
 188   0.0000       0.840991        22.8845 
 189   0.0000       0.844364        22.9763 
 190   0.0000       0.846274        23.0283 
 191   0.0000       0.850390        23.1403 
 192   0.0000       0.861257        23.4360 
 193   0.0000       0.868519        23.6336 
 194   0.0000       0.873528        23.7699 
 195   0.0000       0.879434        23.9306 
 196   0.0000       0.891714        24.2648 
 197   0.0000       0.895053        24.3556 
 198   0.0000       0.904490        24.6124 
 199   0.0000       0.914782        24.8925 
 200   0.0000       0.917120        24.9561 
 201   0.0000       0.918266        24.9873 
 202   0.0000       0.926577        25.2134 
 203   0.0000       0.932718        25.3805 
 204   0.0000       0.937424        25.5086 
 205   0.0000       0.949846        25.8466 
 206   0.0000       0.955347        25.9963 
 207   0.0000       0.958437        26.0804 
 208   0.0000       0.968698        26.3596 
 209   0.0000       0.970543        26.4098 
 210   0.0000       0.985375        26.8134 
 211   0.0000       0.989447        26.9242 
 212   0.0000       0.993621        27.0378 
 213   0.0000       1.000493        27.2248 
 214   0.0000       1.008093        27.4316 
 215   0.0000       1.019963        27.7546 
 216   0.0000       1.020801        27.7774 
 217   0.0000       1.022596        27.8263 
 218   0.0000       1.036619        28.2078 
 219   0.0000       1.038485        28.2586 
 220   0.0000       1.042380        28.3646 
 221   0.0000       1.053951        28.6795 
 222   0.0000       1.059993        28.8439 
 223   0.0000       1.069546        29.1038 
 224   0.0000       1.075975        29.2788 
 225   0.0000       1.079228        29.3673 
 226   0.0000       1.089282        29.6409 
 227   0.0000       1.091993        29.7146 
 228   0.0000       1.097138        29.8546 
 229   0.0000       1.104553        30.0564 
 230   0.0000       1.116872        30.3916 
 231   0.0000       1.125005        30.6130 
 232   0.0000       1.127841        30.6901 
 233   0.0000       1.132205        30.8089 
 234   0.0000       1.144046        31.1311 
 235   0.0000       1.145485        31.1702 
 236   0.0000       1.158053        31.5122 
 237   0.0000       1.169879        31.8340 
 238   0.0000       1.181123        32.1400 
 239   0.0000       1.184384        32.2287 
 240   0.0000       1.189173        32.3590 
 241   0.0000       1.197039        32.5731 
 242   0.0000       1.206903        32.8415 
 243   0.0000       1.212822        33.0026 
 244   0.0000       1.224889        33.3309 
 245   0.0000       1.233152        33.5558 
 246   0.0000       1.241151        33.7734 
 247   0.0000       1.244268        33.8583 
 248   0.0000       1.253832        34.1185 
 249   0.0000       1.261335        34.3227 
 250   0.0000       1.270454        34.5708 
 251   0.0000       1.278485        34.7893 
 252   0.0000       1.283256        34.9192 
 253   0.0000       1.291904        35.1545 
 254   0.0000       1.294075        35.2136 
 255   0.0000       1.313887        35.7527 
 256   0.0000       1.316710        35.8295 
 257   0.0000       1.320751        35.9395 
 258   0.0000       1.328595        36.1529 
 259   0.0000       1.330045        36.1924 
 260   0.0000       1.346109        36.6295 
 261   0.0000       1.347001        36.6538 
 262   0.0000       1.368154        37.2294 
 263   0.0000       1.370747        37.2999 
 264   0.0000       1.374858        37.4118 
 265   0.0000       1.387589        37.7582 
 266   0.0000       1.391065        37.8528 
 267   0.0000       1.401582        38.1390 
 268   0.0000       1.407102        38.2892 
 269   0.0000       1.417015        38.5590 
 270   0.0000       1.422263        38.7018 
 271   0.0000       1.436181        39.0805 
 272   0.0000       1.445719        39.3400 
 273   0.0000       1.448124        39.4055 
 274   0.0000       1.457547        39.6619 
 275   0.0000       1.466403        39.9029 
 276   0.0000       1.472091        40.0576 
 277   0.0000       1.473053        40.0838 
 278   0.0000       1.482843        40.3502 
 279   0.0000       1.489510        40.5316 
 280   0.0000       1.501003        40.8444 
 281   0.0000       1.504763        40.9467 
 282   0.0000       1.517613        41.2963 
 283   0.0000       1.521217        41.3944 
 284   0.0000       1.528516        41.5930 
 285   0.0000       1.531138        41.6644 
 286   0.0000       1.541856        41.9560 
 287   0.0000       1.543893        42.0115 
 288   0.0000       1.545564        42.0569 
 289   0.0000       1.548462        42.1358 
 290   0.0000       1.561135        42.4806 
 291   0.0000       1.570105        42.7247 
 292   0.0000       1.572684        42.7949 
 293   0.0000       1.580687        43.0127 
 294   0.0000       1.587986        43.2113 
 295   0.0000       1.599423        43.5225 
 296   0.0000       1.613355        43.9016 
 297   0.0000       1.617083        44.0031 
 298   0.0000       1.621428        44.1213 
 299   0.0000       1.628126        44.3036 
 300   0.0000       1.634976        44.4900 
 301   0.0000       1.642859        44.7045 
 302   0.0000       1.653636        44.9977 
 303   0.0000       1.660167        45.1754 
 304   0.0000       1.676941        45.6319 
 305   0.0000       1.681804        45.7642 
 306   0.0000       1.687990        45.9325 
 307   0.0000       1.696157        46.1548 
 308   0.0000       1.698923        46.2300 
 309   0.0000       1.708982        46.5038 
 310   0.0000       1.719061        46.7780 
 311   0.0000       1.727724        47.0138 
 312   0.0000       1.736646        47.2565 
 313   0.0000       1.744565        47.4720 
 314   0.0000       1.750849        47.6430 
 315   0.0000       1.770071        48.1661 
 316   0.0000       1.783737        48.5380 
 317   0.0000       1.791545        48.7504 
 318   0.0000       1.805634        49.1338 
 319   0.0000       1.810019        49.2531 
 320   0.0000       1.818366        49.4803 
 321   0.0000       1.835155        49.9371 
 322   0.0000       1.843602        50.1670 
 323   0.0000       1.853694        50.4416 
 324   0.0000       1.862885        50.6917 
 325   0.0000       1.877811        51.0978 
 326   0.0000       1.887562        51.3632 
 327   0.0000       1.901457        51.7413 
 328   0.0000       1.906450        51.8771 
 329   0.0000       1.913137        52.0591 
 330   0.0000       1.935393        52.6647 
 331   0.0000       1.939540        52.7776 
 332   0.0000       1.941816        52.8395 
 333   0.0000       1.963874        53.4397 
 334   0.0000       1.981728        53.9256 
 335   0.0000       1.984427        53.9990 
 336   0.0000       2.003371        54.5145 
 337   0.0000       2.010393        54.7056 
 338   0.0000       2.017830        54.9079 
 339   0.0000       2.024613        55.0925 
 340   0.0000       2.029161        55.2163 
 341   0.0000       2.053664        55.8830 
 342   0.0000       2.069066        56.3022 
 343   0.0000       2.072429        56.3937 
 344   0.0000       2.092438        56.9381 
 345   0.0000       2.096635        57.0523 
 346   0.0000       2.123315        57.7783 
 347   0.0000       2.145360        58.3782 
 348   0.0000       2.150044        58.5057 
 349   0.0000       2.166273        58.9473 
 350   0.0000       2.183476        59.4154 
 351   0.0000       2.206040        60.0294 
 352   0.0000       2.218255        60.3618 
 353   0.0000       2.223776        60.5120 
 354   0.0000       2.234920        60.8153 
 355   0.0000       2.264591        61.6226 
 356   0.0000       2.279218        62.0207 
 357   0.0000       2.290605        62.3305 
 358   0.0000       2.302820        62.6629 
 359   0.0000       2.306011        62.7497 
 360   0.0000       2.327932        63.3462 
 361   0.0000       2.331841        63.4526 
 362   0.0000       2.345943        63.8364 
 363   0.0000       2.359906        64.2163 
 364   0.0000       2.371578        64.5339 
 365   0.0000       2.373669        64.5908 
 366   0.0000       2.383008        64.8450 
 367   0.0000       2.385291        64.9071 
 368   0.0000       2.406052        65.4720 
 369   0.0000       2.429135        66.1001 
 370   0.0000       2.430947        66.1494 
 371   0.0000       2.436661        66.3049 
 372   0.0000       2.456552        66.8462 
 373   0.0000       2.478156        67.4340 
 374   0.0000       2.484329        67.6020 
 375   0.0000       2.499489        68.0145 
 376   0.0000       2.513182        68.3872 
 377   0.0000       2.527479        68.7762 
 378   0.0000       2.535478        68.9939 
 379   0.0000       2.562249        69.7223 
 380   0.0000       2.571107        69.9634 
 381   0.0000       2.581469        70.2454 
 382   0.0000       2.587936        70.4213 
 383   0.0000       2.592736        70.5519 
 384   0.0000       2.604187        70.8635 
 385   0.0000       2.611827        71.0714 
 386   0.0000       2.626332        71.4661 
 387   0.0000       2.645931        71.9994 
 388   0.0000       2.653724        72.2115 
 389   0.0000       2.667238        72.5792 
 390   0.0000       2.678536        72.8867 
 391   0.0000       2.686618        73.1066 
 392   0.0000       2.694672        73.3257 
 393   0.0000       2.710793        73.7644 
 394   0.0000       2.721220        74.0482 
 395   0.0000       2.721830        74.0648 
 396   0.0000       2.750641        74.8487 
 397   0.0000       2.758673        75.0673 
 398   0.0000       2.762834        75.1805 
 399   0.0000       2.771492        75.4161 
 400   0.0000       2.782688        75.7208 
 401   0.0000       2.786959        75.8370 
 402   0.0000       2.789271        75.8999 
 403   0.0000       2.810696        76.4829 
 404   0.0000       2.814996        76.5999 
 405   0.0000       2.835732        77.1642 
 406   0.0000       2.841224        77.3136 
 407   0.0000       2.847094        77.4734 
 408   0.0000       2.858592        77.7862 
 409   0.0000       2.870596        78.1129 
 410   0.0000       2.875577        78.2484 
 411   0.0000       2.882259        78.4302 
 412   0.0000       2.891388        78.6787 
 413   0.0000       2.906561        79.0915 
 414   0.0000       2.918346        79.4122 
 415   0.0000       2.925275        79.6008 
 416   0.0000       2.936026        79.8933 
 417   0.0000       2.944084        80.1126 
 418   0.0000       2.948504        80.2329 
 419   0.0000       2.956180        80.4417 
 420   0.0000       2.963003        80.6274 
 421   0.0000       2.976379        80.9914 
 422   0.0000       2.988923        81.3327 
 423   0.0000       2.999542        81.6217 
 424   0.0000       3.015551        82.0573 
 425   0.0000       3.019484        82.1643 
 426   0.0000       3.023201        82.2655 
 427   0.0000       3.032397        82.5157 
 428   0.0000       3.035582        82.6024 
 429   0.0000       3.039596        82.7116 
 430   0.0000       3.051928        83.0472 
 431   0.0000       3.056047        83.1593 
 432   0.0000       3.061857        83.3174 
 433   0.0000       3.074125        83.6512 
 434   0.0000       3.080876        83.8349 
 435   0.0000       3.089532        84.0704 
 436   0.0000       3.094183        84.1970 
 437   0.0000       3.096807        84.2684 
 438   0.0000       3.097141        84.2775 
 439   0.0000       3.098126        84.3043 
 440   0.0000       3.120532        84.9140 
 441   0.0000       3.123467        84.9939 
 442   0.0000       3.127350        85.0995 
 443   0.0000       3.135478        85.3207 
 444   0.0000       3.138706        85.4085 
 445   0.0000       3.148108        85.6644 
 446   0.0000       3.157704        85.9255 
 447   0.0000       3.170659        86.2780 
 448   0.0000       3.174494        86.3824 
 449   0.0000       3.178987        86.5046 
 450   0.0000       3.193467        86.8987 
 451   0.0000       3.201509        87.1175 
 452   0.0000       3.209510        87.3352 
 453   0.0000       3.218167        87.5708 
 454   0.0000       3.225243        87.7633 
 455   0.0000       3.235286        88.0366 
 456   0.0000       3.241988        88.2190 
 457   0.0000       3.249696        88.4287 
 458   0.0000       3.255106        88.5759 
 459   0.0000       3.268043        88.9280 
 460   0.0000       3.276370        89.1546 
 461   0.0000       3.280776        89.2744 
 462   0.0000       3.288109        89.4740 
 463   0.0000       3.292773        89.6009 
 464   0.0000       3.297405        89.7269 
 465   0.0000       3.302915        89.8769 
 466   0.0000       3.311519        90.1110 
 467   0.0000       3.314297        90.1866 
 468   0.0000       3.327513        90.5462 
 469   0.0000       3.330648        90.6315 
 470   0.0000       3.336691        90.7960 
 471   0.0000       3.345321        91.0308 
 472   0.0000       3.349112        91.1340 
 473   0.0000       3.354911        91.2918 
 474   0.0000       3.357126        91.3520 
 475   0.0000       3.366528        91.6079 
 476   0.0000       3.368423        91.6594 
 477   0.0000       3.376776        91.8867 
 478   0.0000       3.381733        92.0216 
 479   0.0000       3.385179        92.1154 
 480   0.0000       3.389679        92.2379 
 481   0.0000       3.396647        92.4275 
 482   0.0000       3.403258        92.6073 
 483   0.0000       3.406310        92.6904 
 484   0.0000       3.409051        92.7650 
 485   0.0000       3.421004        93.0902 
 486   0.0000       3.422443        93.1294 
 487   0.0000       3.429846        93.3308 
 488   0.0000       3.436116        93.5015 
 489   0.0000       3.444082        93.7182 
 490   0.0000       3.451871        93.9302 
 491   0.0000       3.454626        94.0051 
 492   0.0000       3.457633        94.0870 
 493   0.0000       3.459629        94.1413 
 494   0.0000       3.468411        94.3803 
 495   0.0000       3.473606        94.5216 
 496   0.0000       3.481937        94.7483 
 497   0.0000       3.497313        95.1667 
 498   0.0000       3.504840        95.3715 
 499   0.0000       3.509898        95.5092 
 500   0.0000       3.512230        95.5726 
 501   0.0000       3.521210        95.8170 
 502   0.0000       3.527047        95.9758 
 503   0.0000       3.538285        96.2816 
 504   0.0000       3.545764        96.4851 
 505   0.0000       3.549586        96.5891 
 506   0.0000       3.554073        96.7112 
 507   0.0000       3.563747        96.9745 
 508   0.0000       3.575803        97.3026 
 509   0.0000       3.585638        97.5702 
 510   0.0000       3.597129        97.8828 
 511   0.0000       3.605168        98.1016 
 512   0.0000       3.608016        98.1791 
 513   0.0000       3.615499        98.3827 
 514   0.0000       3.618852        98.4740 
 515   0.0000       3.620684        98.5238 
 516   0.0000       3.627287        98.7035 
 517   0.0000       3.632280        98.8394 
 518   0.0000       3.638709        99.0143 
 519   0.0000       3.642161        99.1082 
 520   0.0000       3.650483        99.3347 
 521   0.0000       3.658402        99.5502 
 522   0.0000       3.663642        99.6928 
 523   0.0000       3.672906        99.9449 
 524   0.0000       3.675724       100.0215 
 525   0.0000       3.687276       100.3359 
 526   0.0000       3.692483       100.4776 
 527   0.0000       3.698189       100.6328 
 528   0.0000       3.712191       101.0139 
 529   0.0000       3.714891       101.0873 
 530   0.0000       3.716111       101.1205 
 531   0.0000       3.720753       101.2468 
 532   0.0000       3.730534       101.5130 
 533   0.0000       3.737340       101.6982 
 534   0.0000       3.740368       101.7806 
 535   0.0000       3.745096       101.9092 
 536   0.0000       3.752391       102.1078 
 537   0.0000       3.759149       102.2916 
 538   0.0000       3.768399       102.5434 
 539   0.0000       3.771619       102.6310 
 540   0.0000       3.781588       102.9022 
 541   0.0000       3.783691       102.9595 
 542   0.0000       3.793147       103.2168 
 543   0.0000       3.799626       103.3931 
 544   0.0000       3.811479       103.7156 
 545   0.0000       3.819225       103.9264 
 546   0.0000       3.823276       104.0366 
 547   0.0000       3.837970       104.4365 
 548   0.0000       3.843497       104.5869 
 549   0.0000       3.848257       104.7164 
 550   0.0000       3.859468       105.0215 
 551   0.0000       3.865881       105.1960 
 552   0.0000       3.872321       105.3712 
 553   0.0000       3.879645       105.5705 
 554   0.0000       3.888392       105.8085 
 555   0.0000       3.901873       106.1754 
 556   0.0000       3.907177       106.3197 
 557   0.0000       3.918449       106.6264 
 558   0.0000       3.922612       106.7397 
 559   0.0000       3.930134       106.9444 
 560   0.0000       3.938276       107.1659 
 561   0.0000       3.953772       107.5876 
 562   0.0000       3.961881       107.8083 
 563   0.0000       3.977751       108.2401 
 564   0.0000       3.983852       108.4061 
 565   0.0000       3.994087       108.6846 
 566   0.0000       4.000869       108.8692 
 567   0.0000       4.005671       108.9999 
 568   0.0000       4.014724       109.2462 
 569   0.0000       4.022658       109.4621 
 570   0.0000       4.029659       109.6526 
 571   0.0000       4.042341       109.9977 
 572   0.0000       4.053371       110.2978 
 573   0.0000       4.059447       110.4632 
 574   0.0000       4.060247       110.4849 
 575   0.0000       4.076314       110.9222 
 576   0.0000       4.082120       111.0801 
 577   0.0000       4.090928       111.3198 
 578   0.0000       4.092531       111.3634 
 579   0.0000       4.100475       111.5796 
 580   0.0000       4.114998       111.9748 
 581   0.0000       4.118677       112.0749 
 582   0.0000       4.127420       112.3128 
 583   0.0000       4.141225       112.6885 
 584   0.0000       4.142002       112.7096 
 585   0.0000       4.149302       112.9082 
 586   0.0000       4.157902       113.1423 
 587   0.0000       4.163811       113.3031 
 588   0.0000       4.167594       113.4060 
 589   0.0000       4.174628       113.5974 
 590   0.0000       4.178103       113.6920 
 591   0.0000       4.182238       113.8045 
 592   0.0000       4.197858       114.2295 
 593   0.0000       4.205368       114.4339 
 594   0.0000       4.213209       114.6473 
 595   0.0000       4.221354       114.8689 
 596   0.0000       4.237676       115.3130 
 597   0.0000       4.240404       115.3873 
 598   0.0000       4.244718       115.5046 
 599   0.0000       4.257147       115.8429 
 600   0.0000       4.266443       116.0958 
 601   0.0000       4.271275       116.2273 
 602   0.0000       4.275596       116.3449 
 603   0.0000       4.286955       116.6540 
 604   0.0000       4.294770       116.8666 
 605   0.0000       4.306665       117.1903 
 606   0.0000       4.308214       117.2325 
 607   0.0000       4.317183       117.4765 
 608   0.0000       4.320191       117.5584 
 609   0.0000       4.336330       117.9975 
 610   0.0000       4.345987       118.2603 
 611   0.0000       4.349829       118.3649 
 612   0.0000       4.355283       118.5133 
 613   0.0000       4.360012       118.6419 
 614   0.0000       4.366212       118.8107 
 615   0.0000       4.372317       118.9768 
 616   0.0000       4.380538       119.2005 
 617   0.0000       4.387743       119.3966 
 618   0.0000       4.400826       119.7526 
 619   0.0000       4.412894       120.0809 
 620   0.0000       4.416506       120.1792 
 621   0.0000       4.425633       120.4276 
 622   0.0000       4.430832       120.5691 
 623   0.0000       4.434417       120.6666 
 624   0.0000       4.449340       121.0727 
 625   0.0000       4.455405       121.2377 
 626   0.0000       4.468523       121.5947 
 627   0.0000       4.469463       121.6203 
 628   0.0000       4.482700       121.9805 
 629   0.0000       4.492041       122.2347 
 630   0.0000       4.503178       122.5377 
 631   0.0000       4.507402       122.6526 
 632   0.0000       4.521920       123.0477 
 633   0.0000       4.526896       123.1831 
 634   0.0000       4.534654       123.3942 
 635   0.0000       4.537583       123.4739 
 636   0.0000       4.551620       123.8559 
 637   0.0000       4.554965       123.9469 
 638   0.0000       4.571654       124.4010 
 639   0.0000       4.577254       124.5534 
 640   0.0000       4.596379       125.0738 
 641   0.0000       4.600206       125.1780 
 642   0.0000       4.608313       125.3986 
 643   0.0000       4.613560       125.5413 
 644   0.0000       4.626051       125.8812 
 645   0.0000       4.634478       126.1106 
 646   0.0000       4.635373       126.1349 
 647   0.0000       4.645014       126.3973 
 648   0.0000       4.650026       126.5336 
 649   0.0000       4.655772       126.6900 
 650   0.0000       4.661172       126.8369 
 651   0.0000       4.673134       127.1624 
 652   0.0000       4.682100       127.4064 
 653   0.0000       4.683605       127.4474 
 654   0.0000       4.694382       127.7406 
 655   0.0000       4.702563       127.9632 
 656   0.0000       4.712710       128.2394 
 657   0.0000       4.731613       128.7537 
 658   0.0000       4.743779       129.0848 
 659   0.0000       4.753424       129.3472 
 660   0.0000       4.763600       129.6241 
 661   0.0000       4.779696       130.0621 
 662   0.0000       4.791342       130.3790 
 663   0.0000       4.804273       130.7309 
 664   0.0000       4.824789       131.2892 
 665   0.0000       4.836132       131.5978 
 666   0.0000       4.861980       132.3012 
 667   0.0000       4.866363       132.4205 
 668   0.0000       4.891224       133.0970 
 669   0.0000       4.906631       133.5162 
 670   0.0000       4.913035       133.6905 
 671   0.0000       4.920322       133.8888 
 672   0.0000       4.935496       134.3017 
 673   0.0000       4.967804       135.1808 
 674   0.0000       4.994797       135.9153 
 675   0.0000       5.009468       136.3146 
 676   0.0000       5.018427       136.5584 
 677   0.0000       5.026337       136.7736 
 678   0.0000       5.032767       136.9486 
 679   0.0000       5.046037       137.3096 
 680   0.0000       5.051388       137.4552 
 681   0.0000       5.067806       137.9020 
 682   0.0000       5.078204       138.1849 
 683   0.0000       5.084305       138.3510 
 684   0.0000       5.097120       138.6997 
 685   0.0000       5.111794       139.0990 
 686   0.0000       5.121969       139.3759 
 687   0.0000       5.125484       139.4715 
 688   0.0000       5.145864       140.0261 
 689   0.0000       5.155208       140.2803 
 690   0.0000       5.161590       140.4540 
 691   0.0000       5.175562       140.8342 
 692   0.0000       5.185331       141.1000 
 693   0.0000       5.201870       141.5501 
 694   0.0000       5.205220       141.6412 
 695   0.0000       5.219457       142.0287 
 696   0.0000       5.220325       142.0523 
 697   0.0000       5.225522       142.1937 
 698   0.0000       5.233557       142.4123 
 699   0.0000       5.243515       142.6833 
 700   0.0000       5.264765       143.2615 
 701   0.0000       5.269607       143.3933 
 702   0.0000       5.287910       143.8914 
 703   0.0000       5.317573       144.6985 
 704   0.0000       5.325425       144.9122 
 705   0.0000       5.338835       145.2771 
 706   0.0000       5.345340       145.4541 
 707   0.0000       5.359112       145.8288 
 708   0.0000       5.366100       146.0190 
 709   0.0000       5.381087       146.4268 
 710   0.0000       5.392097       146.7264 
 711   0.0000       5.399998       146.9414 
 712   0.0000       5.443669       148.1298 
 713   0.0000       5.462162       148.6330 
 714   0.0000       5.473931       148.9532 
 715   0.0000       5.487248       149.3156 
 716   0.0000       5.497756       149.6015 
 717   0.0000       5.511320       149.9707 
 718   0.0000       5.515630       150.0879 
 719   0.0000       5.523840       150.3113 
 720   0.0000       5.531840       150.5290 
 721   0.0000       5.544296       150.8680 
 722   0.0000       5.554293       151.1400 
 723   0.0000       5.568469       151.5257 
 724   0.0000       5.578023       151.7857 
 725   0.0000       5.590603       152.1280 
 726   0.0000       5.624674       153.0552 
 727   0.0000       5.633694       153.3006 
 728   0.0000       5.641882       153.5234 
 729   0.0000       5.647168       153.6672 
 730   0.0000       5.661864       154.0672 
 731   0.0000       5.665105       154.1553 
 732   0.0000       5.678409       154.5174 
 733   0.0000       5.685630       154.7139 
 734   0.0000       5.691994       154.8870 
 735   0.0000       5.723997       155.7579 
 736   0.0000       5.726314       155.8209 
 737   0.0000       5.732496       155.9892 
 738   0.0000       5.745393       156.3401 
 739   0.0000       5.754020       156.5749 
 740   0.0000       5.776188       157.1781 
 741   0.0000       5.787568       157.4877 
 742   0.0000       5.805655       157.9799 
 743   0.0000       5.808083       158.0460 
 744   0.0000       5.821845       158.4204 
 745   0.0000       5.846636       159.0951 
 746   0.0000       5.856508       159.3637 
 747   0.0000       5.886884       160.1902 
 748   0.0000       5.889382       160.2582 
 749   0.0000       5.899978       160.5466 
 750   0.0000       5.935995       161.5266 
 751   0.0000       5.965179       162.3208 
 752   0.0000       5.970237       162.4584 
 753   0.0000       5.975332       162.5971 
 754   0.0000       5.998936       163.2394 
 755   0.0000       6.005301       163.4125 
 756   0.0000       6.040215       164.3626 
 757   0.0000       6.053576       164.7262 
 758   0.0000       6.063784       165.0039 
 759   0.0000       6.075204       165.3147 
 760   0.0000       6.101197       166.0220 
 761   0.0000       6.174433       168.0149 
 762   0.0000       6.230240       169.5335 
 763   0.0000       6.233355       169.6182 
 764   0.0000       6.240506       169.8128 
 765   0.0000       6.259613       170.3327 
 766   0.0000       6.299480       171.4176 
 767   0.0000       6.336092       172.4138 
 768   0.0000       6.346303       172.6917 
 769   0.0000       6.360912       173.0892 
 770   0.0000       6.379777       173.6026 
 771   0.0000       6.394726       174.0094 
 772   0.0000       6.408202       174.3761 
 773   0.0000       6.439019       175.2146 
 774   0.0000       6.452917       175.5928 
 775   0.0000       6.480932       176.3551 
 776   0.0000       6.503428       176.9673 
 777   0.0000       6.522586       177.4886 
 778   0.0000       6.553516       178.3302 
 779   0.0000       6.624775       180.2693 
 780   0.0000       6.669919       181.4977 
 781   0.0000       6.686937       181.9608 
 782   0.0000       6.718988       182.8330 
 783   0.0000       6.774844       184.3529 
 784   0.0000       6.813969       185.4175 
 785   0.0000       6.849659       186.3887 
 786   0.0000       6.907038       187.9501 
 787   0.0000       6.919485       188.2888 
 788   0.0000       6.963806       189.4948 
 789   0.0000       6.979040       189.9093 
 790   0.0000       7.051965       191.8937 
 791   0.0000       7.070224       192.3906 
 792   0.0000       7.080770       192.6775 
 793   0.0000       7.137187       194.2127 
 794   0.0000       7.224192       196.5803 
 795   0.0000       7.254317       197.4000 
 796   0.0000       7.258337       197.5094 
 797   0.0000       7.279900       198.0962 
 798   0.0000       7.340572       199.7471 
 799   0.0000       7.362275       200.3377 
 800   0.0000       7.390418       201.1035 
 801   0.0000       7.492914       203.8926 
 802   0.0000       7.548029       205.3923 
 803   0.0000       7.575656       206.1441 
 804   0.0000       7.585247       206.4051 
 805   0.0000       7.787539       211.9097 
 806   0.0000       7.819354       212.7754 
 807   0.0000       7.930706       215.8055 
 808   0.0000       8.028334       218.4621 
 809   0.0000       9.418266       256.2841 
 810   0.0000       9.711372       264.2599 
 811   0.0000      10.823988       294.5357 
 812   0.0000      11.228160       305.5338 
 813   0.0000      12.140652       330.3639 
 814   0.0000      12.550291       341.5108 
 815   0.0000      12.932640       351.9150 
 816   0.0000      13.088752       356.1630 
 817   0.0000      13.285979       361.5299 
 818   0.0000      13.417149       365.0992 
 819   0.0000      13.518124       367.8469 
 820   0.0000      13.672787       372.0555 
 821   0.0000      13.832695       376.4068 
 822   0.0000      13.960853       379.8941 
 823   0.0000      14.032067       381.8319 
 824   0.0000      14.261552       388.0766 
 825   0.0000      14.563913       396.3042 
 826   0.0000      14.804895       402.8617 
 827   0.0000      15.973383       434.6578 

                    ********************************
                    * MULLIKEN POPULATION ANALYSIS *
                    ********************************

-----------------------
MULLIKEN ATOMIC CHARGES
-----------------------
   0 C :   -0.260197
   1 C :    0.021759
   2 O :   -0.301659
   3 C :    0.382853
   4 O :   -0.377497
   5 C :   -0.159276
   6 C :    0.127748
   7 C :   -0.326170
   8 N :   -0.139782
   9 C :    0.207039
  10 S :   -0.442725
  11 N :   -0.221351
  12 C :    0.070607
  13 C :    0.024737
  14 C :   -0.193198
  15 C :   -0.133082
  16 C :   -0.274280
  17 C :    0.324413
  18 O :   -0.358376
  19 C :   -0.288414
  20 H :    0.088465
  21 H :    0.106768
  22 H :    0.099149
  23 H :    0.080697
  24 H :    0.114307
  25 H :    0.119623
  26 H :    0.118991
  27 H :    0.142898
  28 H :    0.194915
  29 H :    0.200656
  30 H :    0.166424
  31 H :    0.166385
  32 H :    0.163807
  33 H :    0.132609
  34 H :    0.241479
  35 H :    0.179678
Sum of atomic charges:    0.0000000

--------------------------------
MULLIKEN REDUCED ORBITAL CHARGES
--------------------------------
  0 C s       :     3.261652  s :     3.261652
      pz      :     1.006589  p :     2.921709
      px      :     0.934753
      py      :     0.980366
      dz2     :     0.023910  d :     0.072375
      dxz     :     0.010829
      dyz     :     0.007794
      dx2y2   :     0.016640
      dxy     :     0.013202
      f0      :     0.001436  f :     0.004462
      f+1     :     0.000295
      f-1     :     0.000272
      f+2     :     0.000140
      f-2     :     0.000541
      f+3     :     0.000760
      f-3     :     0.001018
  1 C s       :     3.172626  s :     3.172626
      pz      :     0.963316  p :     2.634387
      px      :     0.704526
      py      :     0.966545
      dz2     :     0.038218  d :     0.159462
      dxz     :     0.032264
      dyz     :     0.013875
      dx2y2   :     0.041956
      dxy     :     0.033150
      f0      :     0.001714  f :     0.011767
      f+1     :     0.002193
      f-1     :     0.000577
      f+2     :     0.001422
      f-2     :     0.001724
      f+3     :     0.002110
      f-3     :     0.002028
  2 O s       :     3.722143  s :     3.722143
      pz      :     1.714277  p :     4.542456
      px      :     1.225405
      py      :     1.602774
      dz2     :     0.004475  d :     0.034770
      dxz     :     0.006346
      dyz     :     0.003784
      dx2y2   :     0.005059
      dxy     :     0.015107
      f0      :     0.000287  f :     0.002291
      f+1     :     0.000392
      f-1     :     0.000128
      f+2     :     0.000237
[...]
 15 C s       :     2.705743  s :     2.705743
      pz      :     0.901728  p :     2.791269
      px      :     0.912406
      py      :     0.977135
      dz2     :     0.094600  d :     0.415743
      dxz     :     0.062010
      dyz     :     0.070806
      dx2y2   :     0.101297
      dxy     :     0.087030
      f0      :     0.003648  f :     0.041074
      f+1     :     0.004843
      f-1     :     0.006593
      f+2     :     0.006018
      f-2     :     0.007444
      f+3     :     0.005761
      f-3     :     0.006766
 16 C s       :     2.701834  s :     2.701834
      pz      :     0.943890  p :     2.867608
      px      :     0.953537
      py      :     0.970181
      dz2     :     0.053337  d :     0.390631
      dxz     :     0.051432
      dyz     :     0.096403
      dx2y2   :     0.087151
      dxy     :     0.102307
      f0      :     0.005340  f :     0.040331
      f+1     :     0.004374
      f-1     :     0.003673
      f+2     :     0.005573
      f-2     :     0.006897
      f+3     :     0.007238
      f-3     :     0.007237
 17 C s       :     2.701656  s :     2.701656
      pz      :     0.823539  p :     2.683935
      px      :     0.817474
      py      :     1.042922
      dz2     :     0.137711  d :     0.709611
      dxz     :     0.108789
      dyz     :     0.148078
      dx2y2   :     0.158125
      dxy     :     0.156908
      f0      :     0.011797  f :     0.099356
      f+1     :     0.015322
      f-1     :     0.010923
      f+2     :     0.013971
      f-2     :     0.017591
      f+3     :     0.012921
      f-3     :     0.016833
 18 O s       :     3.177295  s :     3.177295
      pz      :     1.436012  p :     4.347099
      px      :     1.452239
      py      :     1.458847
      dz2     :     0.010909  d :     0.075589
      dxz     :     0.018253
      dyz     :     0.016629
      dx2y2   :     0.017407
      dxy     :     0.012391
      f0      :     0.000615  f :     0.005072
      f+1     :     0.000843
      f-1     :     0.000355
      f+2     :     0.000957
      f-2     :     0.000895
      f+3     :     0.000605
      f-3     :     0.000803
 19 C s       :     2.696288  s :     2.696288
      pz      :     0.936834  p :     2.848761
      px      :     0.941461
      py      :     0.970467
      dz2     :     0.075954  d :     0.388203
      dxz     :     0.060001
      dyz     :     0.073167
      dx2y2   :     0.089384
      dxy     :     0.089697
      f0      :     0.003652  f :     0.040694
      f+1     :     0.004875
      f-1     :     0.006016
      f+2     :     0.006237
      f-2     :     0.007883
      f+3     :     0.005938
      f-3     :     0.006094
 20 H s       :     0.847313  s :     0.847313
      pz      :     0.044336  p :     0.150824
      px      :     0.065330
      py      :     0.041157
      dz2     :     0.004888  d :     0.027403
      dxz     :     0.007099
      dyz     :     0.001345
      dx2y2   :     0.006655
      dxy     :     0.007416
 21 H s       :     0.845532  s :     0.845532
      pz      :     0.041066  p :     0.150366
      px      :     0.039005
      py      :     0.070296
      dz2     :     0.003819  d :     0.027463
      dxz     :     0.000728
      dyz     :     0.007771
      dx2y2   :     0.006995
      dxy     :     0.008150
 22 H s       :     0.848399  s :     0.848399
      pz      :     0.073562  p :     0.150267
      px      :     0.037845
      py      :     0.038861
      dz2     :     0.009150  d :     0.027496
      dxz     :     0.009165
      dyz     :     0.008969
      dx2y2   :     0.000079
      dxy     :     0.000133
 23 H s       :     0.858936  s :     0.858936
      pz      :     0.040764  p :     0.151549
      px      :     0.033050
      py      :     0.077734
      dz2     :     0.004178  d :     0.027725
      dxz     :     0.001054
      dyz     :     0.007416
      dx2y2   :     0.007425
      dxy     :     0.007653
 24 H s       :     0.852239  s :     0.852239
      pz      :     0.085362  p :     0.151775
      px      :     0.028280
      py      :     0.038133
      dz2     :     0.010427  d :     0.027044
      dxz     :     0.007015
      dyz     :     0.009268
      dx2y2   :     0.000137
      dxy     :     0.000197
 25 H s       :     0.837629  s :     0.837629
      pz      :     0.038496  p :     0.152237
      px      :     0.070701
      py      :     0.043041
      dz2     :     0.002656  d :     0.027644
      dxz     :     0.007760
      dyz     :     0.001462
      dx2y2   :     0.007224
      dxy     :     0.008542
 26 H s       :     0.833559  s :     0.833559
      pz      :     0.054024  p :     0.148891
      px      :     0.038635
      py      :     0.056233
      dz2     :     0.007238  d :     0.027547
      dxz     :     0.004524
      dyz     :     0.006970
      dx2y2   :     0.003938
      dxy     :     0.004877
 27 H s       :     0.830666  s :     0.830666
      pz      :     0.043458  p :     0.150577
      px      :     0.045590
      py      :     0.061528
      dz2     :     0.004068  d :     0.027591
      dxz     :     0.003269
      dyz     :     0.006820
      dx2y2   :     0.007613
      dxy     :     0.005821
 28 H s       :     0.743026  s :     0.743026
      pz      :     0.054492  p :     0.253727
      px      :     0.088672
      py      :     0.110564
      dz2     :     0.006132  d :     0.061643
      dxz     :     0.003331
      dyz     :     0.015236
      dx2y2   :     0.018501
      dxy     :     0.018444
 29 H s       :     0.747617  s :     0.747617
      pz      :     0.114370  p :     0.254714
      px      :     0.095413
      py      :     0.044931
      dz2     :     0.021536  d :     0.061414
      dxz     :     0.016749
      dyz     :     0.011617
      dx2y2   :     0.006930
      dxy     :     0.004583
 30 H s       :     0.824882  s :     0.824882
      pz      :     0.040071  p :     0.148753
      px      :     0.073157
      py      :     0.035525
      dz2     :     0.003130  d :     0.028379
      dxz     :     0.008313
      dyz     :     0.001991
      dx2y2   :     0.007587
      dxy     :     0.007358
 31 H s       :     0.837482  s :     0.837482
      pz      :     0.061255  p :     0.156869
      px      :     0.062676
      py      :     0.032938
      dz2     :     0.006477  d :     0.027389
      dxz     :     0.007283
      dyz     :     0.004208
      dx2y2   :     0.004560
      dxy     :     0.004861
 32 H s       :     0.841109  s :     0.841109
      pz      :     0.037200  p :     0.150745
      px      :     0.040290
      py      :     0.073254
      dz2     :     0.002804  d :     0.026413
      dxz     :     0.001056
      dyz     :     0.007086
      dx2y2   :     0.007803
      dxy     :     0.007664
 33 H s       :     0.848049  s :     0.848049
      pz      :     0.052327  p :     0.158839
      px      :     0.047268
      py      :     0.059244
      dz2     :     0.005157  d :     0.027737
      dxz     :     0.003541
      dyz     :     0.006525
      dx2y2   :     0.006452
      dxy     :     0.006062
 34 H s       :     0.706040  s :     0.706040
      pz      :     0.099365  p :     0.347422
      px      :     0.086544
      py      :     0.161514
      dz2     :     0.018043  d :     0.099470
      dxz     :     0.007595
      dyz     :     0.026034
      dx2y2   :     0.023439
      dxy     :     0.024359
 35 H s       :     0.836945  s :     0.836945
      pz      :     0.041440  p :     0.159538
      px      :     0.043459
      py      :     0.074639
      dz2     :     0.002848  d :     0.028084
      dxz     :     0.001192
      dyz     :     0.007708
      dx2y2   :     0.007992
      dxy     :     0.008344


                      *****************************
                      * MAYER POPULATION ANALYSIS *
                      *****************************

  NA   - Mulliken gross atomic population
  ZA   - Total nuclear charge
  QA   - Mulliken gross atomic charge
  VA   - Mayer's total valence
  BVA  - Mayer's bonded valence
  FA   - Mayer's free valence

  ATOM       NA         ZA         QA         VA         BVA        FA
  0 C      6.2602     6.0000    -0.2602     3.9118     3.9118    -0.0000
  1 C      5.9782     6.0000     0.0218     3.8708     3.8708     0.0000
  2 O      8.3017     8.0000    -0.3017     2.0600     2.0600    -0.0000
  3 C      5.6171     6.0000     0.3829     4.2476     4.2476     0.0000
  4 O      8.3775     8.0000    -0.3775     2.1308     2.1308    -0.0000
  5 C      6.1593     6.0000    -0.1593     3.5849     3.5849    -0.0000
  6 C      5.8723     6.0000     0.1277     3.7960     3.7960    -0.0000
  7 C      6.3262     6.0000    -0.3262     3.8741     3.8741    -0.0000
  8 N      7.1398     7.0000    -0.1398     3.2630     3.2630     0.0000
  9 C      5.7930     6.0000     0.2070     4.1458     4.1458    -0.0000
 10 S     16.4427    16.0000    -0.4427     1.7489     1.7489     0.0000
 11 N      7.2214     7.0000    -0.2214     3.2494     3.2494    -0.0000
 12 C      5.9294     6.0000     0.0706     3.9475     3.9475     0.0000
 13 C      5.9753     6.0000     0.0247     3.7139     3.7139    -0.0000
 14 C      6.1932     6.0000    -0.1932     3.8787     3.8787     0.0000
 15 C      6.1331     6.0000    -0.1331     3.8165     3.8165     0.0000
 16 C      6.2743     6.0000    -0.2743     3.7895     3.7895     0.0000
 17 C      5.6756     6.0000     0.3244     3.8583     3.8583     0.0000
 18 O      8.3584     8.0000    -0.3584     2.1159     2.1159     0.0000
 19 C      6.2884     6.0000    -0.2884     3.8142     3.8142     0.0000
 20 H      0.9115     1.0000     0.0885     0.9806     0.9806     0.0000
 21 H      0.8932     1.0000     0.1068     0.9855     0.9855     0.0000
 22 H      0.9009     1.0000     0.0991     0.9860     0.9860    -0.0000
 23 H      0.9193     1.0000     0.0807     0.9579     0.9579     0.0000
 24 H      0.8857     1.0000     0.1143     0.9585     0.9585    -0.0000
 25 H      0.8804     1.0000     0.1196     0.9708     0.9708    -0.0000
 26 H      0.8810     1.0000     0.1190     0.9843     0.9843     0.0000
 27 H      0.8571     1.0000     0.1429     0.9757     0.9757    -0.0000
 28 H      0.8051     1.0000     0.1949     1.0229     1.0229    -0.0000
 29 H      0.7993     1.0000     0.2007     1.0143     1.0143    -0.0000
 30 H      0.8336     1.0000     0.1664     0.9905     0.9905     0.0000
 31 H      0.8336     1.0000     0.1664     0.9884     0.9884     0.0000
 32 H      0.8362     1.0000     0.1638     0.9768     0.9768     0.0000
 33 H      0.8674     1.0000     0.1326     0.9909     0.9909     0.0000
 34 H      0.7585     1.0000     0.2415     1.0101     1.0101     0.0000
 35 H      0.8203     1.0000     0.1797     0.9851     0.9851     0.0000

  Mayer bond orders larger than 0.100000
B(  0-C ,  1-C ) :   0.9851 B(  0-C , 20-H ) :   0.9769 B(  0-C , 21-H ) :   0.9796 
B(  0-C , 22-H ) :   0.9783 B(  1-C ,  2-O ) :   0.9147 B(  1-C , 23-H ) :   0.9722 
B(  1-C , 24-H ) :   0.9599 B(  2-O ,  3-C ) :   1.1677 B(  3-C ,  4-O ) :   2.0951 
B(  3-C ,  5-C ) :   0.9187 B(  5-C ,  6-C ) :   1.6982 B(  5-C , 12-C ) :   0.9622 
B(  6-C ,  7-C ) :   0.9430 B(  6-C ,  8-N ) :   1.1129 B(  7-C , 25-H ) :   0.9680 
B(  7-C , 26-H ) :   0.9830 B(  7-C , 27-H ) :   0.9668 B(  8-N ,  9-C ) :   1.2003 
B(  8-N , 28-H ) :   0.9534 B(  9-C , 10-S ) :   1.6081 B(  9-C , 11-N ) :   1.2853 
B( 11-N , 12-C ) :   0.9922 B( 11-N , 29-H ) :   0.9475 B( 12-C , 13-C ) :   0.9444 
B( 12-C , 30-H ) :   0.9975 B( 13-C , 14-C ) :   1.3865 B( 13-C , 19-C ) :   1.3422 
B( 14-C , 15-C ) :   1.3983 B( 14-C , 31-H ) :   0.9625 B( 15-C , 16-C ) :   1.3621 
B( 15-C , 32-H ) :   0.9698 B( 16-C , 17-C ) :   1.3307 B( 16-C , 33-H ) :   0.9844 
B( 17-C , 18-O ) :   1.1082 B( 17-C , 19-C ) :   1.3619 B( 18-O , 34-H ) :   0.9793 
B( 19-C , 35-H ) :   0.9584 

-------
TIMINGS
-------

Total SCF time: 0 days 2 hours 5 min 3 sec 

Total time                  ....    7503.091 sec
Sum of individual times     ....    7497.189 sec  ( 99.9%)

Fock matrix formation       ....    7475.068 sec  ( 99.6%)
Diagonalization             ....       1.656 sec  (  0.0%)
Density matrix formation    ....       0.206 sec  (  0.0%)
Population analysis         ....       0.563 sec  (  0.0%)
Initial guess               ....       6.406 sec  (  0.1%)
Orbital Transformation      ....       0.000 sec  (  0.0%)
Orbital Orthonormalization  ....       0.000 sec  (  0.0%)
DIIS solution               ....       9.002 sec  (  0.1%)
SOSCF solution              ....       2.589 sec  (  0.0%)

Maximum memory used throughout the entire SCF-calculation: 750.8 MB

------------------------------------------------------------------------------
                                ORCA  MP2 
------------------------------------------------------------------------------

Freezing NCore=48 chemical core electrons

-------------
RI-MP2 ENERGY
-------------
Dimension of the basis                    ...  828
Memory devoted to MP2                     ...  256 MB   
Data format for buffers                   ... DOUBLE
Compression type for matrix containers    ... UNCOMPRESSED
Overall scaling of the MP2 energy         ...   1.000e+00
Calculating two index integrals           ... done (    0.043 sec)
Cholesky decomposition of V**-1           ... done (    0.744 sec)

-----------------
RI-TRANSFORMATION (AUX index driven)
-----------------

Dimension of the orbital-basis         ... 828
Dimension of the aux-basis             ... 2141
Transformation of internal/external MOs...   24-  76 to   77- 827
Number Format for Storage              ... Double (8 Byte)
Integral mode                          ... Direct

First Phase: integral generation and transformation of MO indices
  Aux angular momentum 0               ... done (    5.202 sec)
  Aux angular momentum 1               ... done (    8.801 sec)
  Aux angular momentum 2               ... done (   11.669 sec)
  Aux angular momentum 3               ... done (    9.621 sec)
  Aux angular momentum 4               ... done (    3.219 sec)
Closing buffer VIA ( 0.63 GB; CompressionRatio= 1.00)
  Phase 1 completed in    38.773 sec
Second Phase: sorting and transformation of aux index

IA-Transformation
Memory available                       ... 157 MB 
Max. # MO pairs treated in a batch     ... 11    
# of internal orbitals                 ... 53
# batches for internal orbitals        ... 5
Closing buffer IAV ( 0.63 GB; CompressionRatio= 1.00)
(ia|v) transformation done in    32.388 sec

  Phase 2 completed in    32.402 sec
RI-Integral transformation completed in    71.293 sec
Opening buffers                              ... done

Starting loop over batches of integrals:

Operator 0  - window                       ... ( 24- 76)x( 77-827)
Operator 0  - Memory available             ...   256 MB
Operator 0  - Memory needed per MO         ...  12.3 MB
Operator 0  - Number of orbitals per batch ... 13
Operator 0  - Number of batches            ... 5

OPERATOR  0   PASS   0:  MOs    24 ...   36
  Reading integrals       ... ok
  Internal MO  26
  Internal MO  29
  Internal MO  32
  Internal MO  35
OPERATOR  0   PASS   1:  MOs    37 ...   49
  Reading integrals       ... ok
  Internal MO  38
  Internal MO  41
  Internal MO  44
  Internal MO  47
OPERATOR  0   PASS   2:  MOs    50 ...   62
  Reading integrals       ... ok
  Internal MO  50
  Internal MO  53
  Internal MO  56
  Internal MO  59
  Internal MO  62
OPERATOR  0   PASS   3:  MOs    63 ...   75
  Reading integrals       ... ok
  Internal MO  65
  Internal MO  68
  Internal MO  71
  Internal MO  74
OPERATOR  0   PASS   4:  MOs    76 ...   76
  Reading integrals       ... ok
Time spent in pair loops =   124.961 sec
Deleting buffer (Ka|jb)[aa] ...done

-----------------------------------------------
 RI-MP2 CORRELATION ENERGY:     -3.539594074 Eh
-----------------------------------------------


-------
TIMINGS
-------

Total time                :  197.194 sec
Integral trafo            :   71.337 sec ( 36.2%)
I/O of integrals          :    4.128 sec (  2.1%)
K(i,j) Operators          :   64.760 sec ( 32.8%)
T(i,j) pair energies      :    9.688 sec (  4.9%)
V-calculation             :    0.043 sec (  0.0%)
V**(-1/2)                 :    0.744 sec (  0.4%)
Gamma(ia|P)               :    0.000 sec (  0.0%)
Gamma-Trafo               :    0.000 sec (  0.0%)
D(virtual)                :    0.000 sec (  0.0%)
D(internal)               :    0.000 sec (  0.0%)
W(virtual)                :    0.000 sec (  0.0%)
W(internal)               :    0.000 sec (  0.0%)
L(virtual)                :    0.000 sec (  0.0%)
L(internal)               :    0.000 sec (  0.0%)
G(D)                      :    0.000 sec (  0.0%)
G(Z)                      :    0.000 sec (  0.0%)
Z-Vector Solution         :    0.000 sec (  0.0%)
3-Index Derivative        :    0.000 sec (  0.0%)
2-Index Derivative        :    0.000 sec (  0.0%)
Separable Gradient        :    0.000 sec (  0.0%)


---------------------------------------
MP2 TOTAL ENERGY:    -1274.328278144 Eh
---------------------------------------

Maximum memory used throughout the entire MP2-calculation: 305.5 MB

-------------------------   --------------------
FINAL SINGLE POINT ENERGY     -1274.328278144374
-------------------------   --------------------


                            ***************************************
                            *     ORCA property calculations      *
                            ***************************************


  WARNING: The energy has been calculated at the MP2 level but the densities
           used in the property calculations are still SCF densities
           MP2 response densities have not been calculated 
           use %mp2 Density relaxed end
           or  %mp2 Density unrelaxed end

                                    ---------------------
                                    Active property flags
                                    ---------------------
   (+) Dipole Moment


------------------------------------------------------------------------------
                       ORCA ELECTRIC PROPERTIES CALCULATION
------------------------------------------------------------------------------

Dipole Moment Calculation                       ... on
Quadrupole Moment Calculation                   ... off
Polarizability Calculation                      ... off
GBWName                                         ... CONFS/Conf917.orca.gbw
Electron density file                           ... CONFS/Conf917.orca.scfp
The origin for moment calculation is the CENTER OF MASS  = (32.882958, 31.372974 35.313016)

-------------
DIPOLE MOMENT
-------------
                                X             Y             Z
Electronic contribution:     11.39709       7.44283       7.47822
Nuclear contribution   :    -12.99929      -8.50332      -7.93005
                        -----------------------------------------
Total Dipole Moment    :     -1.60220      -1.06049      -0.45183
                        -----------------------------------------
Magnitude (a.u.)       :      1.97378
Magnitude (Debye)      :      5.01696



--------------------
Rotational spectrum 
--------------------
 
Rotational constants in cm-1:     0.011878     0.009076     0.006693 
Rotational constants in MHz :   356.086867   272.094762   200.641117 

 Dipole components along the rotational axes: 
x,y,z [a.u.] :    -1.434095     0.676647     1.175306 
x,y,z [Debye]:    -3.645180     1.719899     2.987389 

 

Timings for individual modules:

Sum of individual times         ...     7706.688 sec (= 128.445 min)
GTO integral calculation        ...        4.274 sec (=   0.071 min)   0.1 %
SCF iterations                  ...     7503.986 sec (= 125.066 min)  97.4 %
MP2 module                      ...      198.428 sec (=   3.307 min)   2.6 %
                             ****ORCA TERMINATED NORMALLY****
TOTAL RUN TIME: 0 days 2 hours 8 minutes 29 seconds 48 msec
