
                                        *****************
                                        * O   R   C   A *
                                        *****************

                                            #,                                       
                                            ###                                      
                                            ####                                     
                                            #####                                    
                                            ######                                   
                                           ########,                                 
                                     ,,################,,,,,                         
                               ,,#################################,,                 
                          ,,##########################################,,             
                       ,#########################################, ''#####,          
                    ,#############################################,,   '####,        
                  ,##################################################,,,,####,       
                ,###########''''           ''''###############################       
              ,#####''   ,,,,##########,,,,          '''####'''          '####       
            ,##' ,,,,###########################,,,                        '##       
           ' ,,###''''                  '''############,,,                           
         ,,##''                                '''############,,,,        ,,,,,,###''
      ,#''                                            '''#######################'''  
     '                                                          ''''####''''         
             ,#######,   #######,   ,#######,      ##                                
            ,#'     '#,  ##    ##  ,#'     '#,    #''#        ######   ,####,        
            ##       ##  ##   ,#'  ##            #'  '#       #        #'  '#        
            ##       ##  #######   ##           ,######,      #####,   #    #        
            '#,     ,#'  ##    ##  '#,     ,#' ,#      #,         ##   #,  ,#        
             '#######'   ##     ##  '#######'  #'      '#     #####' # '####'        



                  #######################################################
                  #                        -***-                        #
                  #          Department of theory and spectroscopy      #
                  #    Directorship and core code : Frank Neese         #
                  #        Max Planck Institute fuer Kohlenforschung    #
                  #                Kaiser Wilhelm Platz 1               #
                  #                 D-45470 Muelheim/Ruhr               #
                  #                      Germany                        #
                  #                                                     #
                  #                  All rights reserved                #
                  #                        -***-                        #
                  #######################################################


                         Program Version 5.0.0 -  RELEASE  -
                                (SVN: $Rev: 19529$)
                ($Date: 2021-06-28 11:36:33 +0200 (Mo, 28 Jun 2021) $)


 With contributions from (in alphabetic order):
   Daniel Aravena         : Magnetic Suceptibility
   Michael Atanasov       : Ab Initio Ligand Field Theory (pilot matlab implementation)
   Alexander A. Auer      : GIAO ZORA, VPT2 properties, NMR spectrum
   Ute Becker             : Parallelization
   Giovanni Bistoni       : ED, misc. LED, open-shell LED, HFLD
   Martin Brehm           : Molecular dynamics
   Dmytro Bykov           : SCF Hessian
   Vijay G. Chilkuri      : MRCI spin determinant printing, contributions to CSF-ICE
   Dipayan Datta          : RHF DLPNO-CCSD density
   Achintya Kumar Dutta   : EOM-CC, STEOM-CC
   Dmitry Ganyushin       : Spin-Orbit,Spin-Spin,Magnetic field MRCI
   Miquel Garcia          : C-PCM Hessian, Gaussian charge scheme
   Yang Guo               : DLPNO-NEVPT2, F12-NEVPT2, CIM, IAO-localization
   Andreas Hansen         : Spin unrestricted coupled pair/coupled cluster methods
   Benjamin Helmich-Paris : MC-RPA, TRAH-SCF, COSX integrals
   Lee Huntington         : MR-EOM, pCC
   Robert Izsak           : Overlap fitted RIJCOSX, COSX-SCS-MP3, EOM
   Marcus Kettner         : VPT2
   Christian Kollmar      : KDIIS, OOCD, Brueckner-CCSD(T), CCSD density, CASPT2, CASPT2-K
   Simone Kossmann        : Meta GGA functionals, TD-DFT gradient, OOMP2, MP2 Hessian
   Martin Krupicka        : Initial AUTO-CI
   Lucas Lang             : DCDCAS
   Marvin Lechner         : AUTO-CI (C++ implementation), FIC-MRCC
   Dagmar Lenk            : GEPOL surface, SMD
   Dimitrios Liakos       : Extrapolation schemes; Compound Job, initial MDCI parallelization
   Dimitrios Manganas     : Further ROCIS development; embedding schemes
   Dimitrios Pantazis     : SARC Basis sets
   Anastasios Papadopoulos: AUTO-CI, single reference methods and gradients
   Taras Petrenko         : DFT Hessian,TD-DFT gradient, ASA, ECA, R-Raman, ABS, FL, XAS/XES, NRVS
   Peter Pinski           : DLPNO-MP2, DLPNO-MP2 Gradient
   Christoph Reimann      : Effective Core Potentials
   Marius Retegan         : Local ZFS, SOC
   Christoph Riplinger    : Optimizer, TS searches, QM/MM, DLPNO-CCSD(T), (RO)-DLPNO pert. Triples
   Tobias Risthaus        : Range-separated hybrids, TD-DFT gradient, RPA, STAB
   Michael Roemelt        : Original ROCIS implementation
   Masaaki Saitow         : Open-shell DLPNO-CCSD energy and density
   Barbara Sandhoefer     : DKH picture change effects
   Avijit Sen             : IP-ROCIS
   Kantharuban Sivalingam : CASSCF convergence, NEVPT2, FIC-MRCI
   Bernardo de Souza      : ESD, SOC TD-DFT
   Georgi Stoychev        : AutoAux, RI-MP2 NMR
   Willem Van den Heuvel  : Paramagnetic NMR
   Boris Wezisla          : Elementary symmetry handling
   Frank Wennmohs         : Technical directorship


 We gratefully acknowledge several colleagues who have allowed us to
 interface, adapt or use parts of their codes:
   Stefan Grimme, W. Hujo, H. Kruse, P. Pracht,  : VdW corrections, initial TS optimization,
                  C. Bannwarth, S. Ehlert          DFT functionals, gCP, sTDA/sTD-DF
   Ed Valeev, F. Pavosevic, A. Kumar             : LibInt (2-el integral package), F12 methods
   Garnet Chan, S. Sharma, J. Yang, R. Olivares  : DMRG
   Ulf Ekstrom                                   : XCFun DFT Library
   Mihaly Kallay                                 : mrcc  (arbitrary order and MRCC methods)
   Jiri Pittner, Ondrej Demel                    : Mk-CCSD
   Frank Weinhold                                : gennbo (NPA and NBO analysis)
   Christopher J. Cramer and Donald G. Truhlar   : smd solvation model
   Lars Goerigk                                  : TD-DFT with DH, B97 family of functionals
   V. Asgeirsson, H. Jonsson                     : NEB implementation
   FAccTs GmbH                                   : IRC, NEB, NEB-TS, DLPNO-Multilevel, CI-OPT
                                                   MM, QMMM, 2- and 3-layer-ONIOM, Crystal-QMMM,
                                                   LR-CPCM, SF, NACMEs, symmetry and pop. for TD-DFT,
                                                   nearIR, NL-DFT gradient (VV10), updates on ESD,
                                                   ML-optimized integration grids
   S Lehtola, MJT Oliveira, MAL Marques          : LibXC Library
   Liviu Ungur et al                             : ANISO software


 Your calculation uses the libint2 library for the computation of 2-el integrals
 For citations please refer to: http://libint.valeyev.net

 Your ORCA version has been built with support for libXC version: 5.1.0
 For citations please refer to: https://tddft.org/programs/libxc/

 This ORCA versions uses:
   CBLAS   interface :  Fast vector & matrix operations
   LAPACKE interface :  Fast linear algebra routines
   SCALAPACK package :  Parallel linear algebra routines
   Shared memory     :  Shared parallel matrices
   BLAS/LAPACK       :  OpenBLAS 0.3.15  USE64BITINT DYNAMIC_ARCH NO_AFFINITY Zen SINGLE_THREADED
        Core in use  :  Zen
   Copyright (c) 2011-2014, The OpenBLAS Project


================================================================================

----- Orbital basis set information -----
Your calculation utilizes the basis: cc-pVTZ 
       H, B-Ne : Obtained from the ccRepo (grant-hill.group.shef.ac.uk/ccrepo) Feb. 2017
                 T. H. Dunning, Jr., J. Chem. Phys. 90, 1007 (1989)
            He : Obtained from the ccRepo (grant-hill.group.shef.ac.uk/ccrepo) Feb. 2017
                 D. E. Woon, T. H. Dunning, Jr., J. Chem. Phys. 100, 2975 (1994)
  Li-Be, Na-Mg : Obtained from the ccRepo (grant-hill.group.shef.ac.uk/ccrepo) Feb. 2017
                 B. P. Prascher, D. E. Woon, K. A. Peterson, T. H. Dunning, Jr., A. K. Wilson, Theor. Chem. Acc. 128, 69 (2011)
         Al-Ar : Obtained from the ccRepo (grant-hill.group.shef.ac.uk/ccrepo) Feb. 2017
                 D. E. Woon, T. H. Dunning, Jr., J. Chem. Phys. 98, 1358 (1993)
            Ca : Obtained from the Peterson Research Group Website (tyr0.chem.wsu.edu/~kipeters) Feb. 2017
                 J. Koput, K. A. Peterson, J. Phys. Chem. 106, 9595 (2002)
         Sc-Zn : Obtained from the ccRepo (grant-hill.group.shef.ac.uk/ccrepo) Feb. 2017
                 N. B. Balabanov, K. A. Peterson, J. Chem. Phys. 123, 064107 (2005)
                 N. B. Balabanov, K. A. Peterson, J. Chem. Phys. 125, 074110 (2006)
         Ga-Kr : Obtained from the ccRepo (grant-hill.group.shef.ac.uk/ccrepo) Feb. 2017
                 A. K. Wilson, D. E. Woon, K. A. Peterson, T. H. Dunning, Jr., J. Chem. Phys. 110, 7667 (1999)
             Y : Obtained from the ccRepo (grant-hill.group.shef.ac.uk/ccrepo) Feb. 2017
                 K. A. Peterson, D. Figgen, M. Dolg, H. Stoll, J. Chem. Phys. 126, 124101 (2007)
        Ag, Au : Obtained from the Peterson Research Group Website (tyr0.chem.wsu.edu/~kipeters) Feb. 2017
                 K. A. Peterson, C. Puzzarini, Theor. Chem. Acc. 114, 283 (2005)

----- AuxC basis set information -----
Your calculation utilizes the auxiliary basis: cc-pVTZ/C 
  Obtained from the EMSL Basis Set Exchange (bse.pnl.gov) Feb. 2017
  H-He, B-F, Al-Ar, Ga-Kr : F. Weigend, A. Kohn, C. Hattig, J. Chem. Phys. 116, 3175 (2002)
             Li-Be, Na-Mg : C. Haettig, Phys. Chem. Chem. Phys. 7, 59 (2005)
                       Ne : C. Haettig, Phys. Chem. Chem. Phys. 7, 59 (2005)
                            F. Weigend, A. Kohn, C. Hattig, J. Chem. Phys. 116, 3175 (2002)
                    Sc-Zn : J. G. Hill, J. A. Platts, J. Chem. Phys. 128, 044104 (2008)

================================================================================
                                        WARNINGS
                       Please study these warnings very carefully!
================================================================================


WARNING: No MP2 level density has been requested!
         To caclulate MP2 level properties use
         %mp2 Density relaxed end
         or
         %mp2 Density unrelaxed end

WARNING: Post HF methods need fully converged wavefunctions
  ===> : Setting SCFConvForced true
         You can overwrite this default with %scf ConvForced false 


INFO   : the flag for use of the SHARK integral package has been found!

================================================================================
                                       INPUT FILE
================================================================================
NAME = CONFS/Conf595.orca
|  1> ! ri-mp2 cc-pvtz cc-pvtz/c TightSCF NoKeepInts
|  2> 
|  3> %scf
|  4>   MaxCore 4096
|  5> end
|  6> *xyz  0  1
|  7>     C       15.2175983   14.5442436   17.1928154
|  8>     C       15.5908808   14.9158131   15.7398812
|  9>     O       16.5553624   15.9884475   15.7126643
| 10>     C       17.7022845   15.9004798   16.4472824
| 11>     O       18.3042862   14.8455697   16.5626858
| 12>     C       17.8858519   17.0345926   17.4125442
| 13>     C       17.3853741   18.2844575   17.2358982
| 14>     C       16.5910632   18.8075979   16.0570189
| 15>     N       17.6532640   19.2797791   18.1811582
| 16>     C       18.5137187   19.1448076   19.2387307
| 17>     S       18.8633773   20.4104508   20.2444049
| 18>     N       19.0706707   17.9041409   19.4201603
| 19>     C       18.6984063   16.6925956   18.6657041
| 20>     C       17.9311605   15.7219049   19.5592083
| 21>     C       18.3802718   14.3989312   19.7260921
| 22>     C       17.6662176   13.4963496   20.5318772
| 23>     C       16.4913372   13.9189878   21.1765777
| 24>     C       16.0392915   15.2350823   21.0109741
| 25>     O       14.8996753   15.6435731   21.6236574
| 26>     C       16.7526669   16.1314707   20.2093450
| 27>     H       16.0560466   14.0663262   17.7148972
| 28>     H       14.3794054   13.8373633   17.2004866
| 29>     H       14.9168051   15.4341894   17.7594922
| 30>     H       16.0039489   14.0315315   15.2359532
| 31>     H       14.6893360   15.2252058   15.1959227
| 32>     H       15.5629995   18.4254589   16.0832173
| 33>     H       17.0439931   18.4913358   15.1090049
| 34>     H       16.5388392   19.9029401   16.0364695
| 35>     H       17.2550117   20.1979159   18.0649418
| 36>     H       19.6776217   17.8233940   20.2257941
| 37>     H       19.6274129   16.2026949   18.3398673
| 38>     H       19.2769451   14.0636270   19.2105341
| 39>     H       18.0207417   12.4736054   20.6469273
| 40>     H       15.9349948   13.2240560   21.7966848
| 41>     H       14.5841338   14.9072964   22.1689327
| 42>     H       16.3860051   17.1457840   20.0961941
| 43> *
| 44> 
| 45>                          ****END OF INPUT****
================================================================================

                       ****************************
                       * Single Point Calculation *
                       ****************************

---------------------------------
CARTESIAN COORDINATES (ANGSTROEM)
---------------------------------
  C     15.217598   14.544244   17.192815
  C     15.590881   14.915813   15.739881
  O     16.555362   15.988447   15.712664
  C     17.702285   15.900480   16.447282
  O     18.304286   14.845570   16.562686
  C     17.885852   17.034593   17.412544
  C     17.385374   18.284457   17.235898
  C     16.591063   18.807598   16.057019
  N     17.653264   19.279779   18.181158
  C     18.513719   19.144808   19.238731
  S     18.863377   20.410451   20.244405
  N     19.070671   17.904141   19.420160
  C     18.698406   16.692596   18.665704
  C     17.931161   15.721905   19.559208
  C     18.380272   14.398931   19.726092
  C     17.666218   13.496350   20.531877
  C     16.491337   13.918988   21.176578
  C     16.039292   15.235082   21.010974
  O     14.899675   15.643573   21.623657
  C     16.752667   16.131471   20.209345
  H     16.056047   14.066326   17.714897
  H     14.379405   13.837363   17.200487
  H     14.916805   15.434189   17.759492
  H     16.003949   14.031531   15.235953
  H     14.689336   15.225206   15.195923
  H     15.562999   18.425459   16.083217
  H     17.043993   18.491336   15.109005
  H     16.538839   19.902940   16.036469
  H     17.255012   20.197916   18.064942
  H     19.677622   17.823394   20.225794
  H     19.627413   16.202695   18.339867
  H     19.276945   14.063627   19.210534
  H     18.020742   12.473605   20.646927
  H     15.934995   13.224056   21.796685
  H     14.584134   14.907296   22.168933
  H     16.386005   17.145784   20.096194

----------------------------
CARTESIAN COORDINATES (A.U.)
----------------------------
  NO LB      ZA    FRAG     MASS         X           Y           Z
   0 C     6.0000    0    12.011   28.757093   27.484637   32.489713
   1 C     6.0000    0    12.011   29.462495   28.186802   29.744065
   2 O     8.0000    0    15.999   31.285101   30.213787   29.692632
   3 C     6.0000    0    12.011   33.452470   30.047552   31.080859
   4 O     8.0000    0    15.999   34.590088   28.054061   31.298940
   5 C     6.0000    0    12.011   33.799362   32.190715   32.904940
   6 C     6.0000    0    12.011   32.853596   34.552617   32.571127
   7 C     6.0000    0    12.011   31.352566   35.541209   30.343368
   8 N     7.0000    0    14.007   33.359834   36.433502   34.357410
   9 C     6.0000    0    12.011   34.985858   36.178443   36.355932
  10 S    16.0000    0    32.060   35.646617   38.570162   38.256381
  11 N     7.0000    0    14.007   36.038345   33.833923   36.698784
  12 C     6.0000    0    12.011   35.334867   31.544434   35.273069
  13 C     6.0000    0    12.011   33.884983   29.710095   36.961547
  14 C     6.0000    0    12.011   34.733680   27.210037   37.276912
  15 C     6.0000    0    12.011   33.384313   25.504405   38.799625
  16 C     6.0000    0    12.011   31.164111   26.303075   40.017932
  17 C     6.0000    0    12.011   30.309868   28.790133   39.704987
  18 O     8.0000    0    15.999   28.156306   29.562069   40.862790
  19 C     6.0000    0    12.011   31.657952   30.484062   38.190127
  20 H     1.0000    0     1.008   30.341531   26.581504   33.476304
  21 H     1.0000    0     1.008   27.173138   26.148827   32.504209
  22 H     1.0000    0     1.008   28.188676   29.166391   33.560577
  23 H     1.0000    0     1.008   30.243080   26.515752   28.791779
  24 H     1.0000    0     1.008   27.758822   28.771469   28.716132
  25 H     1.0000    0     1.008   29.409807   34.819071   30.392876
  26 H     1.0000    0     1.008   32.208479   34.943561   28.551881
  27 H     1.0000    0     1.008   31.253877   37.611106   30.304536
  28 H     1.0000    0     1.008   32.607247   38.168530   34.137793
  29 H     1.0000    0     1.008   37.185316   33.681333   38.221212
  30 H     1.0000    0     1.008   37.090435   30.618656   34.657327
  31 H     1.0000    0     1.008   36.428147   26.576403   36.302648
  32 H     1.0000    0     1.008   34.054267   23.571698   39.017038
  33 H     1.0000    0     1.008   30.112776   24.989844   41.189765
  34 H     1.0000    0     1.008   27.560019   28.170708   41.893211
  35 H     1.0000    0     1.008   30.965062   32.400836   37.976303

--------------------------------
INTERNAL COORDINATES (ANGSTROEM)
--------------------------------
 C      0   0   0     0.000000000000     0.00000000     0.00000000
 C      1   0   0     1.545451878146     0.00000000     0.00000000
 O      2   1   0     1.442743938628   110.97459075     0.00000000
 C      3   2   1     1.364856172847   120.24439481    51.79935682
 O      4   3   2     1.220065289489   121.41742197    38.45581086
 C      4   3   2     1.500546292523   113.59829725   237.10679002
 C      6   4   3     1.357882213545   124.53471286   331.91562671
 C      7   6   4     1.514715183769   127.76489233   358.34798714
 N      7   6   4     1.398551591307   119.77151779   182.02544447
 C      9   7   6     1.370058097060   124.88399958     7.11550202
 S     10   9   7     1.653933022467   121.78629852   175.17518712
 N     10   9   7     1.371993473217   116.49450745   355.17835278
 C     12  10   9     1.475000662772   124.93671114   352.79531747
 C     13  12  10     1.526190128425   110.47775849   251.14913276
 C     14  13  12     1.407057416519   120.46359585   235.81385055
 C     15  14  13     1.404925824582   120.65374269   180.94684508
 C     16  15  14     1.405206652811   119.66034419     0.05005917
 C     17  16  15     1.401383102564   119.86403666     0.06854864
 O     18  17  16     1.356823733241   120.02065662   179.48947793
 C     18  17  16     1.398222385369   120.34783162   359.87506455
 H      1   2   3     1.097255667056   111.56012626   290.88399022
 H      1   2   3     1.096497124231   110.25574401   171.56632249
 H      1   2   3     1.097088269813   110.90361632    51.93757986
 H      2   1   3     1.098418241163   109.18301857   121.14329715
 H      2   1   3     1.097450554213   109.59357812   239.21283213
 H      8   7   6     1.097101427736   110.64111125    74.77911915
 H      8   7   6     1.097222746030   110.88103480   315.11696965
 H      8   7   6     1.096778992832   112.61091976   195.33830185
 H      9   7   6     1.007514927730   119.66101874   182.09766419
 H     12  10   9     1.011906812885   114.89326284   181.96410398
 H     13  12  10     1.099647934085   107.71462566   132.97967158
 H     15  14  13     1.087314105875   119.79738300   359.64344282
 H     16  15  14     1.088544698956   119.91369158   179.56659409
 H     17  16  15     1.084887039355   119.89022835   179.77058112
 H     19  18  17     0.969017528208   107.38814394     3.70893367
 H     20  18  17     1.084470134355   119.13940720   180.10367936

---------------------------
INTERNAL COORDINATES (A.U.)
---------------------------
 C      0   0   0     0.000000000000     0.00000000     0.00000000
 C      1   0   0     2.920480802851     0.00000000     0.00000000
 O      2   1   0     2.726390925382   110.97459075     0.00000000
 C      3   2   1     2.579204378873   120.24439481    51.79935682
 O      4   3   2     2.305589262638   121.41742197    38.45581086
 C      4   3   2     2.835621544140   113.59829725   237.10679002
 C      6   4   3     2.566025505722   124.53471286   331.91562671
 C      7   6   4     2.862396868215   127.76489233   358.34798714
 N      7   6   4     2.642879491731   119.77151779   182.02544447
 C      9   7   6     2.589034591005   124.88399958     7.11550202
 S     10   9   7     3.125480456311   121.78629852   175.17518712
 N     10   9   7     2.592691921907   116.49450745   355.17835278
 C     12  10   9     2.787347299991   124.93671114   352.79531747
 C     13  12  10     2.884081371017   110.47775849   251.14913276
 C     14  13  12     2.658953171924   120.46359585   235.81385055
 C     15  14  13     2.654925046934   120.65374269   180.94684508
 C     16  15  14     2.655455735377   119.66034419     0.05005917
 C     17  16  15     2.648230272551   119.86403666     0.06854864
 O     18  17  16     2.564025267830   120.02065662   179.48947793
 C     18  17  16     2.642257382665   120.34783162   359.87506455
 H      1   2   3     2.073512709629   111.56012626   290.88399022
 H      1   2   3     2.072079271430   110.25574401   171.56632249
 H      1   2   3     2.073196374685   110.90361632    51.93757986
 H      2   1   3     2.075709656302   109.18301857   121.14329715
 H      2   1   3     2.073880992983   109.59357812   239.21283213
 H      8   7   6     2.073221239556   110.64111125    74.77911915
 H      8   7   6     2.073450497906   110.88103480   315.11696965
 H      8   7   6     2.072611925890   112.61091976   195.33830185
 H      9   7   6     1.903927289247   119.66101874   182.09766419
 H     12  10   9     1.912226749402   114.89326284   181.96410398
 H     13  12  10     2.078033439154   107.71462566   132.97967158
 H     15  14  13     2.054725881653   119.79738300   359.64344282
 H     16  15  14     2.057051365558   119.91369158   179.56659409
 H     17  16  15     2.050139390621   119.89022835   179.77058112
 H     19  18  17     1.831177747283   107.38814394     3.70893367
 H     20  18  17     2.049351554347   119.13940720   180.10367936

---------------------
BASIS SET INFORMATION
---------------------
There are 5 groups of distinct atoms

 Group   1 Type C   : 18s5p2d1f contracted to 4s3p2d1f pattern {8811/311/11/1}
 Group   2 Type O   : 18s5p2d1f contracted to 4s3p2d1f pattern {8811/311/11/1}
 Group   3 Type N   : 18s5p2d1f contracted to 4s3p2d1f pattern {8811/311/11/1}
 Group   4 Type S   : 41s16p2d1f contracted to 5s4p2d1f pattern {13131311/7711/11/1}
 Group   5 Type H   : 5s2p1d contracted to 3s2p1d pattern {311/11/1}

Atom   0C    basis set group =>   1
Atom   1C    basis set group =>   1
Atom   2O    basis set group =>   2
Atom   3C    basis set group =>   1
Atom   4O    basis set group =>   2
Atom   5C    basis set group =>   1
Atom   6C    basis set group =>   1
Atom   7C    basis set group =>   1
Atom   8N    basis set group =>   3
Atom   9C    basis set group =>   1
Atom  10S    basis set group =>   4
Atom  11N    basis set group =>   3
Atom  12C    basis set group =>   1
Atom  13C    basis set group =>   1
Atom  14C    basis set group =>   1
Atom  15C    basis set group =>   1
Atom  16C    basis set group =>   1
Atom  17C    basis set group =>   1
Atom  18O    basis set group =>   2
Atom  19C    basis set group =>   1
Atom  20H    basis set group =>   5
Atom  21H    basis set group =>   5
Atom  22H    basis set group =>   5
Atom  23H    basis set group =>   5
Atom  24H    basis set group =>   5
Atom  25H    basis set group =>   5
Atom  26H    basis set group =>   5
Atom  27H    basis set group =>   5
Atom  28H    basis set group =>   5
Atom  29H    basis set group =>   5
Atom  30H    basis set group =>   5
Atom  31H    basis set group =>   5
Atom  32H    basis set group =>   5
Atom  33H    basis set group =>   5
Atom  34H    basis set group =>   5
Atom  35H    basis set group =>   5
---------------------------------
AUXILIARY/C BASIS SET INFORMATION
---------------------------------
There are 5 groups of distinct atoms

 Group   1 Type C   : 8s6p5d3f1g contracted to 8s6p5d3f1g pattern {11111111/111111/11111/111/1}
 Group   2 Type O   : 8s6p5d3f1g contracted to 8s6p5d3f1g pattern {11111111/111111/11111/111/1}
 Group   3 Type N   : 8s6p5d3f1g contracted to 8s6p5d3f1g pattern {11111111/111111/11111/111/1}
 Group   4 Type S   : 10s8p7d5f2g contracted to 10s8p7d5f2g pattern {1111111111/11111111/1111111/11111/11}
 Group   5 Type H   : 4s3p2d1f contracted to 4s3p2d1f pattern {1111/111/11/1}

Atom   0C    basis set group =>   1
Atom   1C    basis set group =>   1
Atom   2O    basis set group =>   2
Atom   3C    basis set group =>   1
Atom   4O    basis set group =>   2
Atom   5C    basis set group =>   1
Atom   6C    basis set group =>   1
Atom   7C    basis set group =>   1
Atom   8N    basis set group =>   3
Atom   9C    basis set group =>   1
Atom  10S    basis set group =>   4
Atom  11N    basis set group =>   3
Atom  12C    basis set group =>   1
Atom  13C    basis set group =>   1
Atom  14C    basis set group =>   1
Atom  15C    basis set group =>   1
Atom  16C    basis set group =>   1
Atom  17C    basis set group =>   1
Atom  18O    basis set group =>   2
Atom  19C    basis set group =>   1
Atom  20H    basis set group =>   5
Atom  21H    basis set group =>   5
Atom  22H    basis set group =>   5
Atom  23H    basis set group =>   5
Atom  24H    basis set group =>   5
Atom  25H    basis set group =>   5
Atom  26H    basis set group =>   5
Atom  27H    basis set group =>   5
Atom  28H    basis set group =>   5
Atom  29H    basis set group =>   5
Atom  30H    basis set group =>   5
Atom  31H    basis set group =>   5
Atom  32H    basis set group =>   5
Atom  33H    basis set group =>   5
Atom  34H    basis set group =>   5
Atom  35H    basis set group =>   5
------------------------------------------------------------------------------
                           ORCA GTO INTEGRAL CALCULATION
------------------------------------------------------------------------------
------------------------------------------------------------------------------
                   ___                                                        
                  /   \      - P O W E R E D   B Y -                         
                 /     \                                                     
                 |  |  |   _    _      __       _____    __    __             
                 |  |  |  | |  | |    /  \     |  _  \  |  |  /  |          
                  \  \/   | |  | |   /    \    | | | |  |  | /  /          
                 / \  \   | |__| |  /  /\  \   | |_| |  |  |/  /          
                |  |  |   |  __  | /  /__\  \  |    /   |      \           
                |  |  |   | |  | | |   __   |  |    \   |  |\   \          
                \     /   | |  | | |  |  |  |  | |\  \  |  | \   \       
                 \___/    |_|  |_| |__|  |__|  |_| \__\ |__|  \__/        
                                                                              
                      - O R C A' S   B I G   F R I E N D -                    
                                      &                                       
                       - I N T E G R A L  F E E D E R -                       
                                                                              
 v1 FN, 2020, v2 2021                                                         
------------------------------------------------------------------------------


Reading SHARK input file CONFS/Conf595.orca.SHARKINP.tmp ... ok
----------------------
SHARK INTEGRAL PACKAGE
----------------------

Number of atoms                             ...     36
Number of basis functions                   ...    828
Number of shells                            ...    298
Maximum angular momentum                    ...      3
Integral batch strategy                     ... SHARK/LIBINT Hybrid
RI-J (if used) integral strategy            ... SPLIT-RIJ (Revised 2003 algorithm where possible)
Printlevel                                  ...      1
Contraction scheme used                     ... SEGMENTED contraction
Coulomb Range Separation                    ... NOT USED
Exchange Range Separation                   ... NOT USED
Finite Nucleus Model                        ... NOT USED
Auxiliary Coulomb fitting basis             ... NOT available
Auxiliary J/K fitting basis                 ... NOT available
Auxiliary Correlation fitting basis         ... AVAILABLE
   # of basis functions in Aux-C            ...   2141
   # of shells in Aux-C                     ...    629
   Maximum angular momentum in Aux-C        ...      4
Auxiliary 'external' fitting basis          ... NOT available
Integral threshold                          ...     2.500000e-11
Primitive cut-off                           ...     2.500000e-12
Primitive pair pre-selection threshold      ...     2.500000e-12

Calculating pre-screening integrals         ... done (  0.5 sec) Dimension = 298
Organizing shell pair data                  ... done (  1.5 sec)
Shell pair information
Total number of shell pairs                 ...     44551
Shell pairs after pre-screening             ...     34390
Total number of primitive shell pairs       ...    234348
Primitive shell pairs kept                  ...     98335
          la=0 lb=0:   6837 shell pairs
          la=1 lb=0:   9547 shell pairs
          la=1 lb=1:   3380 shell pairs
          la=2 lb=0:   5495 shell pairs
          la=2 lb=1:   3779 shell pairs
          la=2 lb=2:   1084 shell pairs
          la=3 lb=0:   1981 shell pairs
          la=3 lb=1:   1365 shell pairs
          la=3 lb=2:    770 shell pairs
          la=3 lb=3:    152 shell pairs

Calculating one electron integrals          ... done (  0.3 sec)
Calculating RI/C V-Matrix + Cholesky decomp.... done (  1.3 sec)
Calculating Nuclear repulsion               ... done (  0.0 sec) ENN=   1729.084794648942 Eh

SHARK setup successfully completed in   4.2 seconds

Maximum memory used throughout the entire GTOINT-calculation: 512.3 MB
-------------------------------------------------------------------------------
                                 ORCA SCF
-------------------------------------------------------------------------------

------------
SCF SETTINGS
------------
Hamiltonian:
 Ab initio Hamiltonian  Method          .... Hartree-Fock(GTOs)


General Settings:
 Integral files         IntName         .... CONFS/Conf595.orca
 Hartree-Fock type      HFTyp           .... RHF
 Total Charge           Charge          ....    0
 Multiplicity           Mult            ....    1
 Number of Electrons    NEL             ....  154
 Basis Dimension        Dim             ....  828
 Nuclear Repulsion      ENuc            ....   1729.0847946489 Eh

Convergence Acceleration:
 DIIS                   CNVDIIS         .... on
   Start iteration      DIISMaxIt       ....    12
   Startup error        DIISStart       ....  0.200000
   # of expansion vecs  DIISMaxEq       ....     5
   Bias factor          DIISBfac        ....   1.050
   Max. coefficient     DIISMaxC        ....  10.000
 Trust-Rad. Augm. Hess. CNVTRAH         .... auto
   Auto Start mean grad. ratio tolernc. ....  1.125000
   Auto Start start iteration           ....    20
   Auto Start num. interpolation iter.  ....    10
   Max. Number of Micro iterations      ....    16
   Max. Number of Macro iterations      .... Maxiter - #DIIS iter
   Number of Davidson start vectors     ....     2
   Converg. threshold I  (grad. norm)   ....   1.000e-05
   Converg. threshold II (energy diff.) ....   1.000e-08
   Grad. Scal. Fac. for Micro threshold ....   0.100
   Minimum threshold for Micro iter.    ....   0.010
   NR start threshold (gradient norm)   ....   0.001
   Initial trust radius                 ....   0.400
   Minimum AH scaling param. (alpha)    ....   1.000
   Maximum AH scaling param. (alpha)    .... 1000.000
   Orbital update algorithm             .... Taylor
   White noise on init. David. guess    .... on
   Maximum white noise                  ....   0.010
   Quad. conv. algorithm                .... NR
 SOSCF                  CNVSOSCF        .... on
   Start iteration      SOSCFMaxIt      ....   150
   Startup grad/error   SOSCFStart      ....  0.003300
 Level Shifting         CNVShift        .... on
   Level shift para.    LevelShift      ....    0.2500
   Turn off err/grad.   ShiftErr        ....    0.0010
 Zerner damping         CNVZerner       .... off
 Static damping         CNVDamp         .... on
   Fraction old density DampFac         ....    0.7000
   Max. Damping (<1)    DampMax         ....    0.9800
   Min. Damping (>=0)   DampMin         ....    0.0000
   Turn off err/grad.   DampErr         ....    0.1000
 Fernandez-Rico         CNVRico         .... off

SCF Procedure:
 Maximum # iterations   MaxIter         ....   125
 SCF integral mode      SCFMode         .... Direct
   Integral package                     .... SHARK and LIBINT hybrid scheme
 Reset frequency        DirectResetFreq ....    20
 Integral Threshold     Thresh          ....  2.500e-11 Eh
 Primitive CutOff       TCut            ....  2.500e-12 Eh

Convergence Tolerance:
 Convergence Check Mode ConvCheckMode   .... Total+1el-Energy
 Convergence forced     ConvForced      .... 1
 Energy Change          TolE            ....  1.000e-08 Eh
 1-El. energy change                    ....  1.000e-05 Eh
 Orbital Gradient       TolG            ....  1.000e-05
 Orbital Rotation angle TolX            ....  1.000e-05
 DIIS Error             TolErr          ....  5.000e-07


Diagonalization of the overlap matrix:
Smallest eigenvalue                        ... 3.328e-05
Time for diagonalization                   ...    0.112 sec
Threshold for overlap eigenvalues          ... 1.000e-08
Number of eigenvalues below threshold      ... 0
Time for construction of square roots      ...    0.108 sec
Total time needed                          ...    0.222 sec

Time for model grid setup =    2.032 sec

------------------------------
INITIAL GUESS: MODEL POTENTIAL
------------------------------
Loading Hartree-Fock densities                     ... done
Calculating cut-offs                               ... done
Initializing the effective Hamiltonian             ... done
Setting up the integral package (SHARK)            ... done
Starting the Coulomb interaction                   ... done (   5.3 sec)
Reading the grid                                   ... done
Mapping shells                                     ... done
Starting the XC term evaluation                    ... done (   1.3 sec)
Transforming the Hamiltonian                       ... done (   0.1 sec)
Diagonalizing the Hamiltonian                      ... done (   0.1 sec)
Back transforming the eigenvectors                 ... done (   0.0 sec)
Now organizing SCF variables                       ... done
                      ------------------
                      INITIAL GUESS DONE (   9.2 sec)
                      ------------------
--------------
SCF ITERATIONS
--------------
ITER       Energy         Delta-E        Max-DP      RMS-DP      [F,P]     Damp
               ***  Starting incremental Fock matrix formation  ***
  0  -1270.0062337568   0.000000000000 0.04930818  0.00043860  0.3058759 0.7000
  1  -1270.2734276570  -0.267193900243 0.03607492  0.00035388  0.1781543 0.7000
                               ***Turning on DIIS***
  2  -1270.4397994367  -0.166371779704 0.02583329  0.00023657  0.1097314 0.7000
  3  -1272.6032141194  -2.163414682738 0.06312559  0.00051340  0.0828705 0.0000
  4  -1270.7467471714   1.856466948021 0.01068800  0.00009996  0.0069018 0.0000
  5  -1270.8089037648  -0.062156593325 0.00491221  0.00005414  0.0036078 0.0000
                      *** Initiating the SOSCF procedure ***
                           *** Shutting down DIIS ***
                      *** Re-Reading the Fockian *** 
                      *** Removing any level shift *** 
ITER      Energy       Delta-E        Grad      Rot      Max-DP    RMS-DP
  6  -1270.78687306   0.0220307058  0.001658  0.001658  0.002395  0.000027
               *** Restarting incremental Fock matrix formation ***
  7  -1270.80122271  -0.0143496548  0.000949  0.002448  0.001744  0.000017
  8  -1270.80127209  -0.0000493809  0.000438  0.002896  0.001717  0.000018
  9  -1270.80129095  -0.0000188561  0.000198  0.000396  0.000366  0.000005
 10  -1270.80129339  -0.0000024343  0.000059  0.000158  0.000119  0.000001
 11  -1270.80129362  -0.0000002335  0.000023  0.000126  0.000070  0.000001
 12  -1270.80129368  -0.0000000653  0.000011  0.000039  0.000029  0.000000
 13  -1270.80129369  -0.0000000045  0.000003  0.000008  0.000005  0.000000
                 **** Energy Check signals convergence ****
              ***Rediagonalizing the Fockian in SOSCF/NRSCF***

               *****************************************************
               *                     SUCCESS                       *
               *           SCF CONVERGED AFTER  14 CYCLES          *
               *****************************************************


----------------
TOTAL SCF ENERGY
----------------

Total Energy       :        -1270.80129368 Eh          -34580.26123 eV

Components:
Nuclear Repulsion  :         1729.08479465 Eh           47050.78928 eV
Electronic Energy  :        -2999.88608833 Eh          -81631.05051 eV
One Electron Energy:        -5179.49484869 Eh         -140941.22015 eV
Two Electron Energy:         2179.60876036 Eh           59310.16964 eV

Virial components:
Potential Energy   :        -2539.77134655 Eh          -69110.69186 eV
Kinetic Energy     :         1268.97005287 Eh           34530.43063 eV
Virial Ratio       :            2.00144309


---------------
SCF CONVERGENCE
---------------

  Last Energy change         ...    6.4451e-09  Tolerance :   1.0000e-08
  Last MAX-Density change    ...    1.7968e-06  Tolerance :   1.0000e-07
  Last RMS-Density change    ...    3.2743e-08  Tolerance :   5.0000e-09
  Last Orbital Gradient      ...    1.0970e-06  Tolerance :   1.0000e-05
  Last Orbital Rotation      ...    2.4519e-06  Tolerance :   1.0000e-05

             **** THE GBW FILE WAS UPDATED (CONFS/Conf595.orca.gbw) ****
             **** DENSITY CONFS/Conf595.orca.scfp WAS UPDATED ****
             **** ENERGY FILE WAS UPDATED (CONFS/Conf595.orca.en.tmp) ****
             **** THE GBW FILE WAS UPDATED (CONFS/Conf595.orca.gbw) ****
             **** DENSITY CONFS/Conf595.orca.scfp WAS UPDATED ****
----------------
ORBITAL ENERGIES
----------------

  NO   OCC          E(Eh)            E(eV) 
   0   2.0000     -91.888845     -2500.4226 
   1   2.0000     -20.595029      -560.4192 
   2   2.0000     -20.590357      -560.2921 
   3   2.0000     -20.549706      -559.1859 
   4   2.0000     -15.628920      -425.2845 
   5   2.0000     -15.607952      -424.7140 
   6   2.0000     -11.395282      -310.0814 
   7   2.0000     -11.384051      -309.7758 
   8   2.0000     -11.335480      -308.4541 
   9   2.0000     -11.310870      -307.7844 
  10   2.0000     -11.307566      -307.6945 
  11   2.0000     -11.300775      -307.5097 
  12   2.0000     -11.260387      -306.4107 
  13   2.0000     -11.259389      -306.3835 
  14   2.0000     -11.256267      -306.2986 
  15   2.0000     -11.251231      -306.1616 
  16   2.0000     -11.240873      -305.8797 
  17   2.0000     -11.236350      -305.7566 
  18   2.0000     -11.233833      -305.6881 
  19   2.0000     -11.223425      -305.4049 
  20   2.0000      -8.893912      -242.0156 
  21   2.0000      -6.575488      -178.9281 
  22   2.0000      -6.573481      -178.8735 
  23   2.0000      -6.572895      -178.8576 
  24   2.0000      -1.450317       -39.4651 
  25   2.0000      -1.414786       -38.4983 
  26   2.0000      -1.355003       -36.8715 
  27   2.0000      -1.339958       -36.4621 
  28   2.0000      -1.237926       -33.6857 
  29   2.0000      -1.155324       -31.4380 
  30   2.0000      -1.120810       -30.4988 
  31   2.0000      -1.043384       -28.3919 
  32   2.0000      -1.030594       -28.0439 
  33   2.0000      -1.012694       -27.5568 
  34   2.0000      -0.999134       -27.1878 
  35   2.0000      -0.984764       -26.7968 
  36   2.0000      -0.923306       -25.1244 
  37   2.0000      -0.894333       -24.3360 
  38   2.0000      -0.848353       -23.0848 
  39   2.0000      -0.837535       -22.7905 
  40   2.0000      -0.831255       -22.6196 
  41   2.0000      -0.815701       -22.1964 
  42   2.0000      -0.747712       -20.3463 
  43   2.0000      -0.734340       -19.9824 
  44   2.0000      -0.727288       -19.7905 
  45   2.0000      -0.693179       -18.8624 
  46   2.0000      -0.686224       -18.6731 
  47   2.0000      -0.677188       -18.4272 
  48   2.0000      -0.671978       -18.2855 
  49   2.0000      -0.657941       -17.9035 
  50   2.0000      -0.654246       -17.8029 
  51   2.0000      -0.645486       -17.5646 
  52   2.0000      -0.634200       -17.2574 
  53   2.0000      -0.615753       -16.7555 
  54   2.0000      -0.602973       -16.4077 
  55   2.0000      -0.601978       -16.3807 
  56   2.0000      -0.598758       -16.2930 
  57   2.0000      -0.579086       -15.7577 
  58   2.0000      -0.575712       -15.6659 
  59   2.0000      -0.563469       -15.3328 
  60   2.0000      -0.552455       -15.0331 
  61   2.0000      -0.546837       -14.8802 
  62   2.0000      -0.533687       -14.5224 
  63   2.0000      -0.531713       -14.4687 
  64   2.0000      -0.520164       -14.1544 
  65   2.0000      -0.510611       -13.8944 
  66   2.0000      -0.499011       -13.5788 
  67   2.0000      -0.492799       -13.4097 
  68   2.0000      -0.481418       -13.1000 
  69   2.0000      -0.464283       -12.6338 
  70   2.0000      -0.457947       -12.4614 
  71   2.0000      -0.449047       -12.2192 
  72   2.0000      -0.354432        -9.6446 
  73   2.0000      -0.346949        -9.4410 
  74   2.0000      -0.328065        -8.9271 
  75   2.0000      -0.318381        -8.6636 
  76   2.0000      -0.315809        -8.5936 
  77   0.0000       0.072690         1.9780 
  78   0.0000       0.107480         2.9247 
  79   0.0000       0.119282         3.2458 
  80   0.0000       0.132713         3.6113 
  81   0.0000       0.141515         3.8508 
  82   0.0000       0.143695         3.9101 
  83   0.0000       0.152096         4.1387 
  84   0.0000       0.156933         4.2704 
  85   0.0000       0.162138         4.4120 
  86   0.0000       0.171477         4.6661 
  87   0.0000       0.176217         4.7951 
  88   0.0000       0.192084         5.2269 
  89   0.0000       0.196679         5.3519 
  90   0.0000       0.201578         5.4852 
  91   0.0000       0.207294         5.6408 
  92   0.0000       0.208200         5.6654 
  93   0.0000       0.217897         5.9293 
  94   0.0000       0.229828         6.2539 
  95   0.0000       0.237558         6.4643 
  96   0.0000       0.245922         6.6919 
  97   0.0000       0.253427         6.8961 
  98   0.0000       0.265330         7.2200 
  99   0.0000       0.282850         7.6968 
 100   0.0000       0.290653         7.9091 
 101   0.0000       0.308329         8.3901 
 102   0.0000       0.315390         8.5822 
 103   0.0000       0.319913         8.7053 
 104   0.0000       0.320375         8.7178 
 105   0.0000       0.328546         8.9402 
 106   0.0000       0.342349         9.3158 
 107   0.0000       0.349359         9.5065 
 108   0.0000       0.357953         9.7404 
 109   0.0000       0.364551         9.9199 
 110   0.0000       0.373876        10.1737 
 111   0.0000       0.379396        10.3239 
 112   0.0000       0.385470        10.4892 
 113   0.0000       0.395618        10.7653 
 114   0.0000       0.402754        10.9595 
 115   0.0000       0.412705        11.2303 
 116   0.0000       0.420456        11.4412 
 117   0.0000       0.426019        11.5926 
 118   0.0000       0.427608        11.6358 
 119   0.0000       0.438431        11.9303 
 120   0.0000       0.450198        12.2505 
 121   0.0000       0.453905        12.3514 
 122   0.0000       0.457609        12.4522 
 123   0.0000       0.460546        12.5321 
 124   0.0000       0.464850        12.6492 
 125   0.0000       0.477228        12.9860 
 126   0.0000       0.480507        13.0753 
 127   0.0000       0.491971        13.3872 
 128   0.0000       0.496882        13.5208 
 129   0.0000       0.504542        13.7293 
 130   0.0000       0.510420        13.8892 
 131   0.0000       0.513869        13.9831 
 132   0.0000       0.516708        14.0604 
 133   0.0000       0.519646        14.1403 
 134   0.0000       0.525799        14.3077 
 135   0.0000       0.535336        14.5672 
 136   0.0000       0.536840        14.6082 
 137   0.0000       0.541986        14.7482 
 138   0.0000       0.546283        14.8651 
 139   0.0000       0.548382        14.9222 
 140   0.0000       0.560041        15.2395 
 141   0.0000       0.561908        15.2903 
 142   0.0000       0.565592        15.3905 
 143   0.0000       0.573630        15.6093 
 144   0.0000       0.577255        15.7079 
 145   0.0000       0.582152        15.8412 
 146   0.0000       0.587256        15.9800 
 147   0.0000       0.590670        16.0730 
 148   0.0000       0.594366        16.1735 
 149   0.0000       0.598246        16.2791 
 150   0.0000       0.606719        16.5097 
 151   0.0000       0.609164        16.5762 
 152   0.0000       0.615803        16.7569 
 153   0.0000       0.622860        16.9489 
 154   0.0000       0.624121        16.9832 
 155   0.0000       0.627602        17.0779 
 156   0.0000       0.634271        17.2594 
 157   0.0000       0.638279        17.3685 
 158   0.0000       0.641103        17.4453 
 159   0.0000       0.643314        17.5055 
 160   0.0000       0.650629        17.7045 
 161   0.0000       0.651662        17.7326 
 162   0.0000       0.659571        17.9478 
 163   0.0000       0.668076        18.1793 
 164   0.0000       0.674695        18.3594 
 165   0.0000       0.678104        18.4521 
 166   0.0000       0.682768        18.5791 
 167   0.0000       0.685380        18.6501 
 168   0.0000       0.687596        18.7104 
 169   0.0000       0.697056        18.9678 
 170   0.0000       0.704191        19.1620 
 171   0.0000       0.709479        19.3059 
 172   0.0000       0.716682        19.5019 
 173   0.0000       0.723254        19.6807 
 174   0.0000       0.727175        19.7874 
 175   0.0000       0.732668        19.9369 
 176   0.0000       0.745284        20.2802 
 177   0.0000       0.746067        20.3015 
 178   0.0000       0.755659        20.5625 
 179   0.0000       0.758428        20.6379 
 180   0.0000       0.770116        20.9559 
 181   0.0000       0.771342        20.9893 
 182   0.0000       0.779037        21.1987 
 183   0.0000       0.790704        21.5161 
 184   0.0000       0.803339        21.8600 
 185   0.0000       0.812396        22.1064 
 186   0.0000       0.822559        22.3830 
 187   0.0000       0.825997        22.4765 
 188   0.0000       0.831533        22.6272 
 189   0.0000       0.836526        22.7630 
 190   0.0000       0.847143        23.0519 
 191   0.0000       0.849121        23.1057 
 192   0.0000       0.853959        23.2374 
 193   0.0000       0.866496        23.5785 
 194   0.0000       0.876224        23.8433 
 195   0.0000       0.882371        24.0105 
 196   0.0000       0.890921        24.2432 
 197   0.0000       0.895170        24.3588 
 198   0.0000       0.898703        24.4549 
 199   0.0000       0.915526        24.9127 
 200   0.0000       0.920100        25.0372 
 201   0.0000       0.928771        25.2732 
 202   0.0000       0.931547        25.3487 
 203   0.0000       0.933628        25.4053 
 204   0.0000       0.946525        25.7562 
 205   0.0000       0.958928        26.0938 
 206   0.0000       0.966880        26.3101 
 207   0.0000       0.972762        26.4702 
 208   0.0000       0.976708        26.5776 
 209   0.0000       0.981929        26.7197 
 210   0.0000       0.986581        26.8462 
 211   0.0000       0.990953        26.9652 
 212   0.0000       1.001401        27.2495 
 213   0.0000       1.009103        27.4591 
 214   0.0000       1.014505        27.6061 
 215   0.0000       1.025025        27.8923 
 216   0.0000       1.027048        27.9474 
 217   0.0000       1.034357        28.1463 
 218   0.0000       1.049994        28.5718 
 219   0.0000       1.054204        28.6864 
 220   0.0000       1.057947        28.7882 
 221   0.0000       1.071262        29.1505 
 222   0.0000       1.076695        29.2983 
 223   0.0000       1.084318        29.5058 
 224   0.0000       1.090223        29.6665 
 225   0.0000       1.094336        29.7784 
 226   0.0000       1.097190        29.8561 
 227   0.0000       1.104300        30.0495 
 228   0.0000       1.122252        30.5380 
 229   0.0000       1.126745        30.6603 
 230   0.0000       1.130019        30.7494 
 231   0.0000       1.141940        31.0738 
 232   0.0000       1.151896        31.3447 
 233   0.0000       1.160041        31.5663 
 234   0.0000       1.161722        31.6121 
 235   0.0000       1.169571        31.8256 
 236   0.0000       1.177738        32.0479 
 237   0.0000       1.184446        32.2304 
 238   0.0000       1.187552        32.3149 
 239   0.0000       1.191520        32.4229 
 240   0.0000       1.199022        32.6270 
 241   0.0000       1.204187        32.7676 
 242   0.0000       1.206797        32.8386 
 243   0.0000       1.215614        33.0785 
 244   0.0000       1.224500        33.3204 
 245   0.0000       1.235713        33.6255 
 246   0.0000       1.238120        33.6910 
 247   0.0000       1.242002        33.7966 
 248   0.0000       1.252496        34.0822 
 249   0.0000       1.258011        34.2322 
 250   0.0000       1.269162        34.5356 
 251   0.0000       1.276766        34.7426 
 252   0.0000       1.279901        34.8279 
 253   0.0000       1.291284        35.1376 
 254   0.0000       1.296313        35.2745 
 255   0.0000       1.300519        35.3889 
 256   0.0000       1.312247        35.7081 
 257   0.0000       1.323223        36.0067 
 258   0.0000       1.325968        36.0814 
 259   0.0000       1.335997        36.3543 
 260   0.0000       1.344600        36.5884 
 261   0.0000       1.350088        36.7378 
 262   0.0000       1.354187        36.8493 
 263   0.0000       1.370876        37.3034 
 264   0.0000       1.380048        37.5530 
 265   0.0000       1.387481        37.7553 
 266   0.0000       1.396138        37.9908 
 267   0.0000       1.406030        38.2600 
 268   0.0000       1.412227        38.4286 
 269   0.0000       1.418513        38.5997 
 270   0.0000       1.423589        38.7378 
 271   0.0000       1.434644        39.0386 
 272   0.0000       1.438072        39.1319 
 273   0.0000       1.450798        39.4782 
 274   0.0000       1.454213        39.5712 
 275   0.0000       1.468684        39.9649 
 276   0.0000       1.475202        40.1423 
 277   0.0000       1.481646        40.3176 
 278   0.0000       1.486837        40.4589 
 279   0.0000       1.496927        40.7335 
 280   0.0000       1.498980        40.7893 
 281   0.0000       1.505934        40.9785 
 282   0.0000       1.510253        41.0961 
 283   0.0000       1.512265        41.1508 
 284   0.0000       1.517294        41.2877 
 285   0.0000       1.531407        41.6717 
 286   0.0000       1.537201        41.8294 
 287   0.0000       1.545542        42.0563 
 288   0.0000       1.550553        42.1927 
 289   0.0000       1.555963        42.3399 
 290   0.0000       1.559916        42.4475 
 291   0.0000       1.565739        42.6059 
 292   0.0000       1.580018        42.9945 
 293   0.0000       1.589092        43.2414 
 294   0.0000       1.601106        43.5683 
 295   0.0000       1.604838        43.6699 
 296   0.0000       1.609041        43.7842 
 297   0.0000       1.613638        43.9093 
 298   0.0000       1.626210        44.2514 
 299   0.0000       1.629601        44.3437 
 300   0.0000       1.641564        44.6692 
 301   0.0000       1.653103        44.9832 
 302   0.0000       1.658277        45.1240 
 303   0.0000       1.674481        45.5649 
 304   0.0000       1.677077        45.6356 
 305   0.0000       1.685884        45.8752 
 306   0.0000       1.698963        46.2311 
 307   0.0000       1.700514        46.2733 
 308   0.0000       1.715375        46.6777 
 309   0.0000       1.718985        46.7760 
 310   0.0000       1.725453        46.9520 
 311   0.0000       1.730799        47.0974 
 312   0.0000       1.750697        47.6389 
 313   0.0000       1.756386        47.7937 
 314   0.0000       1.762063        47.9482 
 315   0.0000       1.766679        48.0738 
 316   0.0000       1.771302        48.1996 
 317   0.0000       1.779731        48.4289 
 318   0.0000       1.796065        48.8734 
 319   0.0000       1.808795        49.2198 
 320   0.0000       1.829519        49.7838 
 321   0.0000       1.832933        49.8767 
 322   0.0000       1.842076        50.1254 
 323   0.0000       1.848005        50.2868 
 324   0.0000       1.860747        50.6335 
 325   0.0000       1.865969        50.7756 
 326   0.0000       1.882783        51.2331 
 327   0.0000       1.907558        51.9073 
 328   0.0000       1.912700        52.0472 
 329   0.0000       1.923759        52.3481 
 330   0.0000       1.931882        52.5692 
 331   0.0000       1.940680        52.8086 
 332   0.0000       1.949035        53.0359 
 333   0.0000       1.972321        53.6696 
 334   0.0000       1.980326        53.8874 
 335   0.0000       1.993393        54.2430 
 336   0.0000       2.003573        54.5200 
 337   0.0000       2.006963        54.6122 
 338   0.0000       2.024838        55.0987 
 339   0.0000       2.028194        55.1900 
 340   0.0000       2.036174        55.4071 
 341   0.0000       2.043977        55.6195 
 342   0.0000       2.054461        55.9047 
 343   0.0000       2.067042        56.2471 
 344   0.0000       2.072907        56.4067 
 345   0.0000       2.106568        57.3226 
 346   0.0000       2.123031        57.7706 
 347   0.0000       2.128903        57.9304 
 348   0.0000       2.157040        58.6961 
 349   0.0000       2.165084        58.9149 
 350   0.0000       2.172965        59.1294 
 351   0.0000       2.198920        59.8356 
 352   0.0000       2.211352        60.1740 
 353   0.0000       2.222646        60.4813 
 354   0.0000       2.245176        61.0943 
 355   0.0000       2.258385        61.4538 
 356   0.0000       2.281539        62.0838 
 357   0.0000       2.289480        62.2999 
 358   0.0000       2.304021        62.6956 
 359   0.0000       2.308750        62.8243 
 360   0.0000       2.312707        62.9320 
 361   0.0000       2.337964        63.6192 
 362   0.0000       2.346462        63.8505 
 363   0.0000       2.357774        64.1583 
 364   0.0000       2.373193        64.5779 
 365   0.0000       2.383010        64.8450 
 366   0.0000       2.393478        65.1299 
 367   0.0000       2.407530        65.5122 
 368   0.0000       2.412433        65.6456 
 369   0.0000       2.437127        66.3176 
 370   0.0000       2.443837        66.5002 
 371   0.0000       2.462330        67.0034 
 372   0.0000       2.487473        67.6876 
 373   0.0000       2.490886        67.7805 
 374   0.0000       2.510994        68.3276 
 375   0.0000       2.513331        68.3912 
 376   0.0000       2.514558        68.4246 
 377   0.0000       2.526437        68.7478 
 378   0.0000       2.539574        69.1053 
 379   0.0000       2.564410        69.7812 
 380   0.0000       2.584965        70.3405 
 381   0.0000       2.588225        70.4292 
 382   0.0000       2.598364        70.7051 
 383   0.0000       2.614994        71.1576 
 384   0.0000       2.623358        71.3852 
 385   0.0000       2.631531        71.6076 
 386   0.0000       2.641051        71.8666 
 387   0.0000       2.655611        72.2628 
 388   0.0000       2.670374        72.6646 
 389   0.0000       2.677341        72.8541 
 390   0.0000       2.687289        73.1248 
 391   0.0000       2.700759        73.4914 
 392   0.0000       2.706722        73.6537 
 393   0.0000       2.717217        73.9392 
 394   0.0000       2.728460        74.2452 
 395   0.0000       2.741399        74.5973 
 396   0.0000       2.753720        74.9325 
 397   0.0000       2.760179        75.1083 
 398   0.0000       2.769733        75.3683 
 399   0.0000       2.771872        75.4265 
 400   0.0000       2.785555        75.7988 
 401   0.0000       2.795823        76.0782 
 402   0.0000       2.796702        76.1021 
 403   0.0000       2.818601        76.6980 
 404   0.0000       2.834797        77.1387 
 405   0.0000       2.842691        77.3536 
 406   0.0000       2.845381        77.4268 
 407   0.0000       2.849607        77.5417 
 408   0.0000       2.861545        77.8666 
 409   0.0000       2.870668        78.1148 
 410   0.0000       2.882940        78.4488 
 411   0.0000       2.885630        78.5220 
 412   0.0000       2.898229        78.8648 
 413   0.0000       2.901408        78.9513 
 414   0.0000       2.912609        79.2561 
 415   0.0000       2.923724        79.5586 
 416   0.0000       2.927840        79.6706 
 417   0.0000       2.942030        80.0567 
 418   0.0000       2.954377        80.3927 
 419   0.0000       2.961852        80.5961 
 420   0.0000       2.965743        80.7020 
 421   0.0000       2.976578        80.9968 
 422   0.0000       2.984811        81.2208 
 423   0.0000       2.995314        81.5066 
 424   0.0000       3.010703        81.9254 
 425   0.0000       3.011955        81.9595 
 426   0.0000       3.023253        82.2669 
 427   0.0000       3.024823        82.3096 
 428   0.0000       3.033162        82.5365 
 429   0.0000       3.042728        82.7968 
 430   0.0000       3.047364        82.9230 
 431   0.0000       3.056326        83.1669 
 432   0.0000       3.065772        83.4239 
 433   0.0000       3.073744        83.6408 
 434   0.0000       3.082905        83.8901 
 435   0.0000       3.086117        83.9775 
 436   0.0000       3.090778        84.1043 
 437   0.0000       3.098312        84.3094 
 438   0.0000       3.113031        84.7099 
 439   0.0000       3.113651        84.7268 
 440   0.0000       3.116517        84.8047 
 441   0.0000       3.132005        85.2262 
 442   0.0000       3.136903        85.3595 
 443   0.0000       3.140743        85.4639 
 444   0.0000       3.146420        85.6184 
 445   0.0000       3.153414        85.8087 
 446   0.0000       3.176559        86.4386 
 447   0.0000       3.177164        86.4550 
 448   0.0000       3.182186        86.5917 
 449   0.0000       3.193383        86.8964 
 450   0.0000       3.199251        87.0560 
 451   0.0000       3.205592        87.2286 
 452   0.0000       3.211412        87.3870 
 453   0.0000       3.218433        87.5780 
 454   0.0000       3.222257        87.6821 
 455   0.0000       3.231257        87.9270 
 456   0.0000       3.236554        88.0711 
 457   0.0000       3.253043        88.5198 
 458   0.0000       3.260366        88.7191 
 459   0.0000       3.265297        88.8533 
 460   0.0000       3.271187        89.0135 
 461   0.0000       3.277055        89.1732 
 462   0.0000       3.292679        89.5984 
 463   0.0000       3.298222        89.7492 
 464   0.0000       3.307181        89.9930 
 465   0.0000       3.310234        90.0760 
 466   0.0000       3.316300        90.2411 
 467   0.0000       3.323880        90.4474 
 468   0.0000       3.329416        90.5980 
 469   0.0000       3.335136        90.7537 
 470   0.0000       3.341052        90.9146 
 471   0.0000       3.347150        91.0806 
 472   0.0000       3.350296        91.1662 
 473   0.0000       3.355409        91.3053 
 474   0.0000       3.364612        91.5557 
 475   0.0000       3.367962        91.6469 
 476   0.0000       3.371571        91.7451 
 477   0.0000       3.383418        92.0675 
 478   0.0000       3.384835        92.1060 
 479   0.0000       3.390475        92.2595 
 480   0.0000       3.398017        92.4647 
 481   0.0000       3.400690        92.5375 
 482   0.0000       3.408158        92.7407 
 483   0.0000       3.411677        92.8365 
 484   0.0000       3.418272        93.0159 
 485   0.0000       3.419829        93.0583 
 486   0.0000       3.428046        93.2819 
 487   0.0000       3.437881        93.5495 
 488   0.0000       3.443087        93.6912 
 489   0.0000       3.446217        93.7763 
 490   0.0000       3.452291        93.9416 
 491   0.0000       3.457806        94.0917 
 492   0.0000       3.459951        94.1501 
 493   0.0000       3.461020        94.1791 
 494   0.0000       3.473909        94.5299 
 495   0.0000       3.477429        94.6257 
 496   0.0000       3.484451        94.8167 
 497   0.0000       3.487487        94.8994 
 498   0.0000       3.499210        95.2184 
 499   0.0000       3.505566        95.3913 
 500   0.0000       3.516785        95.6966 
 501   0.0000       3.520896        95.8084 
 502   0.0000       3.530094        96.0587 
 503   0.0000       3.531694        96.1023 
 504   0.0000       3.546826        96.5141 
 505   0.0000       3.559965        96.8716 
 506   0.0000       3.575518        97.2948 
 507   0.0000       3.579548        97.4044 
 508   0.0000       3.586136        97.5837 
 509   0.0000       3.590534        97.7034 
 510   0.0000       3.601311        97.9967 
 511   0.0000       3.614416        98.3532 
 512   0.0000       3.616440        98.4083 
 513   0.0000       3.622193        98.5649 
 514   0.0000       3.625116        98.6444 
 515   0.0000       3.628013        98.7233 
 516   0.0000       3.630190        98.7825 
 517   0.0000       3.643244        99.1377 
 518   0.0000       3.646498        99.2263 
 519   0.0000       3.653202        99.4087 
 520   0.0000       3.660080        99.5958 
 521   0.0000       3.667606        99.8006 
 522   0.0000       3.669614        99.8553 
 523   0.0000       3.676023       100.0297 
 524   0.0000       3.686839       100.3240 
 525   0.0000       3.688243       100.3622 
 526   0.0000       3.696108       100.5762 
 527   0.0000       3.700111       100.6852 
 528   0.0000       3.704190       100.7961 
 529   0.0000       3.712322       101.0174 
 530   0.0000       3.720625       101.2434 
 531   0.0000       3.734634       101.6246 
 532   0.0000       3.737415       101.7002 
 533   0.0000       3.742418       101.8364 
 534   0.0000       3.752703       102.1162 
 535   0.0000       3.754996       102.1786 
 536   0.0000       3.762558       102.3844 
 537   0.0000       3.768573       102.5481 
 538   0.0000       3.772531       102.6558 
 539   0.0000       3.775839       102.7458 
 540   0.0000       3.784257       102.9749 
 541   0.0000       3.799845       103.3990 
 542   0.0000       3.804172       103.5168 
 543   0.0000       3.809048       103.6495 
 544   0.0000       3.819873       103.9440 
 545   0.0000       3.823709       104.0484 
 546   0.0000       3.831212       104.2526 
 547   0.0000       3.834052       104.3299 
 548   0.0000       3.841902       104.5435 
 549   0.0000       3.852588       104.8343 
 550   0.0000       3.856715       104.9465 
 551   0.0000       3.865177       105.1768 
 552   0.0000       3.878617       105.5425 
 553   0.0000       3.887203       105.7762 
 554   0.0000       3.896952       106.0414 
 555   0.0000       3.909185       106.3743 
 556   0.0000       3.915274       106.5400 
 557   0.0000       3.918482       106.6273 
 558   0.0000       3.925326       106.8136 
 559   0.0000       3.936000       107.1040 
 560   0.0000       3.949729       107.4776 
 561   0.0000       3.953493       107.5800 
 562   0.0000       3.960096       107.7597 
 563   0.0000       3.968459       107.9873 
 564   0.0000       3.978240       108.2534 
 565   0.0000       3.986663       108.4826 
 566   0.0000       3.993067       108.6569 
 567   0.0000       3.996148       108.7407 
 568   0.0000       4.003977       108.9537 
 569   0.0000       4.020641       109.4072 
 570   0.0000       4.025033       109.5267 
 571   0.0000       4.037585       109.8683 
 572   0.0000       4.044536       110.0574 
 573   0.0000       4.052655       110.2783 
 574   0.0000       4.058719       110.4434 
 575   0.0000       4.070622       110.7672 
 576   0.0000       4.080890       111.0467 
 577   0.0000       4.088167       111.2447 
 578   0.0000       4.100133       111.5703 
 579   0.0000       4.103126       111.6517 
 580   0.0000       4.117000       112.0293 
 581   0.0000       4.121960       112.1642 
 582   0.0000       4.131321       112.4190 
 583   0.0000       4.137330       112.5825 
 584   0.0000       4.143612       112.7534 
 585   0.0000       4.151598       112.9707 
 586   0.0000       4.162662       113.2718 
 587   0.0000       4.173379       113.5634 
 588   0.0000       4.179666       113.7345 
 589   0.0000       4.183100       113.8279 
 590   0.0000       4.184404       113.8634 
 591   0.0000       4.192448       114.0823 
 592   0.0000       4.197294       114.2142 
 593   0.0000       4.204053       114.3981 
 594   0.0000       4.207508       114.4921 
 595   0.0000       4.212232       114.6206 
 596   0.0000       4.220257       114.8390 
 597   0.0000       4.228958       115.0758 
 598   0.0000       4.235592       115.2563 
 599   0.0000       4.249843       115.6441 
 600   0.0000       4.255969       115.8108 
 601   0.0000       4.261298       115.9558 
 602   0.0000       4.271404       116.2308 
 603   0.0000       4.278246       116.4170 
 604   0.0000       4.287299       116.6633 
 605   0.0000       4.298127       116.9580 
 606   0.0000       4.303630       117.1077 
 607   0.0000       4.316195       117.4496 
 608   0.0000       4.323282       117.6425 
 609   0.0000       4.329534       117.8126 
 610   0.0000       4.341714       118.1440 
 611   0.0000       4.346937       118.2862 
 612   0.0000       4.351883       118.4208 
 613   0.0000       4.365240       118.7842 
 614   0.0000       4.369293       118.8945 
 615   0.0000       4.370403       118.9247 
 616   0.0000       4.382221       119.2463 
 617   0.0000       4.391431       119.4969 
 618   0.0000       4.395385       119.6045 
 619   0.0000       4.397788       119.6699 
 620   0.0000       4.412480       120.0697 
 621   0.0000       4.425312       120.4189 
 622   0.0000       4.437670       120.7552 
 623   0.0000       4.443409       120.9113 
 624   0.0000       4.447421       121.0205 
 625   0.0000       4.459800       121.3573 
 626   0.0000       4.471228       121.6683 
 627   0.0000       4.479725       121.8995 
 628   0.0000       4.486040       122.0714 
 629   0.0000       4.494636       122.3053 
 630   0.0000       4.501297       122.4865 
 631   0.0000       4.514978       122.8588 
 632   0.0000       4.518152       122.9452 
 633   0.0000       4.529366       123.2503 
 634   0.0000       4.540353       123.5493 
 635   0.0000       4.543775       123.6424 
 636   0.0000       4.556676       123.9935 
 637   0.0000       4.565404       124.2310 
 638   0.0000       4.571202       124.3887 
 639   0.0000       4.577225       124.5526 
 640   0.0000       4.581310       124.6638 
 641   0.0000       4.591052       124.9289 
 642   0.0000       4.596342       125.0728 
 643   0.0000       4.611301       125.4799 
 644   0.0000       4.621634       125.7611 
 645   0.0000       4.632056       126.0447 
 646   0.0000       4.634913       126.1224 
 647   0.0000       4.641346       126.2975 
 648   0.0000       4.646444       126.4362 
 649   0.0000       4.657413       126.7346 
 650   0.0000       4.660836       126.8278 
 651   0.0000       4.667622       127.0125 
 652   0.0000       4.678851       127.3180 
 653   0.0000       4.684637       127.4755 
 654   0.0000       4.693639       127.7204 
 655   0.0000       4.707534       128.0985 
 656   0.0000       4.722757       128.5128 
 657   0.0000       4.727580       128.6440 
 658   0.0000       4.737298       128.9084 
 659   0.0000       4.744881       129.1148 
 660   0.0000       4.756760       129.4380 
 661   0.0000       4.770534       129.8128 
 662   0.0000       4.791632       130.3869 
 663   0.0000       4.796737       130.5259 
 664   0.0000       4.812319       130.9498 
 665   0.0000       4.831175       131.4630 
 666   0.0000       4.847902       131.9181 
 667   0.0000       4.863291       132.3369 
 668   0.0000       4.870399       132.5303 
 669   0.0000       4.884840       132.9233 
 670   0.0000       4.909903       133.6052 
 671   0.0000       4.922275       133.9419 
 672   0.0000       4.932227       134.2127 
 673   0.0000       4.943894       134.5302 
 674   0.0000       4.967744       135.1792 
 675   0.0000       4.971394       135.2785 
 676   0.0000       5.014787       136.4593 
 677   0.0000       5.020860       136.6246 
 678   0.0000       5.027626       136.8087 
 679   0.0000       5.032739       136.9478 
 680   0.0000       5.052798       137.4936 
 681   0.0000       5.074779       138.0918 
 682   0.0000       5.086803       138.4189 
 683   0.0000       5.092119       138.5636 
 684   0.0000       5.108416       139.0071 
 685   0.0000       5.122121       139.3800 
 686   0.0000       5.130743       139.6146 
 687   0.0000       5.144041       139.9765 
 688   0.0000       5.154618       140.2643 
 689   0.0000       5.163950       140.5182 
 690   0.0000       5.170090       140.6853 
 691   0.0000       5.191506       141.2681 
 692   0.0000       5.195723       141.3828 
 693   0.0000       5.206298       141.6706 
 694   0.0000       5.210481       141.7844 
 695   0.0000       5.218904       142.0136 
 696   0.0000       5.229379       142.2986 
 697   0.0000       5.232257       142.3769 
 698   0.0000       5.237680       142.5245 
 699   0.0000       5.253083       142.9437 
 700   0.0000       5.261564       143.1744 
 701   0.0000       5.272323       143.4672 
 702   0.0000       5.293326       144.0387 
 703   0.0000       5.321471       144.8046 
 704   0.0000       5.324451       144.8857 
 705   0.0000       5.337405       145.2382 
 706   0.0000       5.342953       145.3891 
 707   0.0000       5.361879       145.9041 
 708   0.0000       5.371765       146.1731 
 709   0.0000       5.382592       146.4678 
 710   0.0000       5.401087       146.9711 
 711   0.0000       5.416495       147.3903 
 712   0.0000       5.432294       147.8202 
 713   0.0000       5.461301       148.6096 
 714   0.0000       5.468433       148.8036 
 715   0.0000       5.482710       149.1921 
 716   0.0000       5.492995       149.4720 
 717   0.0000       5.507797       149.8748 
 718   0.0000       5.517103       150.1280 
 719   0.0000       5.525673       150.3612 
 720   0.0000       5.536969       150.6686 
 721   0.0000       5.549759       151.0166 
 722   0.0000       5.554997       151.1591 
 723   0.0000       5.571865       151.6181 
 724   0.0000       5.586049       152.0041 
 725   0.0000       5.601672       152.4292 
 726   0.0000       5.610675       152.6742 
 727   0.0000       5.631853       153.2505 
 728   0.0000       5.636712       153.3827 
 729   0.0000       5.643736       153.5739 
 730   0.0000       5.654988       153.8801 
 731   0.0000       5.661345       154.0530 
 732   0.0000       5.684241       154.6761 
 733   0.0000       5.702056       155.1608 
 734   0.0000       5.705813       155.2631 
 735   0.0000       5.713622       155.4756 
 736   0.0000       5.730370       155.9313 
 737   0.0000       5.732351       155.9852 
 738   0.0000       5.743875       156.2988 
 739   0.0000       5.758408       156.6942 
 740   0.0000       5.773311       157.0998 
 741   0.0000       5.775483       157.1589 
 742   0.0000       5.793229       157.6418 
 743   0.0000       5.797759       157.7651 
 744   0.0000       5.823915       158.4768 
 745   0.0000       5.841605       158.9581 
 746   0.0000       5.854663       159.3135 
 747   0.0000       5.869144       159.7075 
 748   0.0000       5.923177       161.1778 
 749   0.0000       5.942132       161.6936 
 750   0.0000       5.961102       162.2098 
 751   0.0000       5.976565       162.6306 
 752   0.0000       5.985904       162.8847 
 753   0.0000       5.998685       163.2325 
 754   0.0000       6.013824       163.6445 
 755   0.0000       6.022703       163.8861 
 756   0.0000       6.058602       164.8630 
 757   0.0000       6.060551       164.9160 
 758   0.0000       6.082528       165.5140 
 759   0.0000       6.095325       165.8622 
 760   0.0000       6.100181       165.9944 
 761   0.0000       6.179521       168.1533 
 762   0.0000       6.222225       169.3154 
 763   0.0000       6.228873       169.4962 
 764   0.0000       6.264680       170.4706 
 765   0.0000       6.292562       171.2293 
 766   0.0000       6.316262       171.8742 
 767   0.0000       6.329201       172.2263 
 768   0.0000       6.349748       172.7854 
 769   0.0000       6.368648       173.2997 
 770   0.0000       6.371468       173.3765 
 771   0.0000       6.386340       173.7811 
 772   0.0000       6.408330       174.3795 
 773   0.0000       6.447742       175.4520 
 774   0.0000       6.458885       175.7552 
 775   0.0000       6.466424       175.9603 
 776   0.0000       6.502570       176.9439 
 777   0.0000       6.559105       178.4823 
 778   0.0000       6.594231       179.4381 
 779   0.0000       6.594945       179.4576 
 780   0.0000       6.651320       180.9916 
 781   0.0000       6.679973       181.7713 
 782   0.0000       6.713762       182.6907 
 783   0.0000       6.758240       183.9011 
 784   0.0000       6.804236       185.1527 
 785   0.0000       6.891431       187.5254 
 786   0.0000       6.914511       188.1534 
 787   0.0000       6.925620       188.4557 
 788   0.0000       6.991476       190.2477 
 789   0.0000       7.002587       190.5501 
 790   0.0000       7.058059       192.0595 
 791   0.0000       7.065094       192.2510 
 792   0.0000       7.085255       192.7996 
 793   0.0000       7.137292       194.2156 
 794   0.0000       7.239326       196.9921 
 795   0.0000       7.254879       197.4153 
 796   0.0000       7.262649       197.6267 
 797   0.0000       7.284688       198.2264 
 798   0.0000       7.348400       199.9601 
 799   0.0000       7.385963       200.9823 
 800   0.0000       7.397999       201.3098 
 801   0.0000       7.554340       205.5640 
 802   0.0000       7.588755       206.5005 
 803   0.0000       7.610127       207.0821 
 804   0.0000       7.659494       208.4254 
 805   0.0000       7.823708       212.8939 
 806   0.0000       7.834873       213.1977 
 807   0.0000       7.916147       215.4093 
 808   0.0000       7.936856       215.9728 
 809   0.0000       9.459427       257.4041 
 810   0.0000       9.607899       261.4442 
 811   0.0000      10.841608       295.0152 
 812   0.0000      11.387359       309.8658 
 813   0.0000      11.847459       322.3858 
 814   0.0000      12.599091       342.8387 
 815   0.0000      12.922319       351.6342 
 816   0.0000      12.949070       352.3621 
 817   0.0000      13.114076       356.8521 
 818   0.0000      13.216410       359.6368 
 819   0.0000      13.407925       364.8482 
 820   0.0000      13.484061       366.9200 
 821   0.0000      13.844168       376.7190 
 822   0.0000      13.967243       380.0680 
 823   0.0000      13.993273       380.7763 
 824   0.0000      14.114033       384.0624 
 825   0.0000      14.564350       396.3161 
 826   0.0000      14.703430       400.1007 
 827   0.0000      15.996205       435.2789 

                    ********************************
                    * MULLIKEN POPULATION ANALYSIS *
                    ********************************

-----------------------
MULLIKEN ATOMIC CHARGES
-----------------------
   0 C :   -0.333793
   1 C :    0.048399
   2 O :   -0.376333
   3 C :    0.450045
   4 O :   -0.416026
   5 C :   -0.181815
   6 C :    0.144213
   7 C :   -0.281548
   8 N :   -0.123819
   9 C :    0.203022
  10 S :   -0.439050
  11 N :   -0.200072
  12 C :    0.050391
  13 C :    0.047501
  14 C :   -0.163865
  15 C :   -0.133760
  16 C :   -0.278374
  17 C :    0.318489
  18 O :   -0.361100
  19 C :   -0.283648
  20 H :    0.131385
  21 H :    0.108178
  22 H :    0.102212
  23 H :    0.106059
  24 H :    0.106750
  25 H :    0.123727
  26 H :    0.127449
  27 H :    0.102949
  28 H :    0.197195
  29 H :    0.194024
  30 H :    0.153610
  31 H :    0.155694
  32 H :    0.161050
  33 H :    0.130343
  34 H :    0.240791
  35 H :    0.169731
Sum of atomic charges:    0.0000000

--------------------------------
MULLIKEN REDUCED ORBITAL CHARGES
--------------------------------
  0 C s       :     3.272226  s :     3.272226
      pz      :     0.924808  p :     2.983894
      px      :     1.032325
      py      :     1.026761
      dz2     :     0.017002  d :     0.073258
      dxz     :     0.014959
      dyz     :     0.018584
      dx2y2   :     0.005636
      dxy     :     0.017076
      f0      :     0.001037  f :     0.004415
      f+1     :     0.000782
      f-1     :     0.000789
      f+2     :     0.000189
      f-2     :     0.000637
      f+3     :     0.000240
      f-3     :     0.000741
  1 C s       :     3.163620  s :     3.163620
      pz      :     0.967227  p :     2.624133
      px      :     0.845907
      py      :     0.810999
      dz2     :     0.021908  d :     0.152327
      dxz     :     0.031609
      dyz     :     0.034051
      dx2y2   :     0.027803
      dxy     :     0.036956
      f0      :     0.002130  f :     0.011521
      f+1     :     0.001126
      f-1     :     0.001242
      f+2     :     0.000236
      f-2     :     0.002248
      f+3     :     0.002232
      f-3     :     0.002307
  2 O s       :     3.726262  s :     3.726262
      pz      :     1.686784  p :     4.615774
      px      :     1.317824
      py      :     1.611167
      dz2     :     0.004001  d :     0.032005
      dxz     :     0.008830
      dyz     :     0.003761
      dx2y2   :     0.008241
      dxy     :     0.007172
      f0      :     0.000241  f :     0.002291
      f+1     :     0.000415
      f-1     :     0.000140
      f+2     :     0.000434
      f-2     :     0.000254
[...]
 15 C s       :     2.705504  s :     2.705504
      pz      :     0.885607  p :     2.796658
      px      :     0.947086
      py      :     0.963965
      dz2     :     0.082699  d :     0.416044
      dxz     :     0.072729
      dyz     :     0.051531
      dx2y2   :     0.112540
      dxy     :     0.096545
      f0      :     0.002936  f :     0.041039
      f+1     :     0.005004
      f-1     :     0.005426
      f+2     :     0.007105
      f-2     :     0.006025
      f+3     :     0.007618
      f-3     :     0.006925
 16 C s       :     2.701618  s :     2.701618
      pz      :     0.931574  p :     2.868797
      px      :     0.967392
      py      :     0.969832
      dz2     :     0.038189  d :     0.391278
      dxz     :     0.060335
      dyz     :     0.079533
      dx2y2   :     0.098307
      dxy     :     0.114913
      f0      :     0.003908  f :     0.040370
      f+1     :     0.004581
      f-1     :     0.003530
      f+2     :     0.006034
      f-2     :     0.005039
      f+3     :     0.008939
      f-3     :     0.008338
 17 C s       :     2.701191  s :     2.701191
      pz      :     0.847303  p :     2.683800
      px      :     0.821466
      py      :     1.015031
      dz2     :     0.114728  d :     0.708514
      dxz     :     0.114704
      dyz     :     0.125975
      dx2y2   :     0.175599
      dxy     :     0.177508
      f0      :     0.008012  f :     0.099324
      f+1     :     0.016075
      f-1     :     0.008094
      f+2     :     0.015679
      f-2     :     0.013718
      f+3     :     0.017965
      f-3     :     0.019781
 18 O s       :     3.177113  s :     3.177113
      pz      :     1.464171  p :     4.348421
      px      :     1.385037
      py      :     1.499213
      dz2     :     0.007259  d :     0.075587
      dxz     :     0.017170
      dyz     :     0.015835
      dx2y2   :     0.017695
      dxy     :     0.017629
      f0      :     0.000559  f :     0.005077
      f+1     :     0.000751
      f-1     :     0.000327
      f+2     :     0.000661
      f-2     :     0.000889
      f+3     :     0.000844
      f-3     :     0.001046
 19 C s       :     2.694974  s :     2.694974
      pz      :     0.924180  p :     2.844639
      px      :     0.958814
      py      :     0.961646
      dz2     :     0.067509  d :     0.388663
      dxz     :     0.069228
      dyz     :     0.053588
      dx2y2   :     0.099006
      dxy     :     0.099332
      f0      :     0.003088  f :     0.040881
      f+1     :     0.005019
      f-1     :     0.004978
      f+2     :     0.007141
      f-2     :     0.006541
      f+3     :     0.007597
      f-3     :     0.006517
 20 H s       :     0.839506  s :     0.839506
      pz      :     0.046866  p :     0.155315
      px      :     0.062381
      py      :     0.046067
      dz2     :     0.005137  d :     0.027652
      dxz     :     0.006188
      dyz     :     0.003493
      dx2y2   :     0.006351
      dxy     :     0.006484
 21 H s       :     0.846008  s :     0.846008
      pz      :     0.038827  p :     0.152248
      px      :     0.059541
      py      :     0.053880
      dz2     :     0.002325  d :     0.027532
      dxz     :     0.005164
      dyz     :     0.003784
      dx2y2   :     0.009405
      dxy     :     0.006854
 22 H s       :     0.849259  s :     0.849259
      pz      :     0.049130  p :     0.152727
      px      :     0.042651
      py      :     0.060946
      dz2     :     0.005745  d :     0.027711
      dxz     :     0.002808
      dyz     :     0.006887
      dx2y2   :     0.005261
      dxy     :     0.007009
 23 H s       :     0.854459  s :     0.854459
      pz      :     0.048777  p :     0.146628
      px      :     0.036492
      py      :     0.061359
      dz2     :     0.005498  d :     0.026999
      dxz     :     0.002512
      dyz     :     0.007208
      dx2y2   :     0.005361
      dxy     :     0.006420
 24 H s       :     0.854795  s :     0.854795
      pz      :     0.051306  p :     0.143602
      px      :     0.060659
      py      :     0.031637
      dz2     :     0.005968  d :     0.026786
      dxz     :     0.007605
      dyz     :     0.002007
      dx2y2   :     0.005173
      dxy     :     0.006033
 25 H s       :     0.830833  s :     0.830833
      pz      :     0.038249  p :     0.151748
      px      :     0.069590
      py      :     0.043909
      dz2     :     0.002361  d :     0.027743
      dxz     :     0.008307
      dyz     :     0.000755
      dx2y2   :     0.008590
      dxy     :     0.007731
 26 H s       :     0.829375  s :     0.829375
      pz      :     0.064403  p :     0.150288
      px      :     0.043900
      py      :     0.041986
      dz2     :     0.008955  d :     0.027705
      dxz     :     0.007304
      dyz     :     0.006736
      dx2y2   :     0.002951
      dxy     :     0.001760
 27 H s       :     0.842713  s :     0.842713
      pz      :     0.036861  p :     0.150015
      px      :     0.039924
      py      :     0.073230
      dz2     :     0.002320  d :     0.027697
      dxz     :     0.000135
      dyz     :     0.009051
      dx2y2   :     0.006791
      dxy     :     0.009399
 28 H s       :     0.742891  s :     0.742891
      pz      :     0.057430  p :     0.254064
      px      :     0.083515
      py      :     0.113119
      dz2     :     0.005935  d :     0.061860
      dxz     :     0.002975
      dyz     :     0.016048
      dx2y2   :     0.018052
      dxy     :     0.018851
 29 H s       :     0.748532  s :     0.748532
      pz      :     0.112635  p :     0.253967
      px      :     0.097672
      py      :     0.043660
      dz2     :     0.021073  d :     0.061334
      dxz     :     0.015846
      dyz     :     0.010412
      dx2y2   :     0.008335
      dxy     :     0.005668
 30 H s       :     0.828054  s :     0.828054
      pz      :     0.040271  p :     0.148298
      px      :     0.066412
      py      :     0.041616
      dz2     :     0.003106  d :     0.028340
      dxz     :     0.007500
      dyz     :     0.002900
      dx2y2   :     0.007316
      dxy     :     0.007518
 31 H s       :     0.841510  s :     0.841510
      pz      :     0.051567  p :     0.155963
      px      :     0.067767
      py      :     0.036630
      dz2     :     0.004698  d :     0.027464
      dxz     :     0.007022
      dyz     :     0.002826
      dx2y2   :     0.006318
      dxy     :     0.006601
 32 H s       :     0.842883  s :     0.842883
      pz      :     0.037822  p :     0.151267
      px      :     0.039630
      py      :     0.073816
      dz2     :     0.002658  d :     0.026469
      dxz     :     0.000946
      dyz     :     0.007007
      dx2y2   :     0.007851
      dxy     :     0.008007
 33 H s       :     0.848956  s :     0.848956
      pz      :     0.057377  p :     0.159063
      px      :     0.048615
      py      :     0.053071
      dz2     :     0.005753  d :     0.027763
      dxz     :     0.004682
      dyz     :     0.005828
      dx2y2   :     0.006028
      dxy     :     0.005472
 34 H s       :     0.706705  s :     0.706705
      pz      :     0.116080  p :     0.347893
      px      :     0.083272
      py      :     0.148541
      dz2     :     0.023188  d :     0.099586
      dxz     :     0.011346
      dyz     :     0.024208
      dx2y2   :     0.021052
      dxy     :     0.019794
 35 H s       :     0.839859  s :     0.839859
      pz      :     0.041492  p :     0.157207
      px      :     0.041073
      py      :     0.074642
      dz2     :     0.002699  d :     0.028069
      dxz     :     0.001143
      dyz     :     0.007765
      dx2y2   :     0.008130
      dxy     :     0.008331


                      *****************************
                      * MAYER POPULATION ANALYSIS *
                      *****************************

  NA   - Mulliken gross atomic population
  ZA   - Total nuclear charge
  QA   - Mulliken gross atomic charge
  VA   - Mayer's total valence
  BVA  - Mayer's bonded valence
  FA   - Mayer's free valence

  ATOM       NA         ZA         QA         VA         BVA        FA
  0 C      6.3338     6.0000    -0.3338     3.8641     3.8641     0.0000
  1 C      5.9516     6.0000     0.0484     3.8624     3.8624    -0.0000
  2 O      8.3763     8.0000    -0.3763     2.0058     2.0058     0.0000
  3 C      5.5500     6.0000     0.4500     4.2056     4.2056    -0.0000
  4 O      8.4160     8.0000    -0.4160     2.0958     2.0958    -0.0000
  5 C      6.1818     6.0000    -0.1818     3.6304     3.6304     0.0000
  6 C      5.8558     6.0000     0.1442     3.8326     3.8326     0.0000
  7 C      6.2815     6.0000    -0.2815     3.8971     3.8971    -0.0000
  8 N      7.1238     7.0000    -0.1238     3.2909     3.2909    -0.0000
  9 C      5.7970     6.0000     0.2030     4.1550     4.1550     0.0000
 10 S     16.4390    16.0000    -0.4390     1.7566     1.7566    -0.0000
 11 N      7.2001     7.0000    -0.2001     3.2604     3.2604    -0.0000
 12 C      5.9496     6.0000     0.0504     3.9633     3.9633     0.0000
 13 C      5.9525     6.0000     0.0475     3.7335     3.7335     0.0000
 14 C      6.1639     6.0000    -0.1639     3.8566     3.8566     0.0000
 15 C      6.1338     6.0000    -0.1338     3.8057     3.8057    -0.0000
 16 C      6.2784     6.0000    -0.2784     3.7922     3.7922     0.0000
 17 C      5.6815     6.0000     0.3185     3.8676     3.8676     0.0000
 18 O      8.3611     8.0000    -0.3611     2.1133     2.1133     0.0000
 19 C      6.2836     6.0000    -0.2836     3.8321     3.8321    -0.0000
 20 H      0.8686     1.0000     0.1314     0.9781     0.9781     0.0000
 21 H      0.8918     1.0000     0.1082     0.9830     0.9830     0.0000
 22 H      0.8978     1.0000     0.1022     0.9796     0.9796     0.0000
 23 H      0.8939     1.0000     0.1061     0.9813     0.9813    -0.0000
 24 H      0.8933     1.0000     0.1067     0.9759     0.9759    -0.0000
 25 H      0.8763     1.0000     0.1237     0.9783     0.9783    -0.0000
 26 H      0.8726     1.0000     0.1274     0.9824     0.9824    -0.0000
 27 H      0.8971     1.0000     0.1029     0.9862     0.9862     0.0000
 28 H      0.8028     1.0000     0.1972     1.0229     1.0229     0.0000
 29 H      0.8060     1.0000     0.1940     1.0184     1.0184    -0.0000
 30 H      0.8464     1.0000     0.1536     0.9964     0.9964    -0.0000
 31 H      0.8443     1.0000     0.1557     0.9882     0.9882     0.0000
 32 H      0.8389     1.0000     0.1611     0.9771     0.9771    -0.0000
 33 H      0.8697     1.0000     0.1303     0.9914     0.9914     0.0000
 34 H      0.7592     1.0000     0.2408     1.0109     1.0109     0.0000
 35 H      0.8303     1.0000     0.1697     0.9858     0.9858    -0.0000

  Mayer bond orders larger than 0.100000
B(  0-C ,  1-C ) :   0.9590 B(  0-C , 20-H ) :   0.9668 B(  0-C , 21-H ) :   0.9766 
B(  0-C , 22-H ) :   0.9729 B(  1-C ,  2-O ) :   0.8954 B(  1-C , 23-H ) :   0.9838 
B(  1-C , 24-H ) :   0.9836 B(  2-O ,  3-C ) :   1.0998 B(  3-C ,  4-O ) :   2.0084 
B(  3-C ,  5-C ) :   1.0416 B(  5-C ,  6-C ) :   1.6556 B(  5-C , 12-C ) :   0.9661 
B(  6-C ,  7-C ) :   0.9541 B(  6-C ,  8-N ) :   1.1436 B(  7-C , 25-H ) :   0.9636 
B(  7-C , 26-H ) :   0.9674 B(  7-C , 27-H ) :   0.9899 B(  8-N ,  9-C ) :   1.1816 
B(  8-N , 28-H ) :   0.9492 B(  9-C , 10-S ) :   1.6111 B(  9-C , 11-N ) :   1.3023 
B( 11-N , 12-C ) :   0.9916 B( 11-N , 29-H ) :   0.9519 B( 12-C , 13-C ) :   0.9438 
B( 12-C , 30-H ) :   0.9990 B( 13-C , 14-C ) :   1.3781 B( 13-C , 19-C ) :   1.3608 
B( 14-C , 15-C ) :   1.3925 B( 14-C , 31-H ) :   0.9646 B( 15-C , 16-C ) :   1.3620 
B( 15-C , 32-H ) :   0.9712 B( 16-C , 17-C ) :   1.3325 B( 16-C , 33-H ) :   0.9850 
B( 17-C , 18-O ) :   1.1074 B( 17-C , 19-C ) :   1.3709 B( 18-O , 34-H ) :   0.9803 
B( 19-C , 35-H ) :   0.9583 

-------
TIMINGS
-------

Total SCF time: 0 days 1 hours 36 min 15 sec 

Total time                  ....    5775.514 sec
Sum of individual times     ....    5766.070 sec  ( 99.8%)

Fock matrix formation       ....    5742.052 sec  ( 99.4%)
Diagonalization             ....       1.512 sec  (  0.0%)
Density matrix formation    ....       0.236 sec  (  0.0%)
Population analysis         ....       0.462 sec  (  0.0%)
Initial guess               ....       7.127 sec  (  0.1%)
Orbital Transformation      ....       0.000 sec  (  0.0%)
Orbital Orthonormalization  ....       0.000 sec  (  0.0%)
DIIS solution               ....       8.370 sec  (  0.1%)
SOSCF solution              ....       4.279 sec  (  0.1%)

Maximum memory used throughout the entire SCF-calculation: 754.8 MB

------------------------------------------------------------------------------
                                ORCA  MP2 
------------------------------------------------------------------------------

Freezing NCore=48 chemical core electrons

-------------
RI-MP2 ENERGY
-------------
Dimension of the basis                    ...  828
Memory devoted to MP2                     ...  256 MB   
Data format for buffers                   ... DOUBLE
Compression type for matrix containers    ... UNCOMPRESSED
Overall scaling of the MP2 energy         ...   1.000e+00
Calculating two index integrals           ... done (    0.034 sec)
Cholesky decomposition of V**-1           ... done (    0.458 sec)

-----------------
RI-TRANSFORMATION (AUX index driven)
-----------------

Dimension of the orbital-basis         ... 828
Dimension of the aux-basis             ... 2141
Transformation of internal/external MOs...   24-  76 to   77- 827
Number Format for Storage              ... Double (8 Byte)
Integral mode                          ... Direct

First Phase: integral generation and transformation of MO indices
  Aux angular momentum 0               ... done (    4.946 sec)
  Aux angular momentum 1               ... done (    6.433 sec)
  Aux angular momentum 2               ... done (    7.615 sec)
  Aux angular momentum 3               ... done (    6.171 sec)
  Aux angular momentum 4               ... done (    2.473 sec)
Closing buffer VIA ( 0.63 GB; CompressionRatio= 1.00)
  Phase 1 completed in    27.898 sec
Second Phase: sorting and transformation of aux index

IA-Transformation
Memory available                       ... 156 MB 
Max. # MO pairs treated in a batch     ... 11    
# of internal orbitals                 ... 53
# batches for internal orbitals        ... 5
Closing buffer IAV ( 0.63 GB; CompressionRatio= 1.00)
(ia|v) transformation done in    31.455 sec

  Phase 2 completed in    31.588 sec
RI-Integral transformation completed in    59.493 sec
Opening buffers                              ... done

Starting loop over batches of integrals:

Operator 0  - window                       ... ( 24- 76)x( 77-827)
Operator 0  - Memory available             ...   256 MB
Operator 0  - Memory needed per MO         ...  12.3 MB
Operator 0  - Number of orbitals per batch ... 13
Operator 0  - Number of batches            ... 5

OPERATOR  0   PASS   0:  MOs    24 ...   36
  Reading integrals       ... ok
  Internal MO  26
  Internal MO  29
  Internal MO  32
  Internal MO  35
OPERATOR  0   PASS   1:  MOs    37 ...   49
  Reading integrals       ... ok
  Internal MO  38
  Internal MO  41
  Internal MO  44
  Internal MO  47
OPERATOR  0   PASS   2:  MOs    50 ...   62
  Reading integrals       ... ok
  Internal MO  50
  Internal MO  53
  Internal MO  56
  Internal MO  59
  Internal MO  62
OPERATOR  0   PASS   3:  MOs    63 ...   75
  Reading integrals       ... ok
  Internal MO  65
  Internal MO  68
  Internal MO  71
  Internal MO  74
OPERATOR  0   PASS   4:  MOs    76 ...   76
  Reading integrals       ... ok
Time spent in pair loops =   146.761 sec
Deleting buffer (Ka|jb)[aa] ...done

-----------------------------------------------
 RI-MP2 CORRELATION ENERGY:     -3.536037613 Eh
-----------------------------------------------


-------
TIMINGS
-------

Total time                :  207.000 sec
Integral trafo            :   59.519 sec ( 28.8%)
I/O of integrals          :    4.132 sec (  2.0%)
K(i,j) Operators          :   84.341 sec ( 40.7%)
T(i,j) pair energies      :    3.235 sec (  1.6%)
V-calculation             :    0.034 sec (  0.0%)
V**(-1/2)                 :    0.458 sec (  0.2%)
Gamma(ia|P)               :    0.000 sec (  0.0%)
Gamma-Trafo               :    0.000 sec (  0.0%)
D(virtual)                :    0.000 sec (  0.0%)
D(internal)               :    0.000 sec (  0.0%)
W(virtual)                :    0.000 sec (  0.0%)
W(internal)               :    0.000 sec (  0.0%)
L(virtual)                :    0.000 sec (  0.0%)
L(internal)               :    0.000 sec (  0.0%)
G(D)                      :    0.000 sec (  0.0%)
G(Z)                      :    0.000 sec (  0.0%)
Z-Vector Solution         :    0.000 sec (  0.0%)
3-Index Derivative        :    0.000 sec (  0.0%)
2-Index Derivative        :    0.000 sec (  0.0%)
Separable Gradient        :    0.000 sec (  0.0%)


---------------------------------------
MP2 TOTAL ENERGY:    -1274.337331295 Eh
---------------------------------------

Maximum memory used throughout the entire MP2-calculation: 305.6 MB

-------------------------   --------------------
FINAL SINGLE POINT ENERGY     -1274.337331294888
-------------------------   --------------------


                            ***************************************
                            *     ORCA property calculations      *
                            ***************************************


  WARNING: The energy has been calculated at the MP2 level but the densities
           used in the property calculations are still SCF densities
           MP2 response densities have not been calculated 
           use %mp2 Density relaxed end
           or  %mp2 Density unrelaxed end

                                    ---------------------
                                    Active property flags
                                    ---------------------
   (+) Dipole Moment


------------------------------------------------------------------------------
                       ORCA ELECTRIC PROPERTIES CALCULATION
------------------------------------------------------------------------------

Dipole Moment Calculation                       ... on
Quadrupole Moment Calculation                   ... off
Polarizability Calculation                      ... off
GBWName                                         ... CONFS/Conf595.orca.gbw
Electron density file                           ... CONFS/Conf595.orca.scfp
The origin for moment calculation is the CENTER OF MASS  = (32.811386, 31.475590 35.270451)

-------------
DIPOLE MOMENT
-------------
                                X             Y             Z
Electronic contribution:      9.78026       9.25426       6.53850
Nuclear contribution   :    -11.18837     -10.50201      -7.34024
                        -----------------------------------------
Total Dipole Moment    :     -1.40811      -1.24775      -0.80174
                        -----------------------------------------
Magnitude (a.u.)       :      2.04510
Magnitude (Debye)      :      5.19823



--------------------
Rotational spectrum 
--------------------
 
Rotational constants in cm-1:     0.011892     0.009400     0.006629 
Rotational constants in MHz :   356.503638   281.802024   198.725070 

 Dipole components along the rotational axes: 
x,y,z [a.u.] :    -1.721193     0.768012     0.793782 
x,y,z [Debye]:    -4.374924     1.952131     2.017634 

 

Timings for individual modules:

Sum of individual times         ...     5987.799 sec (=  99.797 min)
GTO integral calculation        ...        4.445 sec (=   0.074 min)   0.1 %
SCF iterations                  ...     5775.716 sec (=  96.262 min)  96.5 %
MP2 module                      ...      207.638 sec (=   3.461 min)   3.5 %
                             ****ORCA TERMINATED NORMALLY****
TOTAL RUN TIME: 0 days 1 hours 39 minutes 49 seconds 181 msec
