
                                        *****************
                                        * O   R   C   A *
                                        *****************

                                            #,                                       
                                            ###                                      
                                            ####                                     
                                            #####                                    
                                            ######                                   
                                           ########,                                 
                                     ,,################,,,,,                         
                               ,,#################################,,                 
                          ,,##########################################,,             
                       ,#########################################, ''#####,          
                    ,#############################################,,   '####,        
                  ,##################################################,,,,####,       
                ,###########''''           ''''###############################       
              ,#####''   ,,,,##########,,,,          '''####'''          '####       
            ,##' ,,,,###########################,,,                        '##       
           ' ,,###''''                  '''############,,,                           
         ,,##''                                '''############,,,,        ,,,,,,###''
      ,#''                                            '''#######################'''  
     '                                                          ''''####''''         
             ,#######,   #######,   ,#######,      ##                                
            ,#'     '#,  ##    ##  ,#'     '#,    #''#        ######   ,####,        
            ##       ##  ##   ,#'  ##            #'  '#       #        #'  '#        
            ##       ##  #######   ##           ,######,      #####,   #    #        
            '#,     ,#'  ##    ##  '#,     ,#' ,#      #,         ##   #,  ,#        
             '#######'   ##     ##  '#######'  #'      '#     #####' # '####'        



                  #######################################################
                  #                        -***-                        #
                  #          Department of theory and spectroscopy      #
                  #    Directorship and core code : Frank Neese         #
                  #        Max Planck Institute fuer Kohlenforschung    #
                  #                Kaiser Wilhelm Platz 1               #
                  #                 D-45470 Muelheim/Ruhr               #
                  #                      Germany                        #
                  #                                                     #
                  #                  All rights reserved                #
                  #                        -***-                        #
                  #######################################################


                         Program Version 5.0.0 -  RELEASE  -
                                (SVN: $Rev: 19529$)
                ($Date: 2021-06-28 11:36:33 +0200 (Mo, 28 Jun 2021) $)


 With contributions from (in alphabetic order):
   Daniel Aravena         : Magnetic Suceptibility
   Michael Atanasov       : Ab Initio Ligand Field Theory (pilot matlab implementation)
   Alexander A. Auer      : GIAO ZORA, VPT2 properties, NMR spectrum
   Ute Becker             : Parallelization
   Giovanni Bistoni       : ED, misc. LED, open-shell LED, HFLD
   Martin Brehm           : Molecular dynamics
   Dmytro Bykov           : SCF Hessian
   Vijay G. Chilkuri      : MRCI spin determinant printing, contributions to CSF-ICE
   Dipayan Datta          : RHF DLPNO-CCSD density
   Achintya Kumar Dutta   : EOM-CC, STEOM-CC
   Dmitry Ganyushin       : Spin-Orbit,Spin-Spin,Magnetic field MRCI
   Miquel Garcia          : C-PCM Hessian, Gaussian charge scheme
   Yang Guo               : DLPNO-NEVPT2, F12-NEVPT2, CIM, IAO-localization
   Andreas Hansen         : Spin unrestricted coupled pair/coupled cluster methods
   Benjamin Helmich-Paris : MC-RPA, TRAH-SCF, COSX integrals
   Lee Huntington         : MR-EOM, pCC
   Robert Izsak           : Overlap fitted RIJCOSX, COSX-SCS-MP3, EOM
   Marcus Kettner         : VPT2
   Christian Kollmar      : KDIIS, OOCD, Brueckner-CCSD(T), CCSD density, CASPT2, CASPT2-K
   Simone Kossmann        : Meta GGA functionals, TD-DFT gradient, OOMP2, MP2 Hessian
   Martin Krupicka        : Initial AUTO-CI
   Lucas Lang             : DCDCAS
   Marvin Lechner         : AUTO-CI (C++ implementation), FIC-MRCC
   Dagmar Lenk            : GEPOL surface, SMD
   Dimitrios Liakos       : Extrapolation schemes; Compound Job, initial MDCI parallelization
   Dimitrios Manganas     : Further ROCIS development; embedding schemes
   Dimitrios Pantazis     : SARC Basis sets
   Anastasios Papadopoulos: AUTO-CI, single reference methods and gradients
   Taras Petrenko         : DFT Hessian,TD-DFT gradient, ASA, ECA, R-Raman, ABS, FL, XAS/XES, NRVS
   Peter Pinski           : DLPNO-MP2, DLPNO-MP2 Gradient
   Christoph Reimann      : Effective Core Potentials
   Marius Retegan         : Local ZFS, SOC
   Christoph Riplinger    : Optimizer, TS searches, QM/MM, DLPNO-CCSD(T), (RO)-DLPNO pert. Triples
   Tobias Risthaus        : Range-separated hybrids, TD-DFT gradient, RPA, STAB
   Michael Roemelt        : Original ROCIS implementation
   Masaaki Saitow         : Open-shell DLPNO-CCSD energy and density
   Barbara Sandhoefer     : DKH picture change effects
   Avijit Sen             : IP-ROCIS
   Kantharuban Sivalingam : CASSCF convergence, NEVPT2, FIC-MRCI
   Bernardo de Souza      : ESD, SOC TD-DFT
   Georgi Stoychev        : AutoAux, RI-MP2 NMR
   Willem Van den Heuvel  : Paramagnetic NMR
   Boris Wezisla          : Elementary symmetry handling
   Frank Wennmohs         : Technical directorship


 We gratefully acknowledge several colleagues who have allowed us to
 interface, adapt or use parts of their codes:
   Stefan Grimme, W. Hujo, H. Kruse, P. Pracht,  : VdW corrections, initial TS optimization,
                  C. Bannwarth, S. Ehlert          DFT functionals, gCP, sTDA/sTD-DF
   Ed Valeev, F. Pavosevic, A. Kumar             : LibInt (2-el integral package), F12 methods
   Garnet Chan, S. Sharma, J. Yang, R. Olivares  : DMRG
   Ulf Ekstrom                                   : XCFun DFT Library
   Mihaly Kallay                                 : mrcc  (arbitrary order and MRCC methods)
   Jiri Pittner, Ondrej Demel                    : Mk-CCSD
   Frank Weinhold                                : gennbo (NPA and NBO analysis)
   Christopher J. Cramer and Donald G. Truhlar   : smd solvation model
   Lars Goerigk                                  : TD-DFT with DH, B97 family of functionals
   V. Asgeirsson, H. Jonsson                     : NEB implementation
   FAccTs GmbH                                   : IRC, NEB, NEB-TS, DLPNO-Multilevel, CI-OPT
                                                   MM, QMMM, 2- and 3-layer-ONIOM, Crystal-QMMM,
                                                   LR-CPCM, SF, NACMEs, symmetry and pop. for TD-DFT,
                                                   nearIR, NL-DFT gradient (VV10), updates on ESD,
                                                   ML-optimized integration grids
   S Lehtola, MJT Oliveira, MAL Marques          : LibXC Library
   Liviu Ungur et al                             : ANISO software


 Your calculation uses the libint2 library for the computation of 2-el integrals
 For citations please refer to: http://libint.valeyev.net

 Your ORCA version has been built with support for libXC version: 5.1.0
 For citations please refer to: https://tddft.org/programs/libxc/

 This ORCA versions uses:
   CBLAS   interface :  Fast vector & matrix operations
   LAPACKE interface :  Fast linear algebra routines
   SCALAPACK package :  Parallel linear algebra routines
   Shared memory     :  Shared parallel matrices
   BLAS/LAPACK       :  OpenBLAS 0.3.15  USE64BITINT DYNAMIC_ARCH NO_AFFINITY Zen SINGLE_THREADED
        Core in use  :  Zen
   Copyright (c) 2011-2014, The OpenBLAS Project


================================================================================

----- Orbital basis set information -----
Your calculation utilizes the basis: cc-pVTZ 
       H, B-Ne : Obtained from the ccRepo (grant-hill.group.shef.ac.uk/ccrepo) Feb. 2017
                 T. H. Dunning, Jr., J. Chem. Phys. 90, 1007 (1989)
            He : Obtained from the ccRepo (grant-hill.group.shef.ac.uk/ccrepo) Feb. 2017
                 D. E. Woon, T. H. Dunning, Jr., J. Chem. Phys. 100, 2975 (1994)
  Li-Be, Na-Mg : Obtained from the ccRepo (grant-hill.group.shef.ac.uk/ccrepo) Feb. 2017
                 B. P. Prascher, D. E. Woon, K. A. Peterson, T. H. Dunning, Jr., A. K. Wilson, Theor. Chem. Acc. 128, 69 (2011)
         Al-Ar : Obtained from the ccRepo (grant-hill.group.shef.ac.uk/ccrepo) Feb. 2017
                 D. E. Woon, T. H. Dunning, Jr., J. Chem. Phys. 98, 1358 (1993)
            Ca : Obtained from the Peterson Research Group Website (tyr0.chem.wsu.edu/~kipeters) Feb. 2017
                 J. Koput, K. A. Peterson, J. Phys. Chem. 106, 9595 (2002)
         Sc-Zn : Obtained from the ccRepo (grant-hill.group.shef.ac.uk/ccrepo) Feb. 2017
                 N. B. Balabanov, K. A. Peterson, J. Chem. Phys. 123, 064107 (2005)
                 N. B. Balabanov, K. A. Peterson, J. Chem. Phys. 125, 074110 (2006)
         Ga-Kr : Obtained from the ccRepo (grant-hill.group.shef.ac.uk/ccrepo) Feb. 2017
                 A. K. Wilson, D. E. Woon, K. A. Peterson, T. H. Dunning, Jr., J. Chem. Phys. 110, 7667 (1999)
             Y : Obtained from the ccRepo (grant-hill.group.shef.ac.uk/ccrepo) Feb. 2017
                 K. A. Peterson, D. Figgen, M. Dolg, H. Stoll, J. Chem. Phys. 126, 124101 (2007)
        Ag, Au : Obtained from the Peterson Research Group Website (tyr0.chem.wsu.edu/~kipeters) Feb. 2017
                 K. A. Peterson, C. Puzzarini, Theor. Chem. Acc. 114, 283 (2005)

----- AuxC basis set information -----
Your calculation utilizes the auxiliary basis: cc-pVTZ/C 
  Obtained from the EMSL Basis Set Exchange (bse.pnl.gov) Feb. 2017
  H-He, B-F, Al-Ar, Ga-Kr : F. Weigend, A. Kohn, C. Hattig, J. Chem. Phys. 116, 3175 (2002)
             Li-Be, Na-Mg : C. Haettig, Phys. Chem. Chem. Phys. 7, 59 (2005)
                       Ne : C. Haettig, Phys. Chem. Chem. Phys. 7, 59 (2005)
                            F. Weigend, A. Kohn, C. Hattig, J. Chem. Phys. 116, 3175 (2002)
                    Sc-Zn : J. G. Hill, J. A. Platts, J. Chem. Phys. 128, 044104 (2008)

================================================================================
                                        WARNINGS
                       Please study these warnings very carefully!
================================================================================


WARNING: No MP2 level density has been requested!
         To caclulate MP2 level properties use
         %mp2 Density relaxed end
         or
         %mp2 Density unrelaxed end

WARNING: Post HF methods need fully converged wavefunctions
  ===> : Setting SCFConvForced true
         You can overwrite this default with %scf ConvForced false 


INFO   : the flag for use of the SHARK integral package has been found!

================================================================================
                                       INPUT FILE
================================================================================
NAME = CONFS/Conf511.orca
|  1> ! ri-mp2 cc-pvtz cc-pvtz/c TightSCF NoKeepInts
|  2> 
|  3> %scf
|  4>   MaxCore 4096
|  5> end
|  6> *xyz  0  1
|  7>     C       14.9636676   16.0523131   17.2691346
|  8>     C       15.5090617   15.0482013   16.2339798
|  9>     O       16.9342487   15.0343554   15.9332663
| 10>     C       18.0428977   15.6268338   16.4997023
| 11>     O       19.1087705   15.0420573   16.4385772
| 12>     C       17.8948546   16.7979211   17.4111410
| 13>     C       17.4089011   17.9836067   16.9747621
| 14>     C       16.9422523   18.3188369   15.5725573
| 15>     N       17.4202314   19.0955022   17.8194034
| 16>     C       18.0107263   19.1302976   19.0553628
| 17>     S       18.0261575   20.5063601   19.9721501
| 18>     N       18.5960334   17.9677813   19.4925517
| 19>     C       18.5537047   16.6696157   18.7893088
| 20>     C       17.8997598   15.5827758   19.6423208
| 21>     C       18.3600662   14.2553852   19.5573041
| 22>     C       17.7698043   13.2385989   20.3258495
| 23>     C       16.7084717   13.5490027   21.1921986
| 24>     C       16.2465014   14.8684702   21.2834867
| 25>     O       15.2164208   15.1707511   22.1130091
| 26>     C       16.8362149   15.8791574   20.5174161
| 27>     H       15.5162372   16.0090373   18.2101348
| 28>     H       13.9239123   15.7951209   17.5059609
| 29>     H       14.9474332   17.0756300   16.8865109
| 30>     H       15.2547119   14.0458149   16.6030600
| 31>     H       14.9550436   15.1763037   15.2950923
| 32>     H       16.7560810   17.4280892   14.9625723
| 33>     H       17.7037819   18.9114494   15.0496798
| 34>     H       16.0140123   18.9030539   15.5873821
| 35>     H       17.0248270   19.9674989   17.5047043
| 36>     H       19.0159047   18.0206690   20.4121067
| 37>     H       19.5961500   16.3611195   18.6197215
| 38>     H       19.1777194   14.0080751   18.8831816
| 39>     H       18.1353606   12.2162002   20.2453148
| 40>     H       16.2487973   12.7661679   21.7864390
| 41>     H       14.9755765   14.3594059   22.5852011
| 42>     H       16.4527047   16.8905400   20.6034558
| 43> *
| 44> 
| 45>                          ****END OF INPUT****
================================================================================

                       ****************************
                       * Single Point Calculation *
                       ****************************

---------------------------------
CARTESIAN COORDINATES (ANGSTROEM)
---------------------------------
  C     14.963668   16.052313   17.269135
  C     15.509062   15.048201   16.233980
  O     16.934249   15.034355   15.933266
  C     18.042898   15.626834   16.499702
  O     19.108770   15.042057   16.438577
  C     17.894855   16.797921   17.411141
  C     17.408901   17.983607   16.974762
  C     16.942252   18.318837   15.572557
  N     17.420231   19.095502   17.819403
  C     18.010726   19.130298   19.055363
  S     18.026158   20.506360   19.972150
  N     18.596033   17.967781   19.492552
  C     18.553705   16.669616   18.789309
  C     17.899760   15.582776   19.642321
  C     18.360066   14.255385   19.557304
  C     17.769804   13.238599   20.325850
  C     16.708472   13.549003   21.192199
  C     16.246501   14.868470   21.283487
  O     15.216421   15.170751   22.113009
  C     16.836215   15.879157   20.517416
  H     15.516237   16.009037   18.210135
  H     13.923912   15.795121   17.505961
  H     14.947433   17.075630   16.886511
  H     15.254712   14.045815   16.603060
  H     14.955044   15.176304   15.295092
  H     16.756081   17.428089   14.962572
  H     17.703782   18.911449   15.049680
  H     16.014012   18.903054   15.587382
  H     17.024827   19.967499   17.504704
  H     19.015905   18.020669   20.412107
  H     19.596150   16.361120   18.619721
  H     19.177719   14.008075   18.883182
  H     18.135361   12.216200   20.245315
  H     16.248797   12.766168   21.786439
  H     14.975577   14.359406   22.585201
  H     16.452705   16.890540   20.603456

----------------------------
CARTESIAN COORDINATES (A.U.)
----------------------------
  NO LB      ZA    FRAG     MASS         X           Y           Z
   0 C     6.0000    0    12.011   28.277234   30.334476   32.633935
   1 C     6.0000    0    12.011   29.307879   28.436979   30.677776
   2 O     8.0000    0    15.999   32.001092   28.410814   30.109510
   3 C     6.0000    0    12.011   34.096135   29.530436   31.179919
   4 O     8.0000    0    15.999   36.110343   28.425369   31.064409
   5 C     6.0000    0    12.011   33.816374   31.743470   32.902288
   6 C     6.0000    0    12.011   32.898055   33.984092   32.077652
   7 C     6.0000    0    12.011   32.016217   34.617585   29.427869
   8 N     7.0000    0    14.007   32.919467   36.085270   33.673792
   9 C     6.0000    0    12.011   34.035340   36.151023   36.009417
  10 S    16.0000    0    32.060   34.064501   38.751405   37.741894
  11 N     7.0000    0    14.007   35.141410   33.954186   36.835584
  12 C     6.0000    0    12.011   35.061421   31.501008   35.506648
  13 C     6.0000    0    12.011   33.825644   29.447179   37.118607
  14 C     6.0000    0    12.011   34.695497   26.938774   36.957949
  15 C     6.0000    0    12.011   33.580064   25.017326   38.410289
  16 C     6.0000    0    12.011   31.574436   25.603904   40.047452
  17 C     6.0000    0    12.011   30.701438   28.097337   40.219961
  18 O     8.0000    0    15.999   28.754868   28.668565   41.787531
  19 C     6.0000    0    12.011   31.815835   30.007259   38.772297
  20 H     1.0000    0     1.008   29.321439   30.252696   34.412168
  21 H     1.0000    0     1.008   26.312381   29.848453   33.081472
  22 H     1.0000    0     1.008   28.246555   32.268264   31.910881
  23 H     1.0000    0     1.008   28.827228   26.542743   31.375236
  24 H     1.0000    0     1.008   28.260937   28.679058   28.903536
  25 H     1.0000    0     1.008   31.664404   32.934316   28.275164
  26 H     1.0000    0     1.008   33.455299   35.737460   28.439773
  27 H     1.0000    0     1.008   30.262098   35.721595   29.455883
  28 H     1.0000    0     1.008   32.172261   37.733105   33.079097
  29 H     1.0000    0     1.008   35.934852   34.054129   38.573291
  30 H     1.0000    0     1.008   37.031357   30.918035   35.186174
  31 H     1.0000    0     1.008   36.240638   26.471426   35.684042
  32 H     1.0000    0     1.008   34.270865   23.085273   38.258100
  33 H     1.0000    0     1.008   30.705777   24.124561   41.170403
  34 H     1.0000    0     1.008   28.299738   27.135345   42.679845
  35 H     1.0000    0     1.008   31.091106   31.918495   38.934889

--------------------------------
INTERNAL COORDINATES (ANGSTROEM)
--------------------------------
 C      0   0   0     0.000000000000     0.00000000     0.00000000
 C      1   0   0     1.541830305571     0.00000000     0.00000000
 O      2   1   0     1.456632521605   119.39898776     0.00000000
 C      3   2   1     1.378761401318   134.25347441    10.38378083
 O      4   3   2     1.217285775232   118.49029327   148.85321655
 C      4   3   2     1.491335886894   120.57729877   341.78187132
 C      6   4   3     1.353671928709   121.76471659   295.27241870
 C      7   6   4     1.515360911030   127.05723019     0.57370878
 N      7   6   4     1.396373483093   119.97036055   186.91363954
 C      9   7   6     1.370215525104   124.70366439     6.46096433
 S     10   9   7     1.653567379722   121.68574910   177.76718720
 N     10   9   7     1.373012266281   116.70696570   358.12145538
 C     12  10   9     1.477015985109   125.47468434   355.22223042
 C     13  12  10     1.528559574440   111.80722804   239.67613057
 C     14  13  12     1.407506883155   119.79714943   214.54056412
 C     15  14  13     1.404608672307   120.81097168   180.35549468
 C     16  15  14     1.404755555229   119.66902256   359.88856742
 C     17  16  15     1.400979856686   119.83011394     0.00000000
 O     18  17  16     1.356667681160   120.00382708   179.60249399
 C     18  17  16     1.398611737585   120.38879616   359.97115259
 H      1   2   3     1.092102254420   111.94432839   308.31318184
 H      1   2   3     1.096961990221   109.11955231   190.66527913
 H      1   2   3     1.092630737885   112.33870206    73.01288866
 H      2   1   3     1.098040304223   106.67290076   120.86750918
 H      2   1   3     1.097659335891   108.64638640   234.84526011
 H      8   7   6     1.095524038177   112.81028888    16.50776834
 H      8   7   6     1.097505255950   110.28096075   256.98612248
 H      8   7   6     1.096885944565   111.46412513   137.25871987
 H      9   7   6     1.007848405213   119.79406758   182.39978927
 H     12  10   9     1.012260053247   114.95070285   180.58286908
 H     13  12  10     1.100282673329   107.01737789   122.84564492
 H     15  14  13     1.088191245158   119.83346791   359.85670130
 H     16  15  14     1.088768271091   119.88091995   179.76227533
 H     17  16  15     1.085012687068   119.89602449   179.90559852
 H     19  18  17     0.969150295501   107.46145225     3.17405642
 H     20  18  17     1.085070351204   118.75745235   179.55690464

---------------------------
INTERNAL COORDINATES (A.U.)
---------------------------
 C      0   0   0     0.000000000000     0.00000000     0.00000000
 C      1   0   0     2.913637022509     0.00000000     0.00000000
 O      2   1   0     2.752636543597   119.39898776     0.00000000
 C      3   2   1     2.605481452512   134.25347441    10.38378083
 O      4   3   2     2.300336741906   118.49029327   148.85321655
 C      4   3   2     2.818216399917   120.57729877   341.78187132
 C      6   4   3     2.558069220437   121.76471659   295.27241870
 C      7   6   4     2.863617115895   127.05723019     0.57370878
 N      7   6   4     2.638763463715   119.97036055   186.91363954
 C      9   7   6     2.589332086893   124.70366439     6.46096433
 S     10   9   7     3.124789491661   121.68574910   177.76718720
 N     10   9   7     2.594617161786   116.70696570   358.12145538
 C     12  10   9     2.791155707280   125.47468434   355.22223042
 C     13  12  10     2.888558975075   111.80722804   239.67613057
 C     14  13  12     2.659802540772   119.79714943   214.54056412
 C     15  14  13     2.654325715991   120.81097168   180.35549468
 C     16  15  14     2.654603284488   119.66902256   359.88856742
 C     17  16  15     2.647468248277   119.83011394     0.00000000
 O     18  17  16     2.563730372134   120.00382708   179.60249399
 C     18  17  16     2.642993151723   120.38879616   359.97115259
 H      1   2   3     2.063774171092   111.94432839   308.31318184
 H      1   2   3     2.072957740840   109.11955231   190.66527913
 H      1   2   3     2.064772860107   112.33870206    73.01288866
 H      2   1   3     2.074995458988   106.67290076   120.86750918
 H      2   1   3     2.074275533177   108.64638640   234.84526011
 H      8   7   6     2.070240405282   112.81028888    16.50776834
 H      8   7   6     2.073984364285   110.28096075   256.98612248
 H      8   7   6     2.072814035375   111.46412513   137.25871987
 H      9   7   6     1.904557470362   119.79406758   182.39978927
 H     12  10   9     1.912894276946   114.95070285   180.58286908
 H     13  12  10     2.079232922490   107.01737789   122.84564492
 H     15  14  13     2.056383434679   119.83346791   359.85670130
 H     16  15  14     2.057473855666   119.88091995   179.76227533
 H     17  16  15     2.050376830389   119.89602449   179.90559852
 H     19  18  17     1.831428641106   107.46145225     3.17405642
 H     20  18  17     2.050485799814   118.75745235   179.55690464

---------------------
BASIS SET INFORMATION
---------------------
There are 5 groups of distinct atoms

 Group   1 Type C   : 18s5p2d1f contracted to 4s3p2d1f pattern {8811/311/11/1}
 Group   2 Type O   : 18s5p2d1f contracted to 4s3p2d1f pattern {8811/311/11/1}
 Group   3 Type N   : 18s5p2d1f contracted to 4s3p2d1f pattern {8811/311/11/1}
 Group   4 Type S   : 41s16p2d1f contracted to 5s4p2d1f pattern {13131311/7711/11/1}
 Group   5 Type H   : 5s2p1d contracted to 3s2p1d pattern {311/11/1}

Atom   0C    basis set group =>   1
Atom   1C    basis set group =>   1
Atom   2O    basis set group =>   2
Atom   3C    basis set group =>   1
Atom   4O    basis set group =>   2
Atom   5C    basis set group =>   1
Atom   6C    basis set group =>   1
Atom   7C    basis set group =>   1
Atom   8N    basis set group =>   3
Atom   9C    basis set group =>   1
Atom  10S    basis set group =>   4
Atom  11N    basis set group =>   3
Atom  12C    basis set group =>   1
Atom  13C    basis set group =>   1
Atom  14C    basis set group =>   1
Atom  15C    basis set group =>   1
Atom  16C    basis set group =>   1
Atom  17C    basis set group =>   1
Atom  18O    basis set group =>   2
Atom  19C    basis set group =>   1
Atom  20H    basis set group =>   5
Atom  21H    basis set group =>   5
Atom  22H    basis set group =>   5
Atom  23H    basis set group =>   5
Atom  24H    basis set group =>   5
Atom  25H    basis set group =>   5
Atom  26H    basis set group =>   5
Atom  27H    basis set group =>   5
Atom  28H    basis set group =>   5
Atom  29H    basis set group =>   5
Atom  30H    basis set group =>   5
Atom  31H    basis set group =>   5
Atom  32H    basis set group =>   5
Atom  33H    basis set group =>   5
Atom  34H    basis set group =>   5
Atom  35H    basis set group =>   5
---------------------------------
AUXILIARY/C BASIS SET INFORMATION
---------------------------------
There are 5 groups of distinct atoms

 Group   1 Type C   : 8s6p5d3f1g contracted to 8s6p5d3f1g pattern {11111111/111111/11111/111/1}
 Group   2 Type O   : 8s6p5d3f1g contracted to 8s6p5d3f1g pattern {11111111/111111/11111/111/1}
 Group   3 Type N   : 8s6p5d3f1g contracted to 8s6p5d3f1g pattern {11111111/111111/11111/111/1}
 Group   4 Type S   : 10s8p7d5f2g contracted to 10s8p7d5f2g pattern {1111111111/11111111/1111111/11111/11}
 Group   5 Type H   : 4s3p2d1f contracted to 4s3p2d1f pattern {1111/111/11/1}

Atom   0C    basis set group =>   1
Atom   1C    basis set group =>   1
Atom   2O    basis set group =>   2
Atom   3C    basis set group =>   1
Atom   4O    basis set group =>   2
Atom   5C    basis set group =>   1
Atom   6C    basis set group =>   1
Atom   7C    basis set group =>   1
Atom   8N    basis set group =>   3
Atom   9C    basis set group =>   1
Atom  10S    basis set group =>   4
Atom  11N    basis set group =>   3
Atom  12C    basis set group =>   1
Atom  13C    basis set group =>   1
Atom  14C    basis set group =>   1
Atom  15C    basis set group =>   1
Atom  16C    basis set group =>   1
Atom  17C    basis set group =>   1
Atom  18O    basis set group =>   2
Atom  19C    basis set group =>   1
Atom  20H    basis set group =>   5
Atom  21H    basis set group =>   5
Atom  22H    basis set group =>   5
Atom  23H    basis set group =>   5
Atom  24H    basis set group =>   5
Atom  25H    basis set group =>   5
Atom  26H    basis set group =>   5
Atom  27H    basis set group =>   5
Atom  28H    basis set group =>   5
Atom  29H    basis set group =>   5
Atom  30H    basis set group =>   5
Atom  31H    basis set group =>   5
Atom  32H    basis set group =>   5
Atom  33H    basis set group =>   5
Atom  34H    basis set group =>   5
Atom  35H    basis set group =>   5
------------------------------------------------------------------------------
                           ORCA GTO INTEGRAL CALCULATION
------------------------------------------------------------------------------
------------------------------------------------------------------------------
                   ___                                                        
                  /   \      - P O W E R E D   B Y -                         
                 /     \                                                     
                 |  |  |   _    _      __       _____    __    __             
                 |  |  |  | |  | |    /  \     |  _  \  |  |  /  |          
                  \  \/   | |  | |   /    \    | | | |  |  | /  /          
                 / \  \   | |__| |  /  /\  \   | |_| |  |  |/  /          
                |  |  |   |  __  | /  /__\  \  |    /   |      \           
                |  |  |   | |  | | |   __   |  |    \   |  |\   \          
                \     /   | |  | | |  |  |  |  | |\  \  |  | \   \       
                 \___/    |_|  |_| |__|  |__|  |_| \__\ |__|  \__/        
                                                                              
                      - O R C A' S   B I G   F R I E N D -                    
                                      &                                       
                       - I N T E G R A L  F E E D E R -                       
                                                                              
 v1 FN, 2020, v2 2021                                                         
------------------------------------------------------------------------------


Reading SHARK input file CONFS/Conf511.orca.SHARKINP.tmp ... ok
----------------------
SHARK INTEGRAL PACKAGE
----------------------

Number of atoms                             ...     36
Number of basis functions                   ...    828
Number of shells                            ...    298
Maximum angular momentum                    ...      3
Integral batch strategy                     ... SHARK/LIBINT Hybrid
RI-J (if used) integral strategy            ... SPLIT-RIJ (Revised 2003 algorithm where possible)
Printlevel                                  ...      1
Contraction scheme used                     ... SEGMENTED contraction
Coulomb Range Separation                    ... NOT USED
Exchange Range Separation                   ... NOT USED
Finite Nucleus Model                        ... NOT USED
Auxiliary Coulomb fitting basis             ... NOT available
Auxiliary J/K fitting basis                 ... NOT available
Auxiliary Correlation fitting basis         ... AVAILABLE
   # of basis functions in Aux-C            ...   2141
   # of shells in Aux-C                     ...    629
   Maximum angular momentum in Aux-C        ...      4
Auxiliary 'external' fitting basis          ... NOT available
Integral threshold                          ...     2.500000e-11
Primitive cut-off                           ...     2.500000e-12
Primitive pair pre-selection threshold      ...     2.500000e-12

Calculating pre-screening integrals         ... done (  0.6 sec) Dimension = 298
Organizing shell pair data                  ... done (  1.0 sec)
Shell pair information
Total number of shell pairs                 ...     44551
Shell pairs after pre-screening             ...     34620
Total number of primitive shell pairs       ...    234348
Primitive shell pairs kept                  ...     98825
          la=0 lb=0:   6879 shell pairs
          la=1 lb=0:   9594 shell pairs
          la=1 lb=1:   3407 shell pairs
          la=2 lb=0:   5519 shell pairs
          la=2 lb=1:   3805 shell pairs
          la=2 lb=2:   1089 shell pairs
          la=3 lb=0:   2007 shell pairs
          la=3 lb=1:   1383 shell pairs
          la=3 lb=2:    785 shell pairs
          la=3 lb=3:    152 shell pairs

Calculating one electron integrals          ... done (  0.3 sec)
Calculating RI/C V-Matrix + Cholesky decomp.... done (  0.9 sec)
Calculating Nuclear repulsion               ... done (  0.0 sec) ENN=   1728.188646537454 Eh

SHARK setup successfully completed in   3.7 seconds

Maximum memory used throughout the entire GTOINT-calculation: 516.0 MB
-------------------------------------------------------------------------------
                                 ORCA SCF
-------------------------------------------------------------------------------

------------
SCF SETTINGS
------------
Hamiltonian:
 Ab initio Hamiltonian  Method          .... Hartree-Fock(GTOs)


General Settings:
 Integral files         IntName         .... CONFS/Conf511.orca
 Hartree-Fock type      HFTyp           .... RHF
 Total Charge           Charge          ....    0
 Multiplicity           Mult            ....    1
 Number of Electrons    NEL             ....  154
 Basis Dimension        Dim             ....  828
 Nuclear Repulsion      ENuc            ....   1728.1886465375 Eh

Convergence Acceleration:
 DIIS                   CNVDIIS         .... on
   Start iteration      DIISMaxIt       ....    12
   Startup error        DIISStart       ....  0.200000
   # of expansion vecs  DIISMaxEq       ....     5
   Bias factor          DIISBfac        ....   1.050
   Max. coefficient     DIISMaxC        ....  10.000
 Trust-Rad. Augm. Hess. CNVTRAH         .... auto
   Auto Start mean grad. ratio tolernc. ....  1.125000
   Auto Start start iteration           ....    20
   Auto Start num. interpolation iter.  ....    10
   Max. Number of Micro iterations      ....    16
   Max. Number of Macro iterations      .... Maxiter - #DIIS iter
   Number of Davidson start vectors     ....     2
   Converg. threshold I  (grad. norm)   ....   1.000e-05
   Converg. threshold II (energy diff.) ....   1.000e-08
   Grad. Scal. Fac. for Micro threshold ....   0.100
   Minimum threshold for Micro iter.    ....   0.010
   NR start threshold (gradient norm)   ....   0.001
   Initial trust radius                 ....   0.400
   Minimum AH scaling param. (alpha)    ....   1.000
   Maximum AH scaling param. (alpha)    .... 1000.000
   Orbital update algorithm             .... Taylor
   White noise on init. David. guess    .... on
   Maximum white noise                  ....   0.010
   Quad. conv. algorithm                .... NR
 SOSCF                  CNVSOSCF        .... on
   Start iteration      SOSCFMaxIt      ....   150
   Startup grad/error   SOSCFStart      ....  0.003300
 Level Shifting         CNVShift        .... on
   Level shift para.    LevelShift      ....    0.2500
   Turn off err/grad.   ShiftErr        ....    0.0010
 Zerner damping         CNVZerner       .... off
 Static damping         CNVDamp         .... on
   Fraction old density DampFac         ....    0.7000
   Max. Damping (<1)    DampMax         ....    0.9800
   Min. Damping (>=0)   DampMin         ....    0.0000
   Turn off err/grad.   DampErr         ....    0.1000
 Fernandez-Rico         CNVRico         .... off

SCF Procedure:
 Maximum # iterations   MaxIter         ....   125
 SCF integral mode      SCFMode         .... Direct
   Integral package                     .... SHARK and LIBINT hybrid scheme
 Reset frequency        DirectResetFreq ....    20
 Integral Threshold     Thresh          ....  2.500e-11 Eh
 Primitive CutOff       TCut            ....  2.500e-12 Eh

Convergence Tolerance:
 Convergence Check Mode ConvCheckMode   .... Total+1el-Energy
 Convergence forced     ConvForced      .... 1
 Energy Change          TolE            ....  1.000e-08 Eh
 1-El. energy change                    ....  1.000e-05 Eh
 Orbital Gradient       TolG            ....  1.000e-05
 Orbital Rotation angle TolX            ....  1.000e-05
 DIIS Error             TolErr          ....  5.000e-07


Diagonalization of the overlap matrix:
Smallest eigenvalue                        ... 3.242e-05
Time for diagonalization                   ...    0.106 sec
Threshold for overlap eigenvalues          ... 1.000e-08
Number of eigenvalues below threshold      ... 0
Time for construction of square roots      ...    0.075 sec
Total time needed                          ...    0.182 sec

Time for model grid setup =    1.333 sec

------------------------------
INITIAL GUESS: MODEL POTENTIAL
------------------------------
Loading Hartree-Fock densities                     ... done
Calculating cut-offs                               ... done
Initializing the effective Hamiltonian             ... done
Setting up the integral package (SHARK)            ... done
Starting the Coulomb interaction                   ... done (   5.7 sec)
Reading the grid                                   ... done
Mapping shells                                     ... done
Starting the XC term evaluation                    ... done (   1.4 sec)
Transforming the Hamiltonian                       ... done (   0.1 sec)
Diagonalizing the Hamiltonian                      ... done (   0.1 sec)
Back transforming the eigenvectors                 ... done (   0.0 sec)
Now organizing SCF variables                       ... done
                      ------------------
                      INITIAL GUESS DONE (   9.5 sec)
                      ------------------
--------------
SCF ITERATIONS
--------------
ITER       Energy         Delta-E        Max-DP      RMS-DP      [F,P]     Damp
               ***  Starting incremental Fock matrix formation  ***
  0  -1269.9908349445   0.000000000000 0.04931937  0.00044762  0.3158229 0.7000
  1  -1270.2555817027  -0.264746758180 0.03609643  0.00036335  0.1858092 0.7000
                               ***Turning on DIIS***
  2  -1270.4208964225  -0.165314719780 0.02585883  0.00024133  0.1097803 0.7000
  3  -1272.5427758108  -2.121879388285 0.06324123  0.00051789  0.0829934 0.0000
  4  -1270.7321367914   1.810639019427 0.01248418  0.00010676  0.0067538 0.0000
  5  -1270.7858041218  -0.053667330463 0.00613511  0.00005508  0.0039047 0.0000
                      *** Initiating the SOSCF procedure ***
                           *** Shutting down DIIS ***
                      *** Re-Reading the Fockian *** 
                      *** Removing any level shift *** 
ITER      Energy       Delta-E        Grad      Rot      Max-DP    RMS-DP
  6  -1270.76522659   0.0205775295  0.001586  0.001586  0.002800  0.000028
               *** Restarting incremental Fock matrix formation ***
  7  -1270.78074180  -0.0155152083  0.000811  0.002005  0.001513  0.000018
  8  -1270.78078747  -0.0000456701  0.000439  0.002337  0.001619  0.000019
  9  -1270.78080519  -0.0000177143  0.000142  0.000274  0.000398  0.000005
 10  -1270.78080745  -0.0000022671  0.000041  0.000108  0.000132  0.000001
 11  -1270.78080766  -0.0000002049  0.000017  0.000088  0.000095  0.000001
 12  -1270.78080771  -0.0000000552  0.000008  0.000031  0.000028  0.000000
 13  -1270.78080772  -0.0000000067  0.000003  0.000009  0.000007  0.000000
                  ***Gradient check signals convergence***
              ***Rediagonalizing the Fockian in SOSCF/NRSCF***

               *****************************************************
               *                     SUCCESS                       *
               *           SCF CONVERGED AFTER  14 CYCLES          *
               *****************************************************


----------------
TOTAL SCF ENERGY
----------------

Total Energy       :        -1270.78080771 Eh          -34579.70378 eV

Components:
Nuclear Repulsion  :         1728.18864654 Eh           47026.40385 eV
Electronic Energy  :        -2998.96945425 Eh          -81606.10762 eV
One Electron Energy:        -5177.08627986 Eh         -140875.67966 eV
Two Electron Energy:         2178.11682561 Eh           59269.57203 eV

Virial components:
Potential Energy   :        -2539.70322679 Eh          -69108.83823 eV
Kinetic Energy     :         1268.92241907 Eh           34529.13445 eV
Virial Ratio       :            2.00146454


---------------
SCF CONVERGENCE
---------------

  Last Energy change         ...    6.2687e-09  Tolerance :   1.0000e-08
  Last MAX-Density change    ...    3.5198e-06  Tolerance :   1.0000e-07
  Last RMS-Density change    ...    3.7469e-08  Tolerance :   5.0000e-09
  Last Orbital Gradient      ...    1.5138e-06  Tolerance :   1.0000e-05
  Last Orbital Rotation      ...    3.7429e-06  Tolerance :   1.0000e-05

             **** THE GBW FILE WAS UPDATED (CONFS/Conf511.orca.gbw) ****
             **** DENSITY CONFS/Conf511.orca.scfp WAS UPDATED ****
             **** ENERGY FILE WAS UPDATED (CONFS/Conf511.orca.en.tmp) ****
             **** THE GBW FILE WAS UPDATED (CONFS/Conf511.orca.gbw) ****
             **** DENSITY CONFS/Conf511.orca.scfp WAS UPDATED ****
----------------
ORBITAL ENERGIES
----------------

  NO   OCC          E(Eh)            E(eV) 
   0   2.0000     -91.890187     -2500.4591 
   1   2.0000     -20.598995      -560.5272 
   2   2.0000     -20.595756      -560.4390 
   3   2.0000     -20.546674      -559.1034 
   4   2.0000     -15.627384      -425.2427 
   5   2.0000     -15.611296      -424.8049 
   6   2.0000     -11.400460      -310.2223 
   7   2.0000     -11.386748      -309.8492 
   8   2.0000     -11.329764      -308.2986 
   9   2.0000     -11.315973      -307.9233 
  10   2.0000     -11.314181      -307.8745 
  11   2.0000     -11.313380      -307.8527 
  12   2.0000     -11.267474      -306.6036 
  13   2.0000     -11.264162      -306.5134 
  14   2.0000     -11.263461      -306.4944 
  15   2.0000     -11.256067      -306.2932 
  16   2.0000     -11.244949      -305.9906 
  17   2.0000     -11.241300      -305.8913 
  18   2.0000     -11.237451      -305.7866 
  19   2.0000     -11.236869      -305.7707 
  20   2.0000      -8.895293      -242.0532 
  21   2.0000      -6.576880      -178.9660 
  22   2.0000      -6.574856      -178.9109 
  23   2.0000      -6.574279      -178.8952 
  24   2.0000      -1.440307       -39.1927 
  25   2.0000      -1.418792       -38.6073 
  26   2.0000      -1.352751       -36.8102 
  27   2.0000      -1.340361       -36.4731 
  28   2.0000      -1.239936       -33.7404 
  29   2.0000      -1.160004       -31.5653 
  30   2.0000      -1.124734       -30.6056 
  31   2.0000      -1.047790       -28.5118 
  32   2.0000      -1.042550       -28.3692 
  33   2.0000      -1.018506       -27.7150 
  34   2.0000      -1.004967       -27.3465 
  35   2.0000      -0.990297       -26.9473 
  36   2.0000      -0.927809       -25.2470 
  37   2.0000      -0.902607       -24.5612 
  38   2.0000      -0.853265       -23.2185 
  39   2.0000      -0.840785       -22.8789 
  40   2.0000      -0.835481       -22.7346 
  41   2.0000      -0.828204       -22.5366 
  42   2.0000      -0.746051       -20.3011 
  43   2.0000      -0.732935       -19.9442 
  44   2.0000      -0.730155       -19.8685 
  45   2.0000      -0.696129       -18.9426 
  46   2.0000      -0.686130       -18.6705 
  47   2.0000      -0.676935       -18.4203 
  48   2.0000      -0.674835       -18.3632 
  49   2.0000      -0.662267       -18.0212 
  50   2.0000      -0.657263       -17.8850 
  51   2.0000      -0.652643       -17.7593 
  52   2.0000      -0.639635       -17.4054 
  53   2.0000      -0.613385       -16.6911 
  54   2.0000      -0.606299       -16.4982 
  55   2.0000      -0.603428       -16.4201 
  56   2.0000      -0.601519       -16.3682 
  57   2.0000      -0.596012       -16.2183 
  58   2.0000      -0.578657       -15.7461 
  59   2.0000      -0.575767       -15.6674 
  60   2.0000      -0.565907       -15.3991 
  61   2.0000      -0.558090       -15.1864 
  62   2.0000      -0.543913       -14.8006 
  63   2.0000      -0.531557       -14.4644 
  64   2.0000      -0.520805       -14.1718 
  65   2.0000      -0.514107       -13.9896 
  66   2.0000      -0.501886       -13.6570 
  67   2.0000      -0.494991       -13.4694 
  68   2.0000      -0.484433       -13.1821 
  69   2.0000      -0.467184       -12.7127 
  70   2.0000      -0.454641       -12.3714 
  71   2.0000      -0.448232       -12.1970 
  72   2.0000      -0.355517        -9.6741 
  73   2.0000      -0.349457        -9.5092 
  74   2.0000      -0.329798        -8.9743 
  75   2.0000      -0.323800        -8.8110 
  76   2.0000      -0.318940        -8.6788 
  77   0.0000       0.086341         2.3495 
  78   0.0000       0.106246         2.8911 
  79   0.0000       0.114609         3.1187 
  80   0.0000       0.126522         3.4428 
  81   0.0000       0.130428         3.5491 
  82   0.0000       0.140657         3.8275 
  83   0.0000       0.151077         4.1110 
  84   0.0000       0.154561         4.2058 
  85   0.0000       0.159396         4.3374 
  86   0.0000       0.168383         4.5819 
  87   0.0000       0.173089         4.7100 
  88   0.0000       0.181691         4.9441 
  89   0.0000       0.190329         5.1791 
  90   0.0000       0.202199         5.5021 
  91   0.0000       0.206303         5.6138 
  92   0.0000       0.207778         5.6539 
  93   0.0000       0.218402         5.9430 
  94   0.0000       0.229077         6.2335 
  95   0.0000       0.237122         6.4524 
  96   0.0000       0.240735         6.5507 
  97   0.0000       0.246583         6.7099 
  98   0.0000       0.261216         7.1081 
  99   0.0000       0.280203         7.6247 
 100   0.0000       0.290450         7.9035 
 101   0.0000       0.304479         8.2853 
 102   0.0000       0.311185         8.4678 
 103   0.0000       0.313927         8.5424 
 104   0.0000       0.331432         9.0187 
 105   0.0000       0.335873         9.1396 
 106   0.0000       0.340376         9.2621 
 107   0.0000       0.348622         9.4865 
 108   0.0000       0.349604         9.5132 
 109   0.0000       0.366323         9.9682 
 110   0.0000       0.370760        10.0889 
 111   0.0000       0.376492        10.2449 
 112   0.0000       0.383707        10.4412 
 113   0.0000       0.391400        10.6505 
 114   0.0000       0.399274        10.8648 
 115   0.0000       0.404146        10.9974 
 116   0.0000       0.419019        11.4021 
 117   0.0000       0.422966        11.5095 
 118   0.0000       0.427648        11.6369 
 119   0.0000       0.432385        11.7658 
 120   0.0000       0.442519        12.0416 
 121   0.0000       0.448793        12.2123 
 122   0.0000       0.454874        12.3777 
 123   0.0000       0.457377        12.4459 
 124   0.0000       0.463179        12.6037 
 125   0.0000       0.467159        12.7120 
 126   0.0000       0.475636        12.9427 
 127   0.0000       0.479443        13.0463 
 128   0.0000       0.485332        13.2066 
 129   0.0000       0.487703        13.2711 
 130   0.0000       0.497145        13.5280 
 131   0.0000       0.508529        13.8378 
 132   0.0000       0.511489        13.9183 
 133   0.0000       0.518012        14.0958 
 134   0.0000       0.526213        14.3190 
 135   0.0000       0.532221        14.4825 
 136   0.0000       0.535631        14.5753 
 137   0.0000       0.537877        14.6364 
 138   0.0000       0.545388        14.8408 
 139   0.0000       0.552466        15.0334 
 140   0.0000       0.556548        15.1444 
 141   0.0000       0.557942        15.1824 
 142   0.0000       0.568025        15.4568 
 143   0.0000       0.571081        15.5399 
 144   0.0000       0.575167        15.6511 
 145   0.0000       0.578560        15.7434 
 146   0.0000       0.583807        15.8862 
 147   0.0000       0.585322        15.9274 
 148   0.0000       0.595284        16.1985 
 149   0.0000       0.599991        16.3266 
 150   0.0000       0.601598        16.3703 
 151   0.0000       0.605729        16.4827 
 152   0.0000       0.609835        16.5945 
 153   0.0000       0.611445        16.6383 
 154   0.0000       0.620309        16.8795 
 155   0.0000       0.623107        16.9556 
 156   0.0000       0.630215        17.1490 
 157   0.0000       0.632391        17.2082 
 158   0.0000       0.636460        17.3190 
 159   0.0000       0.647631        17.6229 
 160   0.0000       0.649357        17.6699 
 161   0.0000       0.652154        17.7460 
 162   0.0000       0.659637        17.9496 
 163   0.0000       0.664767        18.0892 
 164   0.0000       0.675864        18.3912 
 165   0.0000       0.678508        18.4631 
 166   0.0000       0.681796        18.5526 
 167   0.0000       0.693672        18.8758 
 168   0.0000       0.697769        18.9873 
 169   0.0000       0.704070        19.1587 
 170   0.0000       0.707289        19.2463 
 171   0.0000       0.710233        19.3264 
 172   0.0000       0.714524        19.4432 
 173   0.0000       0.720200        19.5976 
 174   0.0000       0.731345        19.9009 
 175   0.0000       0.735688        20.0191 
 176   0.0000       0.741916        20.1886 
 177   0.0000       0.752420        20.4744 
 178   0.0000       0.761333        20.7169 
 179   0.0000       0.766049        20.8453 
 180   0.0000       0.776922        21.1411 
 181   0.0000       0.780710        21.2442 
 182   0.0000       0.793986        21.6055 
 183   0.0000       0.796980        21.6869 
 184   0.0000       0.809393        22.0247 
 185   0.0000       0.815032        22.1782 
 186   0.0000       0.821436        22.3524 
 187   0.0000       0.832647        22.6575 
 188   0.0000       0.839787        22.8518 
 189   0.0000       0.844447        22.9786 
 190   0.0000       0.848869        23.0989 
 191   0.0000       0.854520        23.2527 
 192   0.0000       0.863881        23.5074 
 193   0.0000       0.867586        23.6082 
 194   0.0000       0.876800        23.8589 
 195   0.0000       0.882707        24.0197 
 196   0.0000       0.885597        24.0983 
 197   0.0000       0.887568        24.1520 
 198   0.0000       0.904655        24.6169 
 199   0.0000       0.906356        24.6632 
 200   0.0000       0.917410        24.9640 
 201   0.0000       0.928511        25.2661 
 202   0.0000       0.934389        25.4260 
 203   0.0000       0.942835        25.6558 
 204   0.0000       0.944627        25.7046 
 205   0.0000       0.948925        25.8216 
 206   0.0000       0.952385        25.9157 
 207   0.0000       0.960614        26.1396 
 208   0.0000       0.974331        26.5129 
 209   0.0000       0.980357        26.6769 
 210   0.0000       0.987071        26.8596 
 211   0.0000       0.989979        26.9387 
 212   0.0000       0.998399        27.1678 
 213   0.0000       1.004242        27.3268 
 214   0.0000       1.008744        27.4493 
 215   0.0000       1.015139        27.6233 
 216   0.0000       1.023801        27.8590 
 217   0.0000       1.027548        27.9610 
 218   0.0000       1.041440        28.3390 
 219   0.0000       1.044474        28.4216 
 220   0.0000       1.046692        28.4819 
 221   0.0000       1.054991        28.7078 
 222   0.0000       1.076497        29.2930 
 223   0.0000       1.087432        29.5905 
 224   0.0000       1.090866        29.6840 
 225   0.0000       1.094394        29.7800 
 226   0.0000       1.095802        29.8183 
 227   0.0000       1.108898        30.1746 
 228   0.0000       1.109938        30.2030 
 229   0.0000       1.115977        30.3673 
 230   0.0000       1.126220        30.6460 
 231   0.0000       1.134040        30.8588 
 232   0.0000       1.138229        30.9728 
 233   0.0000       1.140037        31.0220 
 234   0.0000       1.162932        31.6450 
 235   0.0000       1.167708        31.7750 
 236   0.0000       1.183993        32.2181 
 237   0.0000       1.188227        32.3333 
 238   0.0000       1.190646        32.3991 
 239   0.0000       1.197327        32.5809 
 240   0.0000       1.206248        32.8237 
 241   0.0000       1.207209        32.8498 
 242   0.0000       1.218422        33.1549 
 243   0.0000       1.223988        33.3064 
 244   0.0000       1.231598        33.5135 
 245   0.0000       1.234664        33.5969 
 246   0.0000       1.247331        33.9416 
 247   0.0000       1.253005        34.0960 
 248   0.0000       1.261637        34.3309 
 249   0.0000       1.272447        34.6250 
 250   0.0000       1.275103        34.6973 
 251   0.0000       1.280768        34.8515 
 252   0.0000       1.284144        34.9433 
 253   0.0000       1.287667        35.0392 
 254   0.0000       1.306224        35.5442 
 255   0.0000       1.318611        35.8812 
 256   0.0000       1.321863        35.9697 
 257   0.0000       1.330402        36.2021 
 258   0.0000       1.342808        36.5397 
 259   0.0000       1.346518        36.6406 
 260   0.0000       1.352169        36.7944 
 261   0.0000       1.358887        36.9772 
 262   0.0000       1.363363        37.0990 
 263   0.0000       1.369769        37.2733 
 264   0.0000       1.378849        37.5204 
 265   0.0000       1.390300        37.8320 
 266   0.0000       1.402450        38.1626 
 267   0.0000       1.403825        38.2000 
 268   0.0000       1.407406        38.2975 
 269   0.0000       1.419064        38.6147 
 270   0.0000       1.438638        39.1473 
 271   0.0000       1.445735        39.3404 
 272   0.0000       1.446833        39.3703 
 273   0.0000       1.454703        39.5845 
 274   0.0000       1.462920        39.8081 
 275   0.0000       1.465663        39.8827 
 276   0.0000       1.475128        40.1403 
 277   0.0000       1.481860        40.3234 
 278   0.0000       1.487123        40.4667 
 279   0.0000       1.492883        40.6234 
 280   0.0000       1.505965        40.9794 
 281   0.0000       1.510938        41.1147 
 282   0.0000       1.514750        41.2184 
 283   0.0000       1.521040        41.3896 
 284   0.0000       1.531650        41.6783 
 285   0.0000       1.536411        41.8079 
 286   0.0000       1.537604        41.8403 
 287   0.0000       1.547588        42.1120 
 288   0.0000       1.550251        42.1845 
 289   0.0000       1.558323        42.4041 
 290   0.0000       1.561807        42.4989 
 291   0.0000       1.569276        42.7022 
 292   0.0000       1.580734        43.0139 
 293   0.0000       1.590102        43.2689 
 294   0.0000       1.592743        43.3408 
 295   0.0000       1.605414        43.6855 
 296   0.0000       1.618248        44.0348 
 297   0.0000       1.624169        44.1959 
 298   0.0000       1.625789        44.2400 
 299   0.0000       1.634785        44.4848 
 300   0.0000       1.640297        44.6347 
 301   0.0000       1.644009        44.7358 
 302   0.0000       1.658738        45.1366 
 303   0.0000       1.666198        45.3395 
 304   0.0000       1.670215        45.4489 
 305   0.0000       1.677122        45.6368 
 306   0.0000       1.692246        46.0483 
 307   0.0000       1.698746        46.2252 
 308   0.0000       1.710594        46.5476 
 309   0.0000       1.714045        46.6415 
 310   0.0000       1.720139        46.8074 
 311   0.0000       1.735562        47.2270 
 312   0.0000       1.742225        47.4083 
 313   0.0000       1.746384        47.5215 
 314   0.0000       1.748183        47.5705 
 315   0.0000       1.766118        48.0585 
 316   0.0000       1.774971        48.2994 
 317   0.0000       1.788016        48.6544 
 318   0.0000       1.799105        48.9561 
 319   0.0000       1.808243        49.2048 
 320   0.0000       1.829904        49.7942 
 321   0.0000       1.846573        50.2478 
 322   0.0000       1.852082        50.3977 
 323   0.0000       1.856531        50.5188 
 324   0.0000       1.868663        50.8489 
 325   0.0000       1.883368        51.2490 
 326   0.0000       1.891611        51.4733 
 327   0.0000       1.906061        51.8666 
 328   0.0000       1.912910        52.0529 
 329   0.0000       1.935645        52.6716 
 330   0.0000       1.939580        52.7787 
 331   0.0000       1.947226        52.9867 
 332   0.0000       1.949803        53.0568 
 333   0.0000       1.963845        53.4389 
 334   0.0000       1.984825        54.0098 
 335   0.0000       1.987262        54.0761 
 336   0.0000       1.995329        54.2957 
 337   0.0000       2.002104        54.4800 
 338   0.0000       2.016289        54.8660 
 339   0.0000       2.019145        54.9437 
 340   0.0000       2.039194        55.4893 
 341   0.0000       2.048831        55.7515 
 342   0.0000       2.055674        55.9377 
 343   0.0000       2.083429        56.6930 
 344   0.0000       2.092360        56.9360 
 345   0.0000       2.103406        57.2366 
 346   0.0000       2.117400        57.6174 
 347   0.0000       2.138326        58.1868 
 348   0.0000       2.145207        58.3741 
 349   0.0000       2.162983        58.8577 
 350   0.0000       2.190326        59.6018 
 351   0.0000       2.198108        59.8136 
 352   0.0000       2.209903        60.1345 
 353   0.0000       2.221102        60.4393 
 354   0.0000       2.228582        60.6428 
 355   0.0000       2.266460        61.6735 
 356   0.0000       2.286013        62.2056 
 357   0.0000       2.292623        62.3854 
 358   0.0000       2.294344        62.4323 
 359   0.0000       2.311202        62.8910 
 360   0.0000       2.313530        62.9543 
 361   0.0000       2.332301        63.4651 
 362   0.0000       2.356343        64.1194 
 363   0.0000       2.359565        64.2070 
 364   0.0000       2.372218        64.5513 
 365   0.0000       2.379622        64.7528 
 366   0.0000       2.383572        64.8603 
 367   0.0000       2.394945        65.1698 
 368   0.0000       2.412872        65.6576 
 369   0.0000       2.430790        66.1452 
 370   0.0000       2.432906        66.2027 
 371   0.0000       2.464084        67.0511 
 372   0.0000       2.468861        67.1811 
 373   0.0000       2.485407        67.6314 
 374   0.0000       2.498413        67.9853 
 375   0.0000       2.508494        68.2596 
 376   0.0000       2.516538        68.4785 
 377   0.0000       2.534424        68.9652 
 378   0.0000       2.548498        69.3482 
 379   0.0000       2.549272        69.3692 
 380   0.0000       2.572392        69.9984 
 381   0.0000       2.581767        70.2535 
 382   0.0000       2.587629        70.4130 
 383   0.0000       2.601606        70.7933 
 384   0.0000       2.609364        71.0044 
 385   0.0000       2.626093        71.4596 
 386   0.0000       2.637925        71.7816 
 387   0.0000       2.653680        72.2103 
 388   0.0000       2.659512        72.3690 
 389   0.0000       2.675268        72.7977 
 390   0.0000       2.700210        73.4765 
 391   0.0000       2.705214        73.6126 
 392   0.0000       2.716540        73.9208 
 393   0.0000       2.722857        74.0927 
 394   0.0000       2.738285        74.5125 
 395   0.0000       2.747447        74.7618 
 396   0.0000       2.751436        74.8704 
 397   0.0000       2.758637        75.0663 
 398   0.0000       2.767057        75.2955 
 399   0.0000       2.777686        75.5847 
 400   0.0000       2.793249        76.0082 
 401   0.0000       2.803995        76.3006 
 402   0.0000       2.808233        76.4159 
 403   0.0000       2.826824        76.9218 
 404   0.0000       2.832087        77.0650 
 405   0.0000       2.842184        77.3398 
 406   0.0000       2.848182        77.5030 
 407   0.0000       2.855768        77.7094 
 408   0.0000       2.867850        78.0382 
 409   0.0000       2.875838        78.2555 
 410   0.0000       2.889468        78.6264 
 411   0.0000       2.896760        78.8249 
 412   0.0000       2.905231        79.0554 
 413   0.0000       2.912581        79.2554 
 414   0.0000       2.919429        79.4417 
 415   0.0000       2.921961        79.5106 
 416   0.0000       2.942685        80.0745 
 417   0.0000       2.944807        80.1323 
 418   0.0000       2.950473        80.2864 
 419   0.0000       2.954195        80.3877 
 420   0.0000       2.958744        80.5115 
 421   0.0000       2.974477        80.9396 
 422   0.0000       2.987951        81.3063 
 423   0.0000       3.001437        81.6733 
 424   0.0000       3.011334        81.9426 
 425   0.0000       3.017970        82.1232 
 426   0.0000       3.024634        82.3045 
 427   0.0000       3.029237        82.4297 
 428   0.0000       3.032494        82.5184 
 429   0.0000       3.037588        82.6570 
 430   0.0000       3.041421        82.7613 
 431   0.0000       3.054453        83.1159 
 432   0.0000       3.066136        83.4338 
 433   0.0000       3.071555        83.5813 
 434   0.0000       3.076263        83.7094 
 435   0.0000       3.090879        84.1071 
 436   0.0000       3.095312        84.2277 
 437   0.0000       3.099985        84.3549 
 438   0.0000       3.106125        84.5220 
 439   0.0000       3.113899        84.7335 
 440   0.0000       3.126875        85.0866 
 441   0.0000       3.134349        85.2900 
 442   0.0000       3.136384        85.3454 
 443   0.0000       3.152563        85.7856 
 444   0.0000       3.160234        85.9943 
 445   0.0000       3.165075        86.1261 
 446   0.0000       3.167036        86.1794 
 447   0.0000       3.170529        86.2745 
 448   0.0000       3.177450        86.4628 
 449   0.0000       3.197644        87.0123 
 450   0.0000       3.207391        87.2776 
 451   0.0000       3.213225        87.4363 
 452   0.0000       3.218473        87.5791 
 453   0.0000       3.232640        87.9646 
 454   0.0000       3.236803        88.0779 
 455   0.0000       3.239827        88.1602 
 456   0.0000       3.245336        88.3101 
 457   0.0000       3.254500        88.5594 
 458   0.0000       3.261639        88.7537 
 459   0.0000       3.273839        89.0857 
 460   0.0000       3.277195        89.1770 
 461   0.0000       3.280246        89.2600 
 462   0.0000       3.283568        89.3504 
 463   0.0000       3.294919        89.6593 
 464   0.0000       3.296079        89.6909 
 465   0.0000       3.299906        89.7950 
 466   0.0000       3.312471        90.1369 
 467   0.0000       3.320073        90.3438 
 468   0.0000       3.324125        90.4540 
 469   0.0000       3.329372        90.5968 
 470   0.0000       3.336467        90.7899 
 471   0.0000       3.345638        91.0395 
 472   0.0000       3.351664        91.2034 
 473   0.0000       3.358413        91.3871 
 474   0.0000       3.366259        91.6006 
 475   0.0000       3.367625        91.6377 
 476   0.0000       3.373382        91.7944 
 477   0.0000       3.376695        91.8845 
 478   0.0000       3.386493        92.1512 
 479   0.0000       3.388274        92.1996 
 480   0.0000       3.392348        92.3105 
 481   0.0000       3.400556        92.5338 
 482   0.0000       3.404578        92.6433 
 483   0.0000       3.408386        92.7469 
 484   0.0000       3.412386        92.8558 
 485   0.0000       3.419441        93.0477 
 486   0.0000       3.422204        93.1229 
 487   0.0000       3.435062        93.4728 
 488   0.0000       3.438674        93.5711 
 489   0.0000       3.442331        93.6706 
 490   0.0000       3.448843        93.8478 
 491   0.0000       3.451757        93.9271 
 492   0.0000       3.459713        94.1436 
 493   0.0000       3.464300        94.2684 
 494   0.0000       3.471091        94.4532 
 495   0.0000       3.472958        94.5040 
 496   0.0000       3.480036        94.6966 
 497   0.0000       3.486378        94.8692 
 498   0.0000       3.497674        95.1765 
 499   0.0000       3.505044        95.3771 
 500   0.0000       3.516170        95.6799 
 501   0.0000       3.526981        95.9740 
 502   0.0000       3.530413        96.0674 
 503   0.0000       3.534793        96.1866 
 504   0.0000       3.542954        96.4087 
 505   0.0000       3.553111        96.6851 
 506   0.0000       3.557964        96.8171 
 507   0.0000       3.577214        97.3409 
 508   0.0000       3.583977        97.5250 
 509   0.0000       3.587533        97.6217 
 510   0.0000       3.594304        97.8060 
 511   0.0000       3.603452        98.0549 
 512   0.0000       3.617568        98.4390 
 513   0.0000       3.618890        98.4750 
 514   0.0000       3.626422        98.6800 
 515   0.0000       3.629787        98.7715 
 516   0.0000       3.637612        98.9845 
 517   0.0000       3.639802        99.0441 
 518   0.0000       3.641362        99.0865 
 519   0.0000       3.650532        99.3360 
 520   0.0000       3.662270        99.6554 
 521   0.0000       3.668753        99.8319 
 522   0.0000       3.673610        99.9640 
 523   0.0000       3.678522       100.0977 
 524   0.0000       3.686467       100.3139 
 525   0.0000       3.689931       100.4081 
 526   0.0000       3.696433       100.5851 
 527   0.0000       3.701609       100.7259 
 528   0.0000       3.708096       100.9024 
 529   0.0000       3.718061       101.1736 
 530   0.0000       3.723551       101.3230 
 531   0.0000       3.731995       101.5527 
 532   0.0000       3.741824       101.8202 
 533   0.0000       3.746283       101.9416 
 534   0.0000       3.751239       102.0764 
 535   0.0000       3.752325       102.1060 
 536   0.0000       3.763467       102.4091 
 537   0.0000       3.764855       102.4469 
 538   0.0000       3.766427       102.4897 
 539   0.0000       3.771367       102.6241 
 540   0.0000       3.783790       102.9622 
 541   0.0000       3.791745       103.1786 
 542   0.0000       3.805386       103.5498 
 543   0.0000       3.811572       103.7181 
 544   0.0000       3.814864       103.8077 
 545   0.0000       3.817038       103.8669 
 546   0.0000       3.825999       104.1107 
 547   0.0000       3.836969       104.4092 
 548   0.0000       3.849178       104.7415 
 549   0.0000       3.851943       104.8167 
 550   0.0000       3.858004       104.9816 
 551   0.0000       3.867695       105.2453 
 552   0.0000       3.878548       105.5407 
 553   0.0000       3.881788       105.6288 
 554   0.0000       3.888892       105.8221 
 555   0.0000       3.901776       106.1727 
 556   0.0000       3.909479       106.3823 
 557   0.0000       3.920801       106.6904 
 558   0.0000       3.927669       106.8773 
 559   0.0000       3.933940       107.0479 
 560   0.0000       3.945856       107.3722 
 561   0.0000       3.952256       107.5464 
 562   0.0000       3.963186       107.8438 
 563   0.0000       3.972432       108.0954 
 564   0.0000       3.988048       108.5203 
 565   0.0000       3.997996       108.7910 
 566   0.0000       4.002964       108.9262 
 567   0.0000       4.016704       109.3001 
 568   0.0000       4.022309       109.4526 
 569   0.0000       4.023578       109.4871 
 570   0.0000       4.035356       109.8076 
 571   0.0000       4.038914       109.9044 
 572   0.0000       4.057307       110.4049 
 573   0.0000       4.064259       110.5941 
 574   0.0000       4.073700       110.8510 
 575   0.0000       4.075724       110.9061 
 576   0.0000       4.086391       111.1964 
 577   0.0000       4.093900       111.4007 
 578   0.0000       4.101630       111.6110 
 579   0.0000       4.109903       111.8361 
 580   0.0000       4.123848       112.2156 
 581   0.0000       4.126971       112.3006 
 582   0.0000       4.130092       112.3855 
 583   0.0000       4.135908       112.5438 
 584   0.0000       4.142908       112.7343 
 585   0.0000       4.158677       113.1633 
 586   0.0000       4.160464       113.2120 
 587   0.0000       4.167203       113.3954 
 588   0.0000       4.172863       113.5494 
 589   0.0000       4.178732       113.7091 
 590   0.0000       4.182061       113.7997 
 591   0.0000       4.192773       114.0912 
 592   0.0000       4.200631       114.3050 
 593   0.0000       4.208189       114.5106 
 594   0.0000       4.212117       114.6175 
 595   0.0000       4.225189       114.9732 
 596   0.0000       4.229304       115.0852 
 597   0.0000       4.236234       115.2738 
 598   0.0000       4.241254       115.4104 
 599   0.0000       4.249508       115.6350 
 600   0.0000       4.261113       115.9508 
 601   0.0000       4.269284       116.1731 
 602   0.0000       4.278878       116.4342 
 603   0.0000       4.286809       116.6500 
 604   0.0000       4.292704       116.8104 
 605   0.0000       4.303356       117.1003 
 606   0.0000       4.314514       117.4039 
 607   0.0000       4.322972       117.6340 
 608   0.0000       4.328259       117.7779 
 609   0.0000       4.335683       117.9799 
 610   0.0000       4.339921       118.0953 
 611   0.0000       4.350462       118.3821 
 612   0.0000       4.359902       118.6390 
 613   0.0000       4.368761       118.8800 
 614   0.0000       4.371892       118.9652 
 615   0.0000       4.378882       119.1554 
 616   0.0000       4.389588       119.4468 
 617   0.0000       4.403918       119.8367 
 618   0.0000       4.408029       119.9486 
 619   0.0000       4.415770       120.1592 
 620   0.0000       4.430754       120.5669 
 621   0.0000       4.437542       120.7517 
 622   0.0000       4.447452       121.0213 
 623   0.0000       4.456356       121.2636 
 624   0.0000       4.464761       121.4923 
 625   0.0000       4.470682       121.6534 
 626   0.0000       4.478857       121.8759 
 627   0.0000       4.485760       122.0637 
 628   0.0000       4.492562       122.2488 
 629   0.0000       4.503784       122.5542 
 630   0.0000       4.519422       122.9797 
 631   0.0000       4.526907       123.1834 
 632   0.0000       4.531505       123.3085 
 633   0.0000       4.538255       123.4922 
 634   0.0000       4.545692       123.6946 
 635   0.0000       4.559624       124.0737 
 636   0.0000       4.561451       124.1234 
 637   0.0000       4.570544       124.3708 
 638   0.0000       4.582900       124.7070 
 639   0.0000       4.586202       124.7969 
 640   0.0000       4.599224       125.1512 
 641   0.0000       4.609373       125.4274 
 642   0.0000       4.614192       125.5585 
 643   0.0000       4.624785       125.8468 
 644   0.0000       4.626867       125.9034 
 645   0.0000       4.637304       126.1875 
 646   0.0000       4.639396       126.2444 
 647   0.0000       4.652543       126.6021 
 648   0.0000       4.653853       126.6378 
 649   0.0000       4.658876       126.7745 
 650   0.0000       4.666145       126.9723 
 651   0.0000       4.670778       127.0983 
 652   0.0000       4.683081       127.4331 
 653   0.0000       4.690982       127.6481 
 654   0.0000       4.695695       127.7763 
 655   0.0000       4.704948       128.0282 
 656   0.0000       4.723026       128.5201 
 657   0.0000       4.732064       128.7660 
 658   0.0000       4.742624       129.0534 
 659   0.0000       4.761251       129.5602 
 660   0.0000       4.765326       129.6711 
 661   0.0000       4.775997       129.9615 
 662   0.0000       4.788440       130.3001 
 663   0.0000       4.805896       130.7751 
 664   0.0000       4.825348       131.3044 
 665   0.0000       4.841304       131.7386 
 666   0.0000       4.853306       132.0652 
 667   0.0000       4.858269       132.2002 
 668   0.0000       4.887082       132.9843 
 669   0.0000       4.903511       133.4313 
 670   0.0000       4.918858       133.8489 
 671   0.0000       4.920291       133.8879 
 672   0.0000       4.941903       134.4760 
 673   0.0000       4.949372       134.6793 
 674   0.0000       4.979186       135.4905 
 675   0.0000       4.995033       135.9218 
 676   0.0000       5.011744       136.3765 
 677   0.0000       5.019189       136.5791 
 678   0.0000       5.027613       136.8083 
 679   0.0000       5.038564       137.1063 
 680   0.0000       5.049662       137.4083 
 681   0.0000       5.069932       137.9599 
 682   0.0000       5.083540       138.3301 
 683   0.0000       5.089537       138.4933 
 684   0.0000       5.107400       138.9794 
 685   0.0000       5.114423       139.1705 
 686   0.0000       5.124080       139.4333 
 687   0.0000       5.134170       139.7079 
 688   0.0000       5.138242       139.8187 
 689   0.0000       5.142271       139.9283 
 690   0.0000       5.169569       140.6711 
 691   0.0000       5.177267       140.8806 
 692   0.0000       5.196580       141.4061 
 693   0.0000       5.203904       141.6054 
 694   0.0000       5.211832       141.8211 
 695   0.0000       5.219220       142.0222 
 696   0.0000       5.226958       142.2328 
 697   0.0000       5.233624       142.4141 
 698   0.0000       5.243582       142.6851 
 699   0.0000       5.247766       142.7990 
 700   0.0000       5.270857       143.4273 
 701   0.0000       5.278904       143.6463 
 702   0.0000       5.283184       143.7628 
 703   0.0000       5.300987       144.2472 
 704   0.0000       5.323435       144.8580 
 705   0.0000       5.331513       145.0778 
 706   0.0000       5.344787       145.4390 
 707   0.0000       5.352311       145.6438 
 708   0.0000       5.356511       145.7581 
 709   0.0000       5.377482       146.3287 
 710   0.0000       5.387776       146.6088 
 711   0.0000       5.395957       146.8314 
 712   0.0000       5.429530       147.7450 
 713   0.0000       5.455576       148.4538 
 714   0.0000       5.473886       148.9520 
 715   0.0000       5.481218       149.1515 
 716   0.0000       5.486937       149.3071 
 717   0.0000       5.504814       149.7936 
 718   0.0000       5.512428       150.0008 
 719   0.0000       5.522027       150.2620 
 720   0.0000       5.532432       150.5451 
 721   0.0000       5.549026       150.9967 
 722   0.0000       5.566298       151.4667 
 723   0.0000       5.573861       151.6725 
 724   0.0000       5.578319       151.7938 
 725   0.0000       5.596214       152.2807 
 726   0.0000       5.609550       152.6436 
 727   0.0000       5.624718       153.0564 
 728   0.0000       5.648025       153.6906 
 729   0.0000       5.660786       154.0378 
 730   0.0000       5.663348       154.1075 
 731   0.0000       5.678510       154.5201 
 732   0.0000       5.682613       154.6318 
 733   0.0000       5.688067       154.7802 
 734   0.0000       5.699931       155.1030 
 735   0.0000       5.719147       155.6259 
 736   0.0000       5.721363       155.6862 
 737   0.0000       5.740569       156.2088 
 738   0.0000       5.745287       156.3372 
 739   0.0000       5.755466       156.6142 
 740   0.0000       5.763456       156.8316 
 741   0.0000       5.780786       157.3032 
 742   0.0000       5.786199       157.4505 
 743   0.0000       5.798563       157.7869 
 744   0.0000       5.811551       158.1404 
 745   0.0000       5.837041       158.8339 
 746   0.0000       5.850940       159.2122 
 747   0.0000       5.861449       159.4981 
 748   0.0000       5.885669       160.1572 
 749   0.0000       5.916885       161.0066 
 750   0.0000       5.940386       161.6461 
 751   0.0000       5.958744       162.1457 
 752   0.0000       5.971210       162.4849 
 753   0.0000       5.993300       163.0860 
 754   0.0000       5.999891       163.2653 
 755   0.0000       6.019385       163.7958 
 756   0.0000       6.045611       164.5094 
 757   0.0000       6.052532       164.6978 
 758   0.0000       6.066575       165.0799 
 759   0.0000       6.076393       165.3471 
 760   0.0000       6.095308       165.8618 
 761   0.0000       6.171702       167.9406 
 762   0.0000       6.204482       168.8325 
 763   0.0000       6.234549       169.6507 
 764   0.0000       6.245867       169.9587 
 765   0.0000       6.289598       171.1487 
 766   0.0000       6.315725       171.8596 
 767   0.0000       6.334490       172.3702 
 768   0.0000       6.348880       172.7618 
 769   0.0000       6.370590       173.3526 
 770   0.0000       6.388201       173.8318 
 771   0.0000       6.400801       174.1747 
 772   0.0000       6.440019       175.2418 
 773   0.0000       6.445089       175.3798 
 774   0.0000       6.457908       175.7286 
 775   0.0000       6.473213       176.1451 
 776   0.0000       6.503442       176.9677 
 777   0.0000       6.514679       177.2734 
 778   0.0000       6.553522       178.3304 
 779   0.0000       6.614123       179.9794 
 780   0.0000       6.653338       181.0465 
 781   0.0000       6.693234       182.1322 
 782   0.0000       6.732962       183.2132 
 783   0.0000       6.744334       183.5226 
 784   0.0000       6.835409       186.0009 
 785   0.0000       6.887994       187.4318 
 786   0.0000       6.907210       187.9547 
 787   0.0000       6.919442       188.2876 
 788   0.0000       6.964330       189.5090 
 789   0.0000       7.002968       190.5604 
 790   0.0000       7.049394       191.8238 
 791   0.0000       7.067139       192.3066 
 792   0.0000       7.080683       192.6752 
 793   0.0000       7.121889       193.7965 
 794   0.0000       7.143456       194.3833 
 795   0.0000       7.215538       196.3448 
 796   0.0000       7.258611       197.5168 
 797   0.0000       7.280110       198.1019 
 798   0.0000       7.338239       199.6836 
 799   0.0000       7.400337       201.3734 
 800   0.0000       7.421596       201.9519 
 801   0.0000       7.520048       204.6309 
 802   0.0000       7.580540       206.2770 
 803   0.0000       7.584707       206.3904 
 804   0.0000       7.614652       207.2052 
 805   0.0000       7.734058       210.4544 
 806   0.0000       7.819274       212.7733 
 807   0.0000       7.931992       215.8405 
 808   0.0000       8.090562       220.1554 
 809   0.0000       9.431071       256.6325 
 810   0.0000       9.559760       260.1343 
 811   0.0000      10.778018       293.2848 
 812   0.0000      11.153262       303.4957 
 813   0.0000      11.896772       323.7276 
 814   0.0000      12.535442       341.1067 
 815   0.0000      12.816414       348.7524 
 816   0.0000      12.947475       352.3187 
 817   0.0000      13.081115       355.9552 
 818   0.0000      13.295784       361.7967 
 819   0.0000      13.439683       365.7124 
 820   0.0000      13.496183       367.2498 
 821   0.0000      13.758283       374.3819 
 822   0.0000      13.968985       380.1154 
 823   0.0000      14.141740       384.8163 
 824   0.0000      14.296517       389.0280 
 825   0.0000      14.482263       394.0824 
 826   0.0000      14.733084       400.9076 
 827   0.0000      15.973345       434.6568 

                    ********************************
                    * MULLIKEN POPULATION ANALYSIS *
                    ********************************

-----------------------
MULLIKEN ATOMIC CHARGES
-----------------------
   0 C :   -0.346074
   1 C :    0.045753
   2 O :   -0.342456
   3 C :    0.416883
   4 O :   -0.384488
   5 C :   -0.229425
   6 C :    0.162201
   7 C :   -0.319281
   8 N :   -0.140174
   9 C :    0.207198
  10 S :   -0.441622
  11 N :   -0.232615
  12 C :    0.110975
  13 C :    0.015634
  14 C :   -0.224028
  15 C :   -0.134222
  16 C :   -0.275293
  17 C :    0.327235
  18 O :   -0.356808
  19 C :   -0.287348
  20 H :    0.132014
  21 H :    0.128836
  22 H :    0.095743
  23 H :    0.116886
  24 H :    0.105902
  25 H :    0.125028
  26 H :    0.149840
  27 H :    0.108622
  28 H :    0.196414
  29 H :    0.203917
  30 H :    0.166260
  31 H :    0.178953
  32 H :    0.164830
  33 H :    0.131936
  34 H :    0.241124
  35 H :    0.181648
Sum of atomic charges:   -0.0000000

--------------------------------
MULLIKEN REDUCED ORBITAL CHARGES
--------------------------------
  0 C s       :     3.270659  s :     3.270659
      pz      :     0.976182  p :     2.990067
      px      :     1.052826
      py      :     0.961059
      dz2     :     0.020933  d :     0.080921
      dxz     :     0.013107
      dyz     :     0.014257
      dx2y2   :     0.023535
      dxy     :     0.009090
      f0      :     0.000485  f :     0.004426
      f+1     :     0.000790
      f-1     :     0.000614
      f+2     :     0.000984
      f-2     :     0.000632
      f+3     :     0.000354
      f-3     :     0.000568
  1 C s       :     3.173094  s :     3.173094
      pz      :     0.971159  p :     2.615206
      px      :     0.635189
      py      :     1.008858
      dz2     :     0.027138  d :     0.154655
      dxz     :     0.039414
      dyz     :     0.016530
      dx2y2   :     0.039634
      dxy     :     0.031940
      f0      :     0.001162  f :     0.011293
      f+1     :     0.001890
      f-1     :     0.000789
      f+2     :     0.002255
      f-2     :     0.000798
      f+3     :     0.001921
      f-3     :     0.002478
  2 O s       :     3.720735  s :     3.720735
      pz      :     1.699287  p :     4.589954
      px      :     1.173127
      py      :     1.717540
      dz2     :     0.003743  d :     0.029472
      dxz     :     0.009285
      dyz     :     0.002843
      dx2y2   :     0.005378
      dxy     :     0.008224
      f0      :     0.000207  f :     0.002294
      f+1     :     0.000316
      f-1     :     0.000060
      f+2     :     0.000328
      f-2     :     0.000325
[...]
 15 C s       :     2.705843  s :     2.705843
      pz      :     0.900300  p :     2.792262
      px      :     0.918603
      py      :     0.973359
      dz2     :     0.096132  d :     0.416334
      dxz     :     0.064602
      dyz     :     0.064943
      dx2y2   :     0.101609
      dxy     :     0.089049
      f0      :     0.003302  f :     0.041082
      f+1     :     0.005057
      f-1     :     0.006541
      f+2     :     0.006441
      f-2     :     0.007111
      f+3     :     0.006083
      f-3     :     0.006546
 16 C s       :     2.701836  s :     2.701836
      pz      :     0.941427  p :     2.868241
      px      :     0.956651
      py      :     0.970164
      dz2     :     0.049724  d :     0.390753
      dxz     :     0.052883
      dyz     :     0.094161
      dx2y2   :     0.089705
      dxy     :     0.104280
      f0      :     0.005120  f :     0.040350
      f+1     :     0.004573
      f-1     :     0.003409
      f+2     :     0.005664
      f-2     :     0.006458
      f+3     :     0.007567
      f-3     :     0.007559
 17 C s       :     2.701710  s :     2.701710
      pz      :     0.829493  p :     2.682919
      px      :     0.817464
      py      :     1.035962
      dz2     :     0.134061  d :     0.709414
      dxz     :     0.109335
      dyz     :     0.145099
      dx2y2   :     0.160966
      dxy     :     0.159954
      f0      :     0.011117  f :     0.099328
      f+1     :     0.015737
      f-1     :     0.010028
      f+2     :     0.014600
      f-2     :     0.016957
      f+3     :     0.013634
      f-3     :     0.017257
 18 O s       :     3.177214  s :     3.177214
      pz      :     1.433719  p :     4.346891
      px      :     1.442497
      py      :     1.470675
      dz2     :     0.009808  d :     0.075566
      dxz     :     0.018042
      dyz     :     0.017378
      dx2y2   :     0.017131
      dxy     :     0.013207
      f0      :     0.000618  f :     0.005069
      f+1     :     0.000809
      f-1     :     0.000338
      f+2     :     0.000910
      f-2     :     0.000925
      f+3     :     0.000635
      f-3     :     0.000835
 19 C s       :     2.696584  s :     2.696584
      pz      :     0.936578  p :     2.849549
      px      :     0.943413
      py      :     0.969558
      dz2     :     0.077731  d :     0.388480
      dxz     :     0.061921
      dyz     :     0.068482
      dx2y2   :     0.089288
      dxy     :     0.091057
      f0      :     0.003384  f :     0.040598
      f+1     :     0.005085
      f-1     :     0.005968
      f+2     :     0.006567
      f-2     :     0.007553
      f+3     :     0.006134
      f-3     :     0.005907
 20 H s       :     0.838151  s :     0.838151
      pz      :     0.071896  p :     0.163031
      px      :     0.052387
      py      :     0.038748
      dz2     :     0.009130  d :     0.028277
      dxz     :     0.007200
      dyz     :     0.007028
      dx2y2   :     0.002771
      dxy     :     0.002148
 21 H s       :     0.838680  s :     0.838680
      pz      :     0.042120  p :     0.152126
      px      :     0.069397
      py      :     0.040610
      dz2     :     0.002549  d :     0.027689
      dxz     :     0.008901
      dyz     :     0.001090
      dx2y2   :     0.007477
      dxy     :     0.007673
 22 H s       :     0.850116  s :     0.850116
      pz      :     0.043396  p :     0.155340
      px      :     0.041299
      py      :     0.070646
      dz2     :     0.003863  d :     0.028276
      dxz     :     0.001355
      dyz     :     0.008040
      dx2y2   :     0.006560
      dxy     :     0.008458
 23 H s       :     0.847745  s :     0.847745
      pz      :     0.045013  p :     0.146132
      px      :     0.026303
      py      :     0.074816
      dz2     :     0.004239  d :     0.027340
      dxz     :     0.001056
      dyz     :     0.008761
      dx2y2   :     0.007185
      dxy     :     0.006099
 24 H s       :     0.853055  s :     0.853055
      pz      :     0.068198  p :     0.145338
      px      :     0.035462
      py      :     0.041677
      dz2     :     0.007431  d :     0.027076
      dxz     :     0.007444
      dyz     :     0.007835
      dx2y2   :     0.002367
      dxy     :     0.001998
 25 H s       :     0.830461  s :     0.830461
      pz      :     0.047078  p :     0.152301
      px      :     0.040634
      py      :     0.064588
      dz2     :     0.005905  d :     0.027713
      dxz     :     0.002828
      dyz     :     0.007248
      dx2y2   :     0.004749
      dxy     :     0.006983
 26 H s       :     0.828261  s :     0.828261
      pz      :     0.045505  p :     0.151417
      px      :     0.055194
      py      :     0.050717
      dz2     :     0.005099  d :     0.027602
      dxz     :     0.005437
      dyz     :     0.004249
      dx2y2   :     0.006946
      dxy     :     0.005871
 27 H s       :     0.839386  s :     0.839386
      pz      :     0.036177  p :     0.151867
      px      :     0.065006
      py      :     0.050683
      dz2     :     0.002351  d :     0.027717
      dxz     :     0.006186
      dyz     :     0.002711
      dx2y2   :     0.009054
      dxy     :     0.007416
 28 H s       :     0.742460  s :     0.742460
      pz      :     0.055086  p :     0.253689
      px      :     0.092485
      py      :     0.106118
      dz2     :     0.007502  d :     0.061689
      dxz     :     0.003987
      dyz     :     0.015294
      dx2y2   :     0.016828
      dxy     :     0.018079
 29 H s       :     0.747711  s :     0.747711
      pz      :     0.118330  p :     0.254696
      px      :     0.091538
      py      :     0.044828
      dz2     :     0.022262  d :     0.061464
      dxz     :     0.018834
      dyz     :     0.013210
      dx2y2   :     0.004270
      dxy     :     0.002887
 30 H s       :     0.823377  s :     0.823377
      pz      :     0.038044  p :     0.150797
      px      :     0.077573
      py      :     0.035179
      dz2     :     0.002755  d :     0.028547
      dxz     :     0.008546
      dyz     :     0.001277
      dx2y2   :     0.008292
      dxy     :     0.007676
 31 H s       :     0.835878  s :     0.835878
      pz      :     0.059727  p :     0.158203
      px      :     0.064581
      py      :     0.033895
      dz2     :     0.006041  d :     0.027480
      dxz     :     0.007201
      dyz     :     0.003856
      dx2y2   :     0.005051
      dxy     :     0.005332
 32 H s       :     0.841194  s :     0.841194
      pz      :     0.036494  p :     0.150741
      px      :     0.040671
      py      :     0.073577
      dz2     :     0.002658  d :     0.026411
      dxz     :     0.000999
      dyz     :     0.007004
      dx2y2   :     0.007910
      dxy     :     0.007841
 33 H s       :     0.848299  s :     0.848299
      pz      :     0.054534  p :     0.158925
      px      :     0.047042
      py      :     0.057349
      dz2     :     0.005529  d :     0.027743
      dxz     :     0.003898
      dyz     :     0.006448
      dx2y2   :     0.006132
      dxy     :     0.005735
 34 H s       :     0.706189  s :     0.706189
      pz      :     0.103544  p :     0.347576
      px      :     0.085835
      py      :     0.158197
      dz2     :     0.019680  d :     0.099518
      dxz     :     0.008758
      dyz     :     0.025494
      dx2y2   :     0.022555
      dxy     :     0.023031
 35 H s       :     0.836852  s :     0.836852
      pz      :     0.040778  p :     0.160312
      px      :     0.043775
      py      :     0.075760
      dz2     :     0.002667  d :     0.028157
      dxz     :     0.001184
      dyz     :     0.007673
      dx2y2   :     0.008150
      dxy     :     0.008483


                      *****************************
                      * MAYER POPULATION ANALYSIS *
                      *****************************

  NA   - Mulliken gross atomic population
  ZA   - Total nuclear charge
  QA   - Mulliken gross atomic charge
  VA   - Mayer's total valence
  BVA  - Mayer's bonded valence
  FA   - Mayer's free valence

  ATOM       NA         ZA         QA         VA         BVA        FA
  0 C      6.3461     6.0000    -0.3461     3.8920     3.8920     0.0000
  1 C      5.9542     6.0000     0.0458     3.8628     3.8628     0.0000
  2 O      8.3425     8.0000    -0.3425     2.0452     2.0452     0.0000
  3 C      5.5831     6.0000     0.4169     4.2602     4.2602    -0.0000
  4 O      8.3845     8.0000    -0.3845     2.1253     2.1253    -0.0000
  5 C      6.2294     6.0000    -0.2294     3.5688     3.5688     0.0000
  6 C      5.8378     6.0000     0.1622     3.7939     3.7939     0.0000
  7 C      6.3193     6.0000    -0.3193     3.8694     3.8694    -0.0000
  8 N      7.1402     7.0000    -0.1402     3.2689     3.2689    -0.0000
  9 C      5.7928     6.0000     0.2072     4.1462     4.1462     0.0000
 10 S     16.4416    16.0000    -0.4416     1.7498     1.7498     0.0000
 11 N      7.2326     7.0000    -0.2326     3.2549     3.2549     0.0000
 12 C      5.8890     6.0000     0.1110     3.9072     3.9072    -0.0000
 13 C      5.9844     6.0000     0.0156     3.7256     3.7256     0.0000
 14 C      6.2240     6.0000    -0.2240     3.8838     3.8838    -0.0000
 15 C      6.1342     6.0000    -0.1342     3.8127     3.8127    -0.0000
 16 C      6.2753     6.0000    -0.2753     3.7888     3.7888     0.0000
 17 C      5.6728     6.0000     0.3272     3.8625     3.8625    -0.0000
 18 O      8.3568     8.0000    -0.3568     2.1185     2.1185     0.0000
 19 C      6.2873     6.0000    -0.2873     3.8114     3.8114    -0.0000
 20 H      0.8680     1.0000     0.1320     0.9572     0.9572    -0.0000
 21 H      0.8712     1.0000     0.1288     0.9830     0.9830     0.0000
 22 H      0.9043     1.0000     0.0957     0.9641     0.9641     0.0000
 23 H      0.8831     1.0000     0.1169     0.9705     0.9705    -0.0000
 24 H      0.8941     1.0000     0.1059     0.9678     0.9678    -0.0000
 25 H      0.8750     1.0000     0.1250     0.9918     0.9918    -0.0000
 26 H      0.8502     1.0000     0.1498     0.9719     0.9719     0.0000
 27 H      0.8914     1.0000     0.1086     0.9764     0.9764    -0.0000
 28 H      0.8036     1.0000     0.1964     1.0217     1.0217     0.0000
 29 H      0.7961     1.0000     0.2039     1.0117     1.0117     0.0000
 30 H      0.8337     1.0000     0.1663     0.9889     0.9889    -0.0000
 31 H      0.8210     1.0000     0.1790     0.9854     0.9854    -0.0000
 32 H      0.8352     1.0000     0.1648     0.9762     0.9762    -0.0000
 33 H      0.8681     1.0000     0.1319     0.9910     0.9910     0.0000
 34 H      0.7589     1.0000     0.2411     1.0104     1.0104    -0.0000
 35 H      0.8184     1.0000     0.1816     0.9839     0.9839    -0.0000

  Mayer bond orders larger than 0.100000
B(  0-C ,  1-C ) :   0.9614 B(  0-C , 20-H ) :   0.9644 B(  0-C , 21-H ) :   0.9776 
B(  0-C , 22-H ) :   0.9734 B(  1-C ,  2-O ) :   0.9053 B(  1-C , 23-H ) :   0.9786 
B(  1-C , 24-H ) :   0.9793 B(  2-O ,  3-C ) :   1.1693 B(  3-C ,  4-O ) :   2.0775 
B(  3-C ,  5-C ) :   0.9438 B(  5-C ,  6-C ) :   1.6817 B(  5-C , 12-C ) :   0.9400 
B(  6-C ,  7-C ) :   0.9456 B(  6-C ,  8-N ) :   1.1145 B(  7-C , 25-H ) :   0.9784 
B(  7-C , 26-H ) :   0.9641 B(  7-C , 27-H ) :   0.9716 B(  8-N ,  9-C ) :   1.1984 
B(  8-N , 28-H ) :   0.9509 B(  9-C , 10-S ) :   1.6068 B(  9-C , 11-N ) :   1.2888 
B( 11-N , 12-C ) :   0.9873 B( 11-N , 29-H ) :   0.9465 B( 12-C , 13-C ) :   0.9561 
B( 12-C , 30-H ) :   0.9944 B( 13-C , 14-C ) :   1.3911 B( 13-C , 19-C ) :   1.3368 
B( 14-C , 15-C ) :   1.4029 B( 14-C , 31-H ) :   0.9566 B( 15-C , 16-C ) :   1.3580 
B( 15-C , 32-H ) :   0.9696 B( 16-C , 17-C ) :   1.3330 B( 16-C , 33-H ) :   0.9846 
B( 17-C , 18-O ) :   1.1084 B( 17-C , 19-C ) :   1.3645 B( 18-O , 34-H ) :   0.9795 
B( 19-C , 35-H ) :   0.9580 

-------
TIMINGS
-------

Total SCF time: 0 days 2 hours 1 min 23 sec 

Total time                  ....    7283.985 sec
Sum of individual times     ....    7271.319 sec  ( 99.8%)

Fock matrix formation       ....    7233.318 sec  ( 99.3%)
Diagonalization             ....       1.758 sec  (  0.0%)
Density matrix formation    ....       0.255 sec  (  0.0%)
Population analysis         ....       0.805 sec  (  0.0%)
Initial guess               ....       8.175 sec  (  0.1%)
Orbital Transformation      ....       0.000 sec  (  0.0%)
Orbital Orthonormalization  ....       0.000 sec  (  0.0%)
DIIS solution               ....      19.284 sec  (  0.3%)
SOSCF solution              ....       6.391 sec  (  0.1%)

Maximum memory used throughout the entire SCF-calculation: 758.4 MB

------------------------------------------------------------------------------
                                ORCA  MP2 
------------------------------------------------------------------------------

Freezing NCore=48 chemical core electrons

-------------
RI-MP2 ENERGY
-------------
Dimension of the basis                    ...  828
Memory devoted to MP2                     ...  256 MB   
Data format for buffers                   ... DOUBLE
Compression type for matrix containers    ... UNCOMPRESSED
Overall scaling of the MP2 energy         ...   1.000e+00
Calculating two index integrals           ... done (    0.066 sec)
Cholesky decomposition of V**-1           ... done (    1.077 sec)

-----------------
RI-TRANSFORMATION (AUX index driven)
-----------------

Dimension of the orbital-basis         ... 828
Dimension of the aux-basis             ... 2141
Transformation of internal/external MOs...   24-  76 to   77- 827
Number Format for Storage              ... Double (8 Byte)
Integral mode                          ... Direct

First Phase: integral generation and transformation of MO indices
  Aux angular momentum 0               ... done (    9.802 sec)
  Aux angular momentum 1               ... done (   15.761 sec)
  Aux angular momentum 2               ... done (   22.200 sec)
  Aux angular momentum 3               ... done (   15.864 sec)
  Aux angular momentum 4               ... done (    6.445 sec)
Closing buffer VIA ( 0.63 GB; CompressionRatio= 1.00)
  Phase 1 completed in    71.847 sec
Second Phase: sorting and transformation of aux index

IA-Transformation
Memory available                       ... 156 MB 
Max. # MO pairs treated in a batch     ... 11    
# of internal orbitals                 ... 53
# batches for internal orbitals        ... 5
Closing buffer IAV ( 0.63 GB; CompressionRatio= 1.00)
(ia|v) transformation done in    96.416 sec

  Phase 2 completed in    96.571 sec
RI-Integral transformation completed in   168.538 sec
Opening buffers                              ... done

Starting loop over batches of integrals:

Operator 0  - window                       ... ( 24- 76)x( 77-827)
Operator 0  - Memory available             ...   256 MB
Operator 0  - Memory needed per MO         ...  12.3 MB
Operator 0  - Number of orbitals per batch ... 13
Operator 0  - Number of batches            ... 5

OPERATOR  0   PASS   0:  MOs    24 ...   36
  Reading integrals       ... ok
  Internal MO  26
  Internal MO  29
  Internal MO  32
  Internal MO  35
OPERATOR  0   PASS   1:  MOs    37 ...   49
  Reading integrals       ... ok
  Internal MO  38
  Internal MO  41
  Internal MO  44
  Internal MO  47
OPERATOR  0   PASS   2:  MOs    50 ...   62
  Reading integrals       ... ok
  Internal MO  50
  Internal MO  53
  Internal MO  56
  Internal MO  59
  Internal MO  62
OPERATOR  0   PASS   3:  MOs    63 ...   75
  Reading integrals       ... ok
  Internal MO  65
  Internal MO  68
  Internal MO  71
  Internal MO  74
OPERATOR  0   PASS   4:  MOs    76 ...   76
  Reading integrals       ... ok
Time spent in pair loops =   234.461 sec
Deleting buffer (Ka|jb)[aa] ...done

-----------------------------------------------
 RI-MP2 CORRELATION ENERGY:     -3.540840430 Eh
-----------------------------------------------


-------
TIMINGS
-------

Total time                :  405.916 sec
Integral trafo            :  168.566 sec ( 41.5%)
I/O of integrals          :    9.116 sec (  2.2%)
K(i,j) Operators          :   92.572 sec ( 22.8%)
T(i,j) pair energies      :    4.083 sec (  1.0%)
V-calculation             :    0.066 sec (  0.0%)
V**(-1/2)                 :    1.077 sec (  0.3%)
Gamma(ia|P)               :    0.000 sec (  0.0%)
Gamma-Trafo               :    0.000 sec (  0.0%)
D(virtual)                :    0.000 sec (  0.0%)
D(internal)               :    0.000 sec (  0.0%)
W(virtual)                :    0.000 sec (  0.0%)
W(internal)               :    0.000 sec (  0.0%)
L(virtual)                :    0.000 sec (  0.0%)
L(internal)               :    0.000 sec (  0.0%)
G(D)                      :    0.000 sec (  0.0%)
G(Z)                      :    0.000 sec (  0.0%)
Z-Vector Solution         :    0.000 sec (  0.0%)
3-Index Derivative        :    0.000 sec (  0.0%)
2-Index Derivative        :    0.000 sec (  0.0%)
Separable Gradient        :    0.000 sec (  0.0%)


---------------------------------------
MP2 TOTAL ENERGY:    -1274.321648142 Eh
---------------------------------------

Maximum memory used throughout the entire MP2-calculation: 305.9 MB

-------------------------   --------------------
FINAL SINGLE POINT ENERGY     -1274.321648142434
-------------------------   --------------------


                            ***************************************
                            *     ORCA property calculations      *
                            ***************************************


  WARNING: The energy has been calculated at the MP2 level but the densities
           used in the property calculations are still SCF densities
           MP2 response densities have not been calculated 
           use %mp2 Density relaxed end
           or  %mp2 Density unrelaxed end

                                    ---------------------
                                    Active property flags
                                    ---------------------
   (+) Dipole Moment


------------------------------------------------------------------------------
                       ORCA ELECTRIC PROPERTIES CALCULATION
------------------------------------------------------------------------------

Dipole Moment Calculation                       ... on
Quadrupole Moment Calculation                   ... off
Polarizability Calculation                      ... off
GBWName                                         ... CONFS/Conf511.orca.gbw
Electron density file                           ... CONFS/Conf511.orca.scfp
The origin for moment calculation is the CENTER OF MASS  = (32.750633, 31.278260 35.256835)

-------------
DIPOLE MOMENT
-------------
                                X             Y             Z
Electronic contribution:      9.32074       5.46543       6.80404
Nuclear contribution   :    -10.90257      -6.62538      -7.35279
                        -----------------------------------------
Total Dipole Moment    :     -1.58183      -1.15995      -0.54875
                        -----------------------------------------
Magnitude (a.u.)       :      2.03686
Magnitude (Debye)      :      5.17729



--------------------
Rotational spectrum 
--------------------
 
Rotational constants in cm-1:     0.011687     0.009425     0.006709 
Rotational constants in MHz :   350.356150   282.555674   201.143280 

 Dipole components along the rotational axes: 
x,y,z [a.u.] :    -1.142388    -0.997046     1.360021 
x,y,z [Debye]:    -2.903720    -2.534288     3.456899 

 

Timings for individual modules:

Sum of individual times         ...     7696.918 sec (= 128.282 min)
GTO integral calculation        ...        4.525 sec (=   0.075 min)   0.1 %
SCF iterations                  ...     7284.195 sec (= 121.403 min)  94.6 %
MP2 module                      ...      408.199 sec (=   6.803 min)   5.3 %
                             ****ORCA TERMINATED NORMALLY****
TOTAL RUN TIME: 0 days 2 hours 8 minutes 19 seconds 130 msec
