
                                        *****************
                                        * O   R   C   A *
                                        *****************

                                            #,                                       
                                            ###                                      
                                            ####                                     
                                            #####                                    
                                            ######                                   
                                           ########,                                 
                                     ,,################,,,,,                         
                               ,,#################################,,                 
                          ,,##########################################,,             
                       ,#########################################, ''#####,          
                    ,#############################################,,   '####,        
                  ,##################################################,,,,####,       
                ,###########''''           ''''###############################       
              ,#####''   ,,,,##########,,,,          '''####'''          '####       
            ,##' ,,,,###########################,,,                        '##       
           ' ,,###''''                  '''############,,,                           
         ,,##''                                '''############,,,,        ,,,,,,###''
      ,#''                                            '''#######################'''  
     '                                                          ''''####''''         
             ,#######,   #######,   ,#######,      ##                                
            ,#'     '#,  ##    ##  ,#'     '#,    #''#        ######   ,####,        
            ##       ##  ##   ,#'  ##            #'  '#       #        #'  '#        
            ##       ##  #######   ##           ,######,      #####,   #    #        
            '#,     ,#'  ##    ##  '#,     ,#' ,#      #,         ##   #,  ,#        
             '#######'   ##     ##  '#######'  #'      '#     #####' # '####'        



                  #######################################################
                  #                        -***-                        #
                  #          Department of theory and spectroscopy      #
                  #    Directorship and core code : Frank Neese         #
                  #        Max Planck Institute fuer Kohlenforschung    #
                  #                Kaiser Wilhelm Platz 1               #
                  #                 D-45470 Muelheim/Ruhr               #
                  #                      Germany                        #
                  #                                                     #
                  #                  All rights reserved                #
                  #                        -***-                        #
                  #######################################################


                         Program Version 5.0.0 -  RELEASE  -
                                (SVN: $Rev: 19529$)
                ($Date: 2021-06-28 11:36:33 +0200 (Mo, 28 Jun 2021) $)


 With contributions from (in alphabetic order):
   Daniel Aravena         : Magnetic Suceptibility
   Michael Atanasov       : Ab Initio Ligand Field Theory (pilot matlab implementation)
   Alexander A. Auer      : GIAO ZORA, VPT2 properties, NMR spectrum
   Ute Becker             : Parallelization
   Giovanni Bistoni       : ED, misc. LED, open-shell LED, HFLD
   Martin Brehm           : Molecular dynamics
   Dmytro Bykov           : SCF Hessian
   Vijay G. Chilkuri      : MRCI spin determinant printing, contributions to CSF-ICE
   Dipayan Datta          : RHF DLPNO-CCSD density
   Achintya Kumar Dutta   : EOM-CC, STEOM-CC
   Dmitry Ganyushin       : Spin-Orbit,Spin-Spin,Magnetic field MRCI
   Miquel Garcia          : C-PCM Hessian, Gaussian charge scheme
   Yang Guo               : DLPNO-NEVPT2, F12-NEVPT2, CIM, IAO-localization
   Andreas Hansen         : Spin unrestricted coupled pair/coupled cluster methods
   Benjamin Helmich-Paris : MC-RPA, TRAH-SCF, COSX integrals
   Lee Huntington         : MR-EOM, pCC
   Robert Izsak           : Overlap fitted RIJCOSX, COSX-SCS-MP3, EOM
   Marcus Kettner         : VPT2
   Christian Kollmar      : KDIIS, OOCD, Brueckner-CCSD(T), CCSD density, CASPT2, CASPT2-K
   Simone Kossmann        : Meta GGA functionals, TD-DFT gradient, OOMP2, MP2 Hessian
   Martin Krupicka        : Initial AUTO-CI
   Lucas Lang             : DCDCAS
   Marvin Lechner         : AUTO-CI (C++ implementation), FIC-MRCC
   Dagmar Lenk            : GEPOL surface, SMD
   Dimitrios Liakos       : Extrapolation schemes; Compound Job, initial MDCI parallelization
   Dimitrios Manganas     : Further ROCIS development; embedding schemes
   Dimitrios Pantazis     : SARC Basis sets
   Anastasios Papadopoulos: AUTO-CI, single reference methods and gradients
   Taras Petrenko         : DFT Hessian,TD-DFT gradient, ASA, ECA, R-Raman, ABS, FL, XAS/XES, NRVS
   Peter Pinski           : DLPNO-MP2, DLPNO-MP2 Gradient
   Christoph Reimann      : Effective Core Potentials
   Marius Retegan         : Local ZFS, SOC
   Christoph Riplinger    : Optimizer, TS searches, QM/MM, DLPNO-CCSD(T), (RO)-DLPNO pert. Triples
   Tobias Risthaus        : Range-separated hybrids, TD-DFT gradient, RPA, STAB
   Michael Roemelt        : Original ROCIS implementation
   Masaaki Saitow         : Open-shell DLPNO-CCSD energy and density
   Barbara Sandhoefer     : DKH picture change effects
   Avijit Sen             : IP-ROCIS
   Kantharuban Sivalingam : CASSCF convergence, NEVPT2, FIC-MRCI
   Bernardo de Souza      : ESD, SOC TD-DFT
   Georgi Stoychev        : AutoAux, RI-MP2 NMR
   Willem Van den Heuvel  : Paramagnetic NMR
   Boris Wezisla          : Elementary symmetry handling
   Frank Wennmohs         : Technical directorship


 We gratefully acknowledge several colleagues who have allowed us to
 interface, adapt or use parts of their codes:
   Stefan Grimme, W. Hujo, H. Kruse, P. Pracht,  : VdW corrections, initial TS optimization,
                  C. Bannwarth, S. Ehlert          DFT functionals, gCP, sTDA/sTD-DF
   Ed Valeev, F. Pavosevic, A. Kumar             : LibInt (2-el integral package), F12 methods
   Garnet Chan, S. Sharma, J. Yang, R. Olivares  : DMRG
   Ulf Ekstrom                                   : XCFun DFT Library
   Mihaly Kallay                                 : mrcc  (arbitrary order and MRCC methods)
   Jiri Pittner, Ondrej Demel                    : Mk-CCSD
   Frank Weinhold                                : gennbo (NPA and NBO analysis)
   Christopher J. Cramer and Donald G. Truhlar   : smd solvation model
   Lars Goerigk                                  : TD-DFT with DH, B97 family of functionals
   V. Asgeirsson, H. Jonsson                     : NEB implementation
   FAccTs GmbH                                   : IRC, NEB, NEB-TS, DLPNO-Multilevel, CI-OPT
                                                   MM, QMMM, 2- and 3-layer-ONIOM, Crystal-QMMM,
                                                   LR-CPCM, SF, NACMEs, symmetry and pop. for TD-DFT,
                                                   nearIR, NL-DFT gradient (VV10), updates on ESD,
                                                   ML-optimized integration grids
   S Lehtola, MJT Oliveira, MAL Marques          : LibXC Library
   Liviu Ungur et al                             : ANISO software


 Your calculation uses the libint2 library for the computation of 2-el integrals
 For citations please refer to: http://libint.valeyev.net

 Your ORCA version has been built with support for libXC version: 5.1.0
 For citations please refer to: https://tddft.org/programs/libxc/

 This ORCA versions uses:
   CBLAS   interface :  Fast vector & matrix operations
   LAPACKE interface :  Fast linear algebra routines
   SCALAPACK package :  Parallel linear algebra routines
   Shared memory     :  Shared parallel matrices
   BLAS/LAPACK       :  OpenBLAS 0.3.15  USE64BITINT DYNAMIC_ARCH NO_AFFINITY Zen SINGLE_THREADED
        Core in use  :  Zen
   Copyright (c) 2011-2014, The OpenBLAS Project


================================================================================

----- Orbital basis set information -----
Your calculation utilizes the basis: cc-pVTZ 
       H, B-Ne : Obtained from the ccRepo (grant-hill.group.shef.ac.uk/ccrepo) Feb. 2017
                 T. H. Dunning, Jr., J. Chem. Phys. 90, 1007 (1989)
            He : Obtained from the ccRepo (grant-hill.group.shef.ac.uk/ccrepo) Feb. 2017
                 D. E. Woon, T. H. Dunning, Jr., J. Chem. Phys. 100, 2975 (1994)
  Li-Be, Na-Mg : Obtained from the ccRepo (grant-hill.group.shef.ac.uk/ccrepo) Feb. 2017
                 B. P. Prascher, D. E. Woon, K. A. Peterson, T. H. Dunning, Jr., A. K. Wilson, Theor. Chem. Acc. 128, 69 (2011)
         Al-Ar : Obtained from the ccRepo (grant-hill.group.shef.ac.uk/ccrepo) Feb. 2017
                 D. E. Woon, T. H. Dunning, Jr., J. Chem. Phys. 98, 1358 (1993)
            Ca : Obtained from the Peterson Research Group Website (tyr0.chem.wsu.edu/~kipeters) Feb. 2017
                 J. Koput, K. A. Peterson, J. Phys. Chem. 106, 9595 (2002)
         Sc-Zn : Obtained from the ccRepo (grant-hill.group.shef.ac.uk/ccrepo) Feb. 2017
                 N. B. Balabanov, K. A. Peterson, J. Chem. Phys. 123, 064107 (2005)
                 N. B. Balabanov, K. A. Peterson, J. Chem. Phys. 125, 074110 (2006)
         Ga-Kr : Obtained from the ccRepo (grant-hill.group.shef.ac.uk/ccrepo) Feb. 2017
                 A. K. Wilson, D. E. Woon, K. A. Peterson, T. H. Dunning, Jr., J. Chem. Phys. 110, 7667 (1999)
             Y : Obtained from the ccRepo (grant-hill.group.shef.ac.uk/ccrepo) Feb. 2017
                 K. A. Peterson, D. Figgen, M. Dolg, H. Stoll, J. Chem. Phys. 126, 124101 (2007)
        Ag, Au : Obtained from the Peterson Research Group Website (tyr0.chem.wsu.edu/~kipeters) Feb. 2017
                 K. A. Peterson, C. Puzzarini, Theor. Chem. Acc. 114, 283 (2005)

----- AuxC basis set information -----
Your calculation utilizes the auxiliary basis: cc-pVTZ/C 
  Obtained from the EMSL Basis Set Exchange (bse.pnl.gov) Feb. 2017
  H-He, B-F, Al-Ar, Ga-Kr : F. Weigend, A. Kohn, C. Hattig, J. Chem. Phys. 116, 3175 (2002)
             Li-Be, Na-Mg : C. Haettig, Phys. Chem. Chem. Phys. 7, 59 (2005)
                       Ne : C. Haettig, Phys. Chem. Chem. Phys. 7, 59 (2005)
                            F. Weigend, A. Kohn, C. Hattig, J. Chem. Phys. 116, 3175 (2002)
                    Sc-Zn : J. G. Hill, J. A. Platts, J. Chem. Phys. 128, 044104 (2008)

================================================================================
                                        WARNINGS
                       Please study these warnings very carefully!
================================================================================


WARNING: No MP2 level density has been requested!
         To caclulate MP2 level properties use
         %mp2 Density relaxed end
         or
         %mp2 Density unrelaxed end

WARNING: Post HF methods need fully converged wavefunctions
  ===> : Setting SCFConvForced true
         You can overwrite this default with %scf ConvForced false 


INFO   : the flag for use of the SHARK integral package has been found!

================================================================================
                                       INPUT FILE
================================================================================
NAME = CONFS/Conf640.orca
|  1> ! ri-mp2 cc-pvtz cc-pvtz/c TightSCF NoKeepInts
|  2> 
|  3> %scf
|  4>   MaxCore 4096
|  5> end
|  6> *xyz  0  1
|  7>     C       14.8640825   15.1082268   16.2132221
|  8>     C       16.0427275   14.5396742   17.0271090
|  9>     O       17.2825704   14.8547021   16.3561905
| 10>     C       17.6778280   16.1455194   16.1380353
| 11>     O       17.6960472   16.5812795   15.0016817
| 12>     C       17.7518555   17.0290734   17.3510519
| 13>     C       17.3295470   18.3172201   17.3152525
| 14>     C       16.5713798   18.9981375   16.1964595
| 15>     N       17.6448580   19.1857440   18.3638077
| 16>     C       18.5804884   18.9205867   19.3289889
| 17>     S       19.0536976   20.0619875   20.4279192
| 18>     N       19.1127640   17.6551038   19.3310617
| 19>     C       18.5897574   16.5234727   18.5412122
| 20>     C       17.8679434   15.5585483   19.4738364
| 21>     C       18.2544038   14.2059880   19.5317077
| 22>     C       17.5897374   13.3084288   20.3839906
| 23>     C       16.5336125   13.7667551   21.1897330
| 24>     C       16.1510735   15.1140643   21.1416705
| 25>     O       15.1290695   15.5587796   21.9147124
| 26>     C       16.8121563   16.0050859   20.2905105
| 27>     H       14.8515330   16.2033577   16.2439137
| 28>     H       13.9109479   14.7493106   16.6201631
| 29>     H       14.9294505   14.7907003   15.1645627
| 30>     H       15.9912943   14.9494613   18.0363677
| 31>     H       15.9414698   13.4492287   17.1007110
| 32>     H       15.8188544   18.3301916   15.7616183
| 33>     H       17.2586103   19.2790688   15.3877203
| 34>     H       16.0506236   19.9035537   16.5296036
| 35>     H       17.2848264   20.1269650   18.3562901
| 36>     H       19.7876044   17.4836129   20.0657377
| 37>     H       19.4565085   15.9936721   18.1209116
| 38>     H       19.0675096   13.8456106   18.9063066
| 39>     H       17.8946426   12.2635981   20.4192444
| 40>     H       16.0181328   13.0767514   21.8500671
| 41>     H       14.8482035   14.8241365   22.4811933
| 42>     H       16.5011889   17.0444030   20.2714353
| 43> *
| 44> 
| 45>                          ****END OF INPUT****
================================================================================

                       ****************************
                       * Single Point Calculation *
                       ****************************

---------------------------------
CARTESIAN COORDINATES (ANGSTROEM)
---------------------------------
  C     14.864082   15.108227   16.213222
  C     16.042728   14.539674   17.027109
  O     17.282570   14.854702   16.356191
  C     17.677828   16.145519   16.138035
  O     17.696047   16.581280   15.001682
  C     17.751855   17.029073   17.351052
  C     17.329547   18.317220   17.315252
  C     16.571380   18.998137   16.196459
  N     17.644858   19.185744   18.363808
  C     18.580488   18.920587   19.328989
  S     19.053698   20.061987   20.427919
  N     19.112764   17.655104   19.331062
  C     18.589757   16.523473   18.541212
  C     17.867943   15.558548   19.473836
  C     18.254404   14.205988   19.531708
  C     17.589737   13.308429   20.383991
  C     16.533613   13.766755   21.189733
  C     16.151073   15.114064   21.141671
  O     15.129069   15.558780   21.914712
  C     16.812156   16.005086   20.290510
  H     14.851533   16.203358   16.243914
  H     13.910948   14.749311   16.620163
  H     14.929450   14.790700   15.164563
  H     15.991294   14.949461   18.036368
  H     15.941470   13.449229   17.100711
  H     15.818854   18.330192   15.761618
  H     17.258610   19.279069   15.387720
  H     16.050624   19.903554   16.529604
  H     17.284826   20.126965   18.356290
  H     19.787604   17.483613   20.065738
  H     19.456509   15.993672   18.120912
  H     19.067510   13.845611   18.906307
  H     17.894643   12.263598   20.419244
  H     16.018133   13.076751   21.850067
  H     14.848204   14.824136   22.481193
  H     16.501189   17.044403   20.271435

----------------------------
CARTESIAN COORDINATES (A.U.)
----------------------------
  NO LB      ZA    FRAG     MASS         X           Y           Z
   0 C     6.0000    0    12.011   28.089045   28.550411   30.638550
   1 C     6.0000    0    12.011   30.316361   27.476002   32.176573
   2 O     8.0000    0    15.999   32.659325   28.071319   30.908721
   3 C     6.0000    0    12.011   33.406254   30.510610   30.496467
   4 O     8.0000    0    15.999   33.440683   31.334077   28.349070
   5 C     6.0000    0    12.011   33.546145   32.180285   32.788736
   6 C     6.0000    0    12.011   32.748098   34.614530   32.721085
   7 C     6.0000    0    12.011   31.315369   35.901277   30.606873
   8 N     7.0000    0    14.007   33.343949   36.255802   34.702567
   9 C     6.0000    0    12.011   35.112035   35.754727   36.526495
  10 S    16.0000    0    32.060   36.006270   37.911662   38.603173
  11 N     7.0000    0    14.007   36.117890   33.363311   36.530412
  12 C     6.0000    0    12.011   35.129550   31.224838   35.037813
  13 C     6.0000    0    12.011   33.765520   29.401395   36.800218
  14 C     6.0000    0    12.011   34.495824   26.845427   36.909578
  15 C     6.0000    0    12.011   33.239786   25.149286   38.520160
  16 C     6.0000    0    12.011   31.244000   26.015397   40.042792
  17 C     6.0000    0    12.011   30.521106   28.561442   39.951967
  18 O     8.0000    0    15.999   28.589798   29.401832   41.412805
  19 C     6.0000    0    12.011   31.770371   30.245229   38.343508
  20 H     1.0000    0     1.008   28.065330   30.619909   30.696548
  21 H     1.0000    0     1.008   26.287882   27.872158   31.407557
  22 H     1.0000    0     1.008   28.212573   27.950373   28.656870
  23 H     1.0000    0     1.008   30.219167   28.250388   34.083795
  24 H     1.0000    0     1.008   30.125012   25.415359   32.315660
  25 H     1.0000    0     1.008   29.893303   34.639042   29.785142
  26 H     1.0000    0     1.008   32.614047   36.432160   29.078577
  27 H     1.0000    0     1.008   30.331283   37.612266   31.236424
  28 H     1.0000    0     1.008   32.663588   38.034452   34.688361
  29 H     1.0000    0     1.008   37.393153   33.039240   37.918749
  30 H     1.0000    0     1.008   36.767473   30.223660   34.243560
  31 H     1.0000    0     1.008   36.032371   26.164412   35.727742
  32 H     1.0000    0     1.008   33.815974   23.174842   38.586780
  33 H     1.0000    0     1.008   30.269884   24.711479   41.290643
  34 H     1.0000    0     1.008   28.059038   28.013558   42.483299
  35 H     1.0000    0     1.008   31.182728   32.209254   38.307461

--------------------------------
INTERNAL COORDINATES (ANGSTROEM)
--------------------------------
 C      0   0   0     0.000000000000     0.00000000     0.00000000
 C      1   0   0     1.541060667522     0.00000000     0.00000000
 O      2   1   0     1.444501515437   109.31163374     0.00000000
 C      3   2   1     1.367490242607   121.87331582    61.20235253
 O      4   3   2     1.217176366938   119.41942115   248.99291899
 C      4   3   2     1.502516892933   116.13751260    55.02076361
 C      6   4   3     1.356078164021   121.46217206   220.65737465
 C      7   6   4     1.513328710369   127.08094067     9.25596656
 N      7   6   4     1.397577475147   120.01668366   192.46715488
 C      9   7   6     1.370141375180   124.21604135    13.44725549
 S     10   9   7     1.653593220071   122.00447326   171.82386622
 N     10   9   7     1.372868741376   116.37267328   352.20789043
 C     12  10   9     1.475800488813   124.65298923   348.89748994
 C     13  12  10     1.523772439289   109.01850517   253.89873867
 C     14  13  12     1.407877868733   120.23142267   236.29223480
 C     15  14  13     1.404912838017   120.58661146   180.31709040
 C     16  15  14     1.405234363667   119.67213778   359.72887313
 C     17  16  15     1.401387944444   119.93789951   359.86517930
 O     18  17  16     1.356413525893   120.08845441   179.77427082
 C     18  17  16     1.398364511035   120.29330796     0.27298051
 H      1   2   3     1.095632763473   111.26812595   290.99536412
 H      1   2   3     1.096762226657   110.36355242   171.28659753
 H      1   2   3     1.097625888377   110.62790124    51.62803515
 H      2   1   3     1.090492533177   108.30525555   123.32675443
 H      2   1   3     1.097607290739   109.35291610   240.63846435
 H      8   7   6     1.096144640177   111.28703919    39.51598791
 H      8   7   6     1.097846641871   110.25100276   280.86781128
 H      8   7   6     1.096335033840   112.63832385   160.09014930
 H      9   7   6     1.007758025594   119.61828728   183.41001513
 H     12  10   9     1.012209227003   114.56673210   181.11026660
 H     13  12  10     1.099362878886   107.14189047   137.73555060
 H     15  14  13     1.087262364062   120.00459328   359.72215798
 H     16  15  14     1.088981727608   120.00956473   179.83009873
 H     17  16  15     1.085295144534   119.89924635   180.04994344
 H     19  18  17     0.969271274927   107.63278631     4.97607975
 H     20  18  17     1.085009042114   119.04937087   180.16570317

---------------------------
INTERNAL COORDINATES (A.U.)
---------------------------
 C      0   0   0     0.000000000000     0.00000000     0.00000000
 C      1   0   0     2.912182617374     0.00000000     0.00000000
 O      2   1   0     2.729712264211   109.31163374     0.00000000
 C      3   2   1     2.584182049336   121.87331582    61.20235253
 O      4   3   2     2.300129990195   119.41942115   248.99291899
 C      4   3   2     2.839345439233   116.13751260    55.02076361
 C      6   4   3     2.562616346190   121.46217206   220.65737465
 C      7   6   4     2.859776813198   127.08094067     9.25596656
 N      7   6   4     2.641038678966   120.01668366   192.46715488
 C      9   7   6     2.589191963845   124.21604135    13.44725549
 S     10   9   7     3.124838322842   122.00447326   171.82386622
 N     10   9   7     2.594345939022   116.37267328   352.20789043
 C     12  10   9     2.788858752164   124.65298923   348.89748994
 C     13  12  10     2.879512600674   109.01850517   253.89873867
 C     14  13  12     2.660503601914   120.23142267   236.29223480
 C     15  14  13     2.654900505883   120.58661146   180.31709040
 C     16  15  14     2.655508101305   119.67213778   359.72887313
 C     17  16  15     2.648239422377   119.93789951   359.86517930
 O     18  17  16     2.563250088284   120.08845441   179.77427082
 C     18  17  16     2.642525961251   120.29330796     0.27298051
 H      1   2   3     2.070445866315   111.26812595   290.99536412
 H      1   2   3     2.072580242411   110.36355242   171.28659753
 H      1   2   3     2.074212326534   110.62790124    51.62803515
 H      2   1   3     2.060732238790   108.30525555   123.32675443
 H      2   1   3     2.074177182092   109.35291610   240.63846435
 H      8   7   6     2.071413173101   111.28703919    39.51598791
 H      8   7   6     2.074629490181   110.25100276   280.86781128
 H      8   7   6     2.071772964982   112.63832385   160.09014930
 H      9   7   6     1.904386677634   119.61828728   183.41001513
 H     12  10   9     1.912798229265   114.56673210   181.11026660
 H     13  12  10     2.077494762893   107.14189047   137.73555060
 H     15  14  13     2.054628103797   120.00459328   359.72215798
 H     16  15  14     2.057877230023   120.00956473   179.83009873
 H     17  16  15     2.050910597643   119.89924635   180.04994344
 H     19  18  17     1.831657259089   107.63278631     4.97607975
 H     20  18  17     2.050369942425   119.04937087   180.16570317

---------------------
BASIS SET INFORMATION
---------------------
There are 5 groups of distinct atoms

 Group   1 Type C   : 18s5p2d1f contracted to 4s3p2d1f pattern {8811/311/11/1}
 Group   2 Type O   : 18s5p2d1f contracted to 4s3p2d1f pattern {8811/311/11/1}
 Group   3 Type N   : 18s5p2d1f contracted to 4s3p2d1f pattern {8811/311/11/1}
 Group   4 Type S   : 41s16p2d1f contracted to 5s4p2d1f pattern {13131311/7711/11/1}
 Group   5 Type H   : 5s2p1d contracted to 3s2p1d pattern {311/11/1}

Atom   0C    basis set group =>   1
Atom   1C    basis set group =>   1
Atom   2O    basis set group =>   2
Atom   3C    basis set group =>   1
Atom   4O    basis set group =>   2
Atom   5C    basis set group =>   1
Atom   6C    basis set group =>   1
Atom   7C    basis set group =>   1
Atom   8N    basis set group =>   3
Atom   9C    basis set group =>   1
Atom  10S    basis set group =>   4
Atom  11N    basis set group =>   3
Atom  12C    basis set group =>   1
Atom  13C    basis set group =>   1
Atom  14C    basis set group =>   1
Atom  15C    basis set group =>   1
Atom  16C    basis set group =>   1
Atom  17C    basis set group =>   1
Atom  18O    basis set group =>   2
Atom  19C    basis set group =>   1
Atom  20H    basis set group =>   5
Atom  21H    basis set group =>   5
Atom  22H    basis set group =>   5
Atom  23H    basis set group =>   5
Atom  24H    basis set group =>   5
Atom  25H    basis set group =>   5
Atom  26H    basis set group =>   5
Atom  27H    basis set group =>   5
Atom  28H    basis set group =>   5
Atom  29H    basis set group =>   5
Atom  30H    basis set group =>   5
Atom  31H    basis set group =>   5
Atom  32H    basis set group =>   5
Atom  33H    basis set group =>   5
Atom  34H    basis set group =>   5
Atom  35H    basis set group =>   5
---------------------------------
AUXILIARY/C BASIS SET INFORMATION
---------------------------------
There are 5 groups of distinct atoms

 Group   1 Type C   : 8s6p5d3f1g contracted to 8s6p5d3f1g pattern {11111111/111111/11111/111/1}
 Group   2 Type O   : 8s6p5d3f1g contracted to 8s6p5d3f1g pattern {11111111/111111/11111/111/1}
 Group   3 Type N   : 8s6p5d3f1g contracted to 8s6p5d3f1g pattern {11111111/111111/11111/111/1}
 Group   4 Type S   : 10s8p7d5f2g contracted to 10s8p7d5f2g pattern {1111111111/11111111/1111111/11111/11}
 Group   5 Type H   : 4s3p2d1f contracted to 4s3p2d1f pattern {1111/111/11/1}

Atom   0C    basis set group =>   1
Atom   1C    basis set group =>   1
Atom   2O    basis set group =>   2
Atom   3C    basis set group =>   1
Atom   4O    basis set group =>   2
Atom   5C    basis set group =>   1
Atom   6C    basis set group =>   1
Atom   7C    basis set group =>   1
Atom   8N    basis set group =>   3
Atom   9C    basis set group =>   1
Atom  10S    basis set group =>   4
Atom  11N    basis set group =>   3
Atom  12C    basis set group =>   1
Atom  13C    basis set group =>   1
Atom  14C    basis set group =>   1
Atom  15C    basis set group =>   1
Atom  16C    basis set group =>   1
Atom  17C    basis set group =>   1
Atom  18O    basis set group =>   2
Atom  19C    basis set group =>   1
Atom  20H    basis set group =>   5
Atom  21H    basis set group =>   5
Atom  22H    basis set group =>   5
Atom  23H    basis set group =>   5
Atom  24H    basis set group =>   5
Atom  25H    basis set group =>   5
Atom  26H    basis set group =>   5
Atom  27H    basis set group =>   5
Atom  28H    basis set group =>   5
Atom  29H    basis set group =>   5
Atom  30H    basis set group =>   5
Atom  31H    basis set group =>   5
Atom  32H    basis set group =>   5
Atom  33H    basis set group =>   5
Atom  34H    basis set group =>   5
Atom  35H    basis set group =>   5
------------------------------------------------------------------------------
                           ORCA GTO INTEGRAL CALCULATION
------------------------------------------------------------------------------
------------------------------------------------------------------------------
                   ___                                                        
                  /   \      - P O W E R E D   B Y -                         
                 /     \                                                     
                 |  |  |   _    _      __       _____    __    __             
                 |  |  |  | |  | |    /  \     |  _  \  |  |  /  |          
                  \  \/   | |  | |   /    \    | | | |  |  | /  /          
                 / \  \   | |__| |  /  /\  \   | |_| |  |  |/  /          
                |  |  |   |  __  | /  /__\  \  |    /   |      \           
                |  |  |   | |  | | |   __   |  |    \   |  |\   \          
                \     /   | |  | | |  |  |  |  | |\  \  |  | \   \       
                 \___/    |_|  |_| |__|  |__|  |_| \__\ |__|  \__/        
                                                                              
                      - O R C A' S   B I G   F R I E N D -                    
                                      &                                       
                       - I N T E G R A L  F E E D E R -                       
                                                                              
 v1 FN, 2020, v2 2021                                                         
------------------------------------------------------------------------------


Reading SHARK input file CONFS/Conf640.orca.SHARKINP.tmp ... ok
----------------------
SHARK INTEGRAL PACKAGE
----------------------

Number of atoms                             ...     36
Number of basis functions                   ...    828
Number of shells                            ...    298
Maximum angular momentum                    ...      3
Integral batch strategy                     ... SHARK/LIBINT Hybrid
RI-J (if used) integral strategy            ... SPLIT-RIJ (Revised 2003 algorithm where possible)
Printlevel                                  ...      1
Contraction scheme used                     ... SEGMENTED contraction
Coulomb Range Separation                    ... NOT USED
Exchange Range Separation                   ... NOT USED
Finite Nucleus Model                        ... NOT USED
Auxiliary Coulomb fitting basis             ... NOT available
Auxiliary J/K fitting basis                 ... NOT available
Auxiliary Correlation fitting basis         ... AVAILABLE
   # of basis functions in Aux-C            ...   2141
   # of shells in Aux-C                     ...    629
   Maximum angular momentum in Aux-C        ...      4
Auxiliary 'external' fitting basis          ... NOT available
Integral threshold                          ...     2.500000e-11
Primitive cut-off                           ...     2.500000e-12
Primitive pair pre-selection threshold      ...     2.500000e-12

Calculating pre-screening integrals         ... done (  0.5 sec) Dimension = 298
Organizing shell pair data                  ... done (  1.2 sec)
Shell pair information
Total number of shell pairs                 ...     44551
Shell pairs after pre-screening             ...     34333
Total number of primitive shell pairs       ...    234348
Primitive shell pairs kept                  ...     98204
          la=0 lb=0:   6830 shell pairs
          la=1 lb=0:   9522 shell pairs
          la=1 lb=1:   3370 shell pairs
          la=2 lb=0:   5483 shell pairs
          la=2 lb=1:   3775 shell pairs
          la=2 lb=2:   1086 shell pairs
          la=3 lb=0:   1985 shell pairs
          la=3 lb=1:   1364 shell pairs
          la=3 lb=2:    769 shell pairs
          la=3 lb=3:    149 shell pairs

Calculating one electron integrals          ... done (  0.3 sec)
Calculating RI/C V-Matrix + Cholesky decomp.... done (  1.1 sec)
Calculating Nuclear repulsion               ... done (  0.0 sec) ENN=   1726.237343333404 Eh

SHARK setup successfully completed in   3.7 seconds

Maximum memory used throughout the entire GTOINT-calculation: 512.2 MB
-------------------------------------------------------------------------------
                                 ORCA SCF
-------------------------------------------------------------------------------

------------
SCF SETTINGS
------------
Hamiltonian:
 Ab initio Hamiltonian  Method          .... Hartree-Fock(GTOs)


General Settings:
 Integral files         IntName         .... CONFS/Conf640.orca
 Hartree-Fock type      HFTyp           .... RHF
 Total Charge           Charge          ....    0
 Multiplicity           Mult            ....    1
 Number of Electrons    NEL             ....  154
 Basis Dimension        Dim             ....  828
 Nuclear Repulsion      ENuc            ....   1726.2373433334 Eh

Convergence Acceleration:
 DIIS                   CNVDIIS         .... on
   Start iteration      DIISMaxIt       ....    12
   Startup error        DIISStart       ....  0.200000
   # of expansion vecs  DIISMaxEq       ....     5
   Bias factor          DIISBfac        ....   1.050
   Max. coefficient     DIISMaxC        ....  10.000
 Trust-Rad. Augm. Hess. CNVTRAH         .... auto
   Auto Start mean grad. ratio tolernc. ....  1.125000
   Auto Start start iteration           ....    20
   Auto Start num. interpolation iter.  ....    10
   Max. Number of Micro iterations      ....    16
   Max. Number of Macro iterations      .... Maxiter - #DIIS iter
   Number of Davidson start vectors     ....     2
   Converg. threshold I  (grad. norm)   ....   1.000e-05
   Converg. threshold II (energy diff.) ....   1.000e-08
   Grad. Scal. Fac. for Micro threshold ....   0.100
   Minimum threshold for Micro iter.    ....   0.010
   NR start threshold (gradient norm)   ....   0.001
   Initial trust radius                 ....   0.400
   Minimum AH scaling param. (alpha)    ....   1.000
   Maximum AH scaling param. (alpha)    .... 1000.000
   Orbital update algorithm             .... Taylor
   White noise on init. David. guess    .... on
   Maximum white noise                  ....   0.010
   Quad. conv. algorithm                .... NR
 SOSCF                  CNVSOSCF        .... on
   Start iteration      SOSCFMaxIt      ....   150
   Startup grad/error   SOSCFStart      ....  0.003300
 Level Shifting         CNVShift        .... on
   Level shift para.    LevelShift      ....    0.2500
   Turn off err/grad.   ShiftErr        ....    0.0010
 Zerner damping         CNVZerner       .... off
 Static damping         CNVDamp         .... on
   Fraction old density DampFac         ....    0.7000
   Max. Damping (<1)    DampMax         ....    0.9800
   Min. Damping (>=0)   DampMin         ....    0.0000
   Turn off err/grad.   DampErr         ....    0.1000
 Fernandez-Rico         CNVRico         .... off

SCF Procedure:
 Maximum # iterations   MaxIter         ....   125
 SCF integral mode      SCFMode         .... Direct
   Integral package                     .... SHARK and LIBINT hybrid scheme
 Reset frequency        DirectResetFreq ....    20
 Integral Threshold     Thresh          ....  2.500e-11 Eh
 Primitive CutOff       TCut            ....  2.500e-12 Eh

Convergence Tolerance:
 Convergence Check Mode ConvCheckMode   .... Total+1el-Energy
 Convergence forced     ConvForced      .... 1
 Energy Change          TolE            ....  1.000e-08 Eh
 1-El. energy change                    ....  1.000e-05 Eh
 Orbital Gradient       TolG            ....  1.000e-05
 Orbital Rotation angle TolX            ....  1.000e-05
 DIIS Error             TolErr          ....  5.000e-07


Diagonalization of the overlap matrix:
Smallest eigenvalue                        ... 3.175e-05
Time for diagonalization                   ...    0.120 sec
Threshold for overlap eigenvalues          ... 1.000e-08
Number of eigenvalues below threshold      ... 0
Time for construction of square roots      ...    0.100 sec
Total time needed                          ...    0.221 sec

Time for model grid setup =    1.757 sec

------------------------------
INITIAL GUESS: MODEL POTENTIAL
------------------------------
Loading Hartree-Fock densities                     ... done
Calculating cut-offs                               ... done
Initializing the effective Hamiltonian             ... done
Setting up the integral package (SHARK)            ... done
Starting the Coulomb interaction                   ... done (   6.0 sec)
Reading the grid                                   ... done
Mapping shells                                     ... done
Starting the XC term evaluation                    ... done (   1.2 sec)
Transforming the Hamiltonian                       ... done (   0.1 sec)
Diagonalizing the Hamiltonian                      ... done (   0.2 sec)
Back transforming the eigenvectors                 ... done (   0.0 sec)
Now organizing SCF variables                       ... done
                      ------------------
                      INITIAL GUESS DONE (   9.4 sec)
                      ------------------
--------------
SCF ITERATIONS
--------------
ITER       Energy         Delta-E        Max-DP      RMS-DP      [F,P]     Damp
               ***  Starting incremental Fock matrix formation  ***
  0  -1269.9940812414   0.000000000000 0.04934765  0.00043432  0.3220824 0.7000
  1  -1270.2606970246  -0.266615783220 0.03609994  0.00034995  0.1934441 0.7000
                               ***Turning on DIIS***
  2  -1270.4268710291  -0.166174004529 0.02584915  0.00023390  0.1097145 0.7000
  3  -1272.5411641252  -2.114293096028 0.06315884  0.00050489  0.0828396 0.0000
  4  -1270.7368995026   1.804264622522 0.00917292  0.00009988  0.0068503 0.0000
  5  -1270.7934716346  -0.056572131985 0.00423174  0.00005156  0.0048819 0.0000
  6  -1270.7725527234   0.020918911256 0.00210716  0.00002663  0.0038966 0.0000
                      *** Initiating the SOSCF procedure ***
                           *** Shutting down DIIS ***
                      *** Re-Reading the Fockian *** 
                      *** Removing any level shift *** 
ITER      Energy       Delta-E        Grad      Rot      Max-DP    RMS-DP
  7  -1270.78800009  -0.0154473698  0.001127  0.001127  0.001110  0.000014
               *** Restarting incremental Fock matrix formation ***
  8  -1270.78814745  -0.0001473598  0.000604  0.001537  0.000559  0.000008
  9  -1270.78816218  -0.0000147254  0.000281  0.001771  0.000752  0.000010
 10  -1270.78816819  -0.0000060147  0.000069  0.000116  0.000207  0.000002
 11  -1270.78816874  -0.0000005499  0.000038  0.000072  0.000060  0.000001
 12  -1270.78816886  -0.0000001216  0.000011  0.000043  0.000026  0.000000
 13  -1270.78816888  -0.0000000158  0.000008  0.000037  0.000019  0.000000
                  ***Gradient check signals convergence***
              ***Rediagonalizing the Fockian in SOSCF/NRSCF***

               *****************************************************
               *                     SUCCESS                       *
               *           SCF CONVERGED AFTER  14 CYCLES          *
               *****************************************************


----------------
TOTAL SCF ENERGY
----------------

Total Energy       :        -1270.78816889 Eh          -34579.90408 eV

Components:
Nuclear Repulsion  :         1726.23734333 Eh           46973.30619 eV
Electronic Energy  :        -2997.02551222 Eh          -81553.21027 eV
One Electron Energy:        -5173.17652822 Eh         -140769.28991 eV
Two Electron Energy:         2176.15101600 Eh           59216.07963 eV

Virial components:
Potential Energy   :        -2539.78216450 Eh          -69110.98623 eV
Kinetic Energy     :         1268.99399561 Eh           34531.08215 eV
Virial Ratio       :            2.00141385


---------------
SCF CONVERGENCE
---------------

  Last Energy change         ...   -1.1045e-08  Tolerance :   1.0000e-08
  Last MAX-Density change    ...    2.8922e-06  Tolerance :   1.0000e-07
  Last RMS-Density change    ...    4.9185e-08  Tolerance :   5.0000e-09
  Last Orbital Gradient      ...    1.8333e-06  Tolerance :   1.0000e-05
  Last Orbital Rotation      ...    6.9017e-06  Tolerance :   1.0000e-05

             **** THE GBW FILE WAS UPDATED (CONFS/Conf640.orca.gbw) ****
             **** DENSITY CONFS/Conf640.orca.scfp WAS UPDATED ****
             **** ENERGY FILE WAS UPDATED (CONFS/Conf640.orca.en.tmp) ****
             **** THE GBW FILE WAS UPDATED (CONFS/Conf640.orca.gbw) ****
             **** DENSITY CONFS/Conf640.orca.scfp WAS UPDATED ****
----------------
ORBITAL ENERGIES
----------------

  NO   OCC          E(Eh)            E(eV) 
   0   2.0000     -91.891655     -2500.4990 
   1   2.0000     -20.603037      -560.6371 
   2   2.0000     -20.585097      -560.1490 
   3   2.0000     -20.552218      -559.2543 
   4   2.0000     -15.630125      -425.3173 
   5   2.0000     -15.611462      -424.8095 
   6   2.0000     -11.394155      -310.0507 
   7   2.0000     -11.386561      -309.8441 
   8   2.0000     -11.334837      -308.4366 
   9   2.0000     -11.321431      -308.0718 
  10   2.0000     -11.317282      -307.9589 
  11   2.0000     -11.297420      -307.4184 
  12   2.0000     -11.266418      -306.5748 
  13   2.0000     -11.262473      -306.4675 
  14   2.0000     -11.260571      -306.4157 
  15   2.0000     -11.255829      -306.2867 
  16   2.0000     -11.250703      -306.1472 
  17   2.0000     -11.245179      -305.9969 
  18   2.0000     -11.244854      -305.9880 
  19   2.0000     -11.227607      -305.5187 
  20   2.0000      -8.896684      -242.0911 
  21   2.0000      -6.578251      -179.0033 
  22   2.0000      -6.576253      -178.9489 
  23   2.0000      -6.575658      -178.9328 
  24   2.0000      -1.445159       -39.3248 
  25   2.0000      -1.422793       -38.7162 
  26   2.0000      -1.354590       -36.8603 
  27   2.0000      -1.342459       -36.5302 
  28   2.0000      -1.241695       -33.7882 
  29   2.0000      -1.164024       -31.6747 
  30   2.0000      -1.122890       -30.5554 
  31   2.0000      -1.048702       -28.5366 
  32   2.0000      -1.032753       -28.1026 
  33   2.0000      -1.022510       -27.8239 
  34   2.0000      -1.001893       -27.2629 
  35   2.0000      -0.988230       -26.8911 
  36   2.0000      -0.927802       -25.2468 
  37   2.0000      -0.890266       -24.2254 
  38   2.0000      -0.851281       -23.1645 
  39   2.0000      -0.845400       -23.0045 
  40   2.0000      -0.841159       -22.8891 
  41   2.0000      -0.830836       -22.6082 
  42   2.0000      -0.752650       -20.4806 
  43   2.0000      -0.736989       -20.0545 
  44   2.0000      -0.717850       -19.5337 
  45   2.0000      -0.702083       -19.1047 
  46   2.0000      -0.692393       -18.8410 
  47   2.0000      -0.681842       -18.5539 
  48   2.0000      -0.672695       -18.3049 
  49   2.0000      -0.666405       -18.1338 
  50   2.0000      -0.653209       -17.7747 
  51   2.0000      -0.649360       -17.6700 
  52   2.0000      -0.637144       -17.3376 
  53   2.0000      -0.617163       -16.7939 
  54   2.0000      -0.612459       -16.6659 
  55   2.0000      -0.605519       -16.4770 
  56   2.0000      -0.602640       -16.3987 
  57   2.0000      -0.582866       -15.8606 
  58   2.0000      -0.576881       -15.6977 
  59   2.0000      -0.567344       -15.4382 
  60   2.0000      -0.553035       -15.0488 
  61   2.0000      -0.550300       -14.9744 
  62   2.0000      -0.542085       -14.7509 
  63   2.0000      -0.531055       -14.4508 
  64   2.0000      -0.526563       -14.3285 
  65   2.0000      -0.518705       -14.1147 
  66   2.0000      -0.506494       -13.7824 
  67   2.0000      -0.499869       -13.6021 
  68   2.0000      -0.478060       -13.0087 
  69   2.0000      -0.469369       -12.7722 
  70   2.0000      -0.453103       -12.3296 
  71   2.0000      -0.447111       -12.1665 
  72   2.0000      -0.359236        -9.7753 
  73   2.0000      -0.354578        -9.6486 
  74   2.0000      -0.331751        -9.0274 
  75   2.0000      -0.328845        -8.9483 
  76   2.0000      -0.319376        -8.6907 
  77   0.0000       0.073743         2.0066 
  78   0.0000       0.100130         2.7247 
  79   0.0000       0.119902         3.2627 
  80   0.0000       0.126879         3.4525 
  81   0.0000       0.130947         3.5632 
  82   0.0000       0.140176         3.8144 
  83   0.0000       0.146021         3.9734 
  84   0.0000       0.150352         4.0913 
  85   0.0000       0.158397         4.3102 
  86   0.0000       0.174421         4.7462 
  87   0.0000       0.178055         4.8451 
  88   0.0000       0.186718         5.0809 
  89   0.0000       0.189263         5.1501 
  90   0.0000       0.201688         5.4882 
  91   0.0000       0.212030         5.7696 
  92   0.0000       0.214203         5.8288 
  93   0.0000       0.220612         6.0032 
  94   0.0000       0.229416         6.2427 
  95   0.0000       0.231835         6.3085 
  96   0.0000       0.240443         6.5428 
  97   0.0000       0.244259         6.6466 
  98   0.0000       0.258692         7.0394 
  99   0.0000       0.286963         7.8087 
 100   0.0000       0.300078         8.1655 
 101   0.0000       0.303576         8.2607 
 102   0.0000       0.308404         8.3921 
 103   0.0000       0.313807         8.5391 
 104   0.0000       0.318778         8.6744 
 105   0.0000       0.333170         9.0660 
 106   0.0000       0.338986         9.2243 
 107   0.0000       0.355042         9.6612 
 108   0.0000       0.361749         9.8437 
 109   0.0000       0.363030         9.8785 
 110   0.0000       0.372338        10.1318 
 111   0.0000       0.374310        10.1855 
 112   0.0000       0.384725        10.4689 
 113   0.0000       0.394997        10.7484 
 114   0.0000       0.397260        10.8100 
 115   0.0000       0.408367        11.1122 
 116   0.0000       0.412112        11.2141 
 117   0.0000       0.422048        11.4845 
 118   0.0000       0.427910        11.6440 
 119   0.0000       0.435192        11.8422 
 120   0.0000       0.440432        11.9848 
 121   0.0000       0.442831        12.0500 
 122   0.0000       0.452507        12.3133 
 123   0.0000       0.455622        12.3981 
 124   0.0000       0.459728        12.5098 
 125   0.0000       0.467711        12.7271 
 126   0.0000       0.471211        12.8223 
 127   0.0000       0.487636        13.2692 
 128   0.0000       0.493703        13.4344 
 129   0.0000       0.498048        13.5526 
 130   0.0000       0.503527        13.7017 
 131   0.0000       0.506983        13.7957 
 132   0.0000       0.512287        13.9400 
 133   0.0000       0.517356        14.0780 
 134   0.0000       0.520209        14.1556 
 135   0.0000       0.525398        14.2968 
 136   0.0000       0.533825        14.5261 
 137   0.0000       0.542134        14.7522 
 138   0.0000       0.545928        14.8554 
 139   0.0000       0.548725        14.9316 
 140   0.0000       0.555943        15.1280 
 141   0.0000       0.559791        15.2327 
 142   0.0000       0.562372        15.3029 
 143   0.0000       0.565018        15.3749 
 144   0.0000       0.572623        15.5819 
 145   0.0000       0.580847        15.8057 
 146   0.0000       0.583986        15.8911 
 147   0.0000       0.593578        16.1521 
 148   0.0000       0.600247        16.3335 
 149   0.0000       0.605445        16.4750 
 150   0.0000       0.608545        16.5594 
 151   0.0000       0.610117        16.6021 
 152   0.0000       0.614317        16.7164 
 153   0.0000       0.620504        16.8848 
 154   0.0000       0.627877        17.0854 
 155   0.0000       0.630183        17.1481 
 156   0.0000       0.631299        17.1785 
 157   0.0000       0.635466        17.2919 
 158   0.0000       0.640858        17.4386 
 159   0.0000       0.646056        17.5801 
 160   0.0000       0.650449        17.6996 
 161   0.0000       0.656004        17.8508 
 162   0.0000       0.657860        17.9013 
 163   0.0000       0.667783        18.1713 
 164   0.0000       0.671343        18.2682 
 165   0.0000       0.680115        18.5069 
 166   0.0000       0.682406        18.5692 
 167   0.0000       0.689621        18.7655 
 168   0.0000       0.694672        18.9030 
 169   0.0000       0.698955        19.0195 
 170   0.0000       0.702155        19.1066 
 171   0.0000       0.711410        19.3584 
 172   0.0000       0.713817        19.4239 
 173   0.0000       0.717020        19.5111 
 174   0.0000       0.722882        19.6706 
 175   0.0000       0.734981        19.9999 
 176   0.0000       0.743689        20.2368 
 177   0.0000       0.744872        20.2690 
 178   0.0000       0.753091        20.4926 
 179   0.0000       0.762928        20.7603 
 180   0.0000       0.765894        20.8410 
 181   0.0000       0.775171        21.0935 
 182   0.0000       0.782813        21.3014 
 183   0.0000       0.792053        21.5529 
 184   0.0000       0.800431        21.7808 
 185   0.0000       0.812767        22.1165 
 186   0.0000       0.813442        22.1349 
 187   0.0000       0.824700        22.4412 
 188   0.0000       0.828273        22.5385 
 189   0.0000       0.840612        22.8742 
 190   0.0000       0.849263        23.1096 
 191   0.0000       0.854456        23.2509 
 192   0.0000       0.861758        23.4496 
 193   0.0000       0.865243        23.5445 
 194   0.0000       0.875158        23.8143 
 195   0.0000       0.881536        23.9878 
 196   0.0000       0.888578        24.1794 
 197   0.0000       0.894989        24.3539 
 198   0.0000       0.902323        24.5535 
 199   0.0000       0.908946        24.7337 
 200   0.0000       0.913819        24.8663 
 201   0.0000       0.922778        25.1101 
 202   0.0000       0.927025        25.2256 
 203   0.0000       0.937296        25.5051 
 204   0.0000       0.943423        25.6719 
 205   0.0000       0.954297        25.9677 
 206   0.0000       0.960542        26.1377 
 207   0.0000       0.965222        26.2650 
 208   0.0000       0.973811        26.4988 
 209   0.0000       0.980802        26.6890 
 210   0.0000       0.984738        26.7961 
 211   0.0000       0.990091        26.9417 
 212   0.0000       1.000006        27.2116 
 213   0.0000       1.013961        27.5913 
 214   0.0000       1.015900        27.6440 
 215   0.0000       1.018202        27.7067 
 216   0.0000       1.022613        27.8267 
 217   0.0000       1.030647        28.0453 
 218   0.0000       1.034643        28.1541 
 219   0.0000       1.041906        28.3517 
 220   0.0000       1.052888        28.6505 
 221   0.0000       1.058666        28.8078 
 222   0.0000       1.072145        29.1746 
 223   0.0000       1.077082        29.3089 
 224   0.0000       1.087953        29.6047 
 225   0.0000       1.091903        29.7122 
 226   0.0000       1.094704        29.7884 
 227   0.0000       1.112847        30.2821 
 228   0.0000       1.119124        30.4529 
 229   0.0000       1.123639        30.5758 
 230   0.0000       1.133364        30.8404 
 231   0.0000       1.140337        31.0301 
 232   0.0000       1.144806        31.1518 
 233   0.0000       1.155070        31.4311 
 234   0.0000       1.160314        31.5737 
 235   0.0000       1.168033        31.7838 
 236   0.0000       1.170978        31.8639 
 237   0.0000       1.174940        31.9717 
 238   0.0000       1.177036        32.0288 
 239   0.0000       1.183566        32.2065 
 240   0.0000       1.195755        32.5382 
 241   0.0000       1.200499        32.6672 
 242   0.0000       1.209451        32.9108 
 243   0.0000       1.213838        33.0302 
 244   0.0000       1.220019        33.1984 
 245   0.0000       1.225978        33.3606 
 246   0.0000       1.233498        33.5652 
 247   0.0000       1.244908        33.8757 
 248   0.0000       1.249689        34.0058 
 249   0.0000       1.253244        34.1025 
 250   0.0000       1.261620        34.3304 
 251   0.0000       1.266390        34.4602 
 252   0.0000       1.278137        34.7799 
 253   0.0000       1.288025        35.0489 
 254   0.0000       1.298606        35.3369 
 255   0.0000       1.301109        35.4050 
 256   0.0000       1.313963        35.7548 
 257   0.0000       1.329654        36.1817 
 258   0.0000       1.340001        36.4633 
 259   0.0000       1.345324        36.6081 
 260   0.0000       1.353387        36.8275 
 261   0.0000       1.361218        37.0406 
 262   0.0000       1.369573        37.2680 
 263   0.0000       1.373309        37.3696 
 264   0.0000       1.377476        37.4830 
 265   0.0000       1.389966        37.8229 
 266   0.0000       1.397410        38.0254 
 267   0.0000       1.405753        38.2525 
 268   0.0000       1.427305        38.8389 
 269   0.0000       1.428817        38.8801 
 270   0.0000       1.432364        38.9766 
 271   0.0000       1.435178        39.0532 
 272   0.0000       1.445539        39.3351 
 273   0.0000       1.449369        39.4393 
 274   0.0000       1.454458        39.5778 
 275   0.0000       1.461493        39.7693 
 276   0.0000       1.471734        40.0479 
 277   0.0000       1.475649        40.1545 
 278   0.0000       1.488401        40.5014 
 279   0.0000       1.489824        40.5402 
 280   0.0000       1.498826        40.7851 
 281   0.0000       1.507132        41.0111 
 282   0.0000       1.511866        41.1400 
 283   0.0000       1.514426        41.2096 
 284   0.0000       1.520308        41.3697 
 285   0.0000       1.527754        41.5723 
 286   0.0000       1.533865        41.7386 
 287   0.0000       1.539077        41.8804 
 288   0.0000       1.544280        42.0220 
 289   0.0000       1.559835        42.4453 
 290   0.0000       1.564575        42.5743 
 291   0.0000       1.569705        42.7138 
 292   0.0000       1.576682        42.9037 
 293   0.0000       1.584476        43.1158 
 294   0.0000       1.588794        43.2333 
 295   0.0000       1.596633        43.4466 
 296   0.0000       1.605994        43.7013 
 297   0.0000       1.611279        43.8451 
 298   0.0000       1.620699        44.1015 
 299   0.0000       1.631925        44.4069 
 300   0.0000       1.638353        44.5818 
 301   0.0000       1.654379        45.0179 
 302   0.0000       1.660023        45.1715 
 303   0.0000       1.669256        45.4228 
 304   0.0000       1.680224        45.7212 
 305   0.0000       1.690710        46.0066 
 306   0.0000       1.695958        46.1494 
 307   0.0000       1.707381        46.4602 
 308   0.0000       1.713233        46.6194 
 309   0.0000       1.720222        46.8096 
 310   0.0000       1.730112        47.0787 
 311   0.0000       1.735096        47.2144 
 312   0.0000       1.744507        47.4704 
 313   0.0000       1.758968        47.8640 
 314   0.0000       1.766925        48.0805 
 315   0.0000       1.777279        48.3622 
 316   0.0000       1.782087        48.4931 
 317   0.0000       1.794441        48.8292 
 318   0.0000       1.800342        48.9898 
 319   0.0000       1.813550        49.3492 
 320   0.0000       1.819560        49.5127 
 321   0.0000       1.830359        49.8066 
 322   0.0000       1.846589        50.2482 
 323   0.0000       1.849085        50.3162 
 324   0.0000       1.868407        50.8419 
 325   0.0000       1.879979        51.1568 
 326   0.0000       1.897859        51.6434 
 327   0.0000       1.905859        51.8611 
 328   0.0000       1.915878        52.1337 
 329   0.0000       1.918804        52.2133 
 330   0.0000       1.930704        52.5371 
 331   0.0000       1.938661        52.7536 
 332   0.0000       1.944734        52.9189 
 333   0.0000       1.955182        53.2032 
 334   0.0000       1.965358        53.4801 
 335   0.0000       1.978166        53.8286 
 336   0.0000       1.995668        54.3049 
 337   0.0000       2.003650        54.5221 
 338   0.0000       2.016329        54.8671 
 339   0.0000       2.023218        55.0545 
 340   0.0000       2.030568        55.2546 
 341   0.0000       2.034850        55.3711 
 342   0.0000       2.054838        55.9150 
 343   0.0000       2.062813        56.1320 
 344   0.0000       2.080758        56.6203 
 345   0.0000       2.115087        57.5544 
 346   0.0000       2.119280        57.6685 
 347   0.0000       2.132045        58.0159 
 348   0.0000       2.150725        58.5242 
 349   0.0000       2.155698        58.6595 
 350   0.0000       2.163712        58.8776 
 351   0.0000       2.193205        59.6802 
 352   0.0000       2.213369        60.2288 
 353   0.0000       2.233362        60.7729 
 354   0.0000       2.243530        61.0496 
 355   0.0000       2.259464        61.4832 
 356   0.0000       2.275264        61.9131 
 357   0.0000       2.288918        62.2846 
 358   0.0000       2.289770        62.3078 
 359   0.0000       2.309002        62.8311 
 360   0.0000       2.321792        63.1792 
 361   0.0000       2.333883        63.5082 
 362   0.0000       2.346022        63.8385 
 363   0.0000       2.355466        64.0955 
 364   0.0000       2.365134        64.3586 
 365   0.0000       2.381565        64.8057 
 366   0.0000       2.395654        65.1891 
 367   0.0000       2.405006        65.4435 
 368   0.0000       2.408893        65.5493 
 369   0.0000       2.436985        66.3137 
 370   0.0000       2.441943        66.4486 
 371   0.0000       2.463031        67.0225 
 372   0.0000       2.474440        67.3329 
 373   0.0000       2.488215        67.7078 
 374   0.0000       2.493156        67.8422 
 375   0.0000       2.506721        68.2113 
 376   0.0000       2.517460        68.5036 
 377   0.0000       2.532961        68.9254 
 378   0.0000       2.546949        69.3060 
 379   0.0000       2.570133        69.9369 
 380   0.0000       2.572781        70.0089 
 381   0.0000       2.582165        70.2643 
 382   0.0000       2.605030        70.8865 
 383   0.0000       2.614208        71.1362 
 384   0.0000       2.620461        71.3064 
 385   0.0000       2.632959        71.6464 
 386   0.0000       2.639908        71.8356 
 387   0.0000       2.656925        72.2986 
 388   0.0000       2.659299        72.3632 
 389   0.0000       2.665655        72.5361 
 390   0.0000       2.679737        72.9193 
 391   0.0000       2.684719        73.0549 
 392   0.0000       2.716745        73.9264 
 393   0.0000       2.722761        74.0901 
 394   0.0000       2.724999        74.1510 
 395   0.0000       2.739312        74.5405 
 396   0.0000       2.745447        74.7074 
 397   0.0000       2.751254        74.8654 
 398   0.0000       2.755858        74.9907 
 399   0.0000       2.768723        75.3408 
 400   0.0000       2.777963        75.5922 
 401   0.0000       2.791960        75.9731 
 402   0.0000       2.811168        76.4958 
 403   0.0000       2.813637        76.5630 
 404   0.0000       2.820086        76.7385 
 405   0.0000       2.833851        77.1130 
 406   0.0000       2.838758        77.2465 
 407   0.0000       2.842528        77.3491 
 408   0.0000       2.855094        77.6910 
 409   0.0000       2.865712        77.9800 
 410   0.0000       2.871614        78.1406 
 411   0.0000       2.887758        78.5799 
 412   0.0000       2.894454        78.7621 
 413   0.0000       2.911339        79.2216 
 414   0.0000       2.914296        79.3020 
 415   0.0000       2.927518        79.6618 
 416   0.0000       2.940386        80.0120 
 417   0.0000       2.948695        80.2381 
 418   0.0000       2.956062        80.4385 
 419   0.0000       2.963243        80.6339 
 420   0.0000       2.974008        80.9269 
 421   0.0000       2.978794        81.0571 
 422   0.0000       2.984520        81.2129 
 423   0.0000       2.999060        81.6086 
 424   0.0000       3.006599        81.8137 
 425   0.0000       3.012453        81.9730 
 426   0.0000       3.019797        82.1729 
 427   0.0000       3.029964        82.4495 
 428   0.0000       3.041925        82.7750 
 429   0.0000       3.047445        82.9252 
 430   0.0000       3.052118        83.0524 
 431   0.0000       3.053028        83.0771 
 432   0.0000       3.060720        83.2864 
 433   0.0000       3.072823        83.6158 
 434   0.0000       3.081599        83.8546 
 435   0.0000       3.082654        83.8833 
 436   0.0000       3.095984        84.2460 
 437   0.0000       3.099755        84.3486 
 438   0.0000       3.104133        84.4677 
 439   0.0000       3.114265        84.7435 
 440   0.0000       3.116966        84.8170 
 441   0.0000       3.121588        84.9427 
 442   0.0000       3.131323        85.2076 
 443   0.0000       3.132483        85.2392 
 444   0.0000       3.146038        85.6080 
 445   0.0000       3.147167        85.6388 
 446   0.0000       3.162465        86.0550 
 447   0.0000       3.163593        86.0857 
 448   0.0000       3.167369        86.1885 
 449   0.0000       3.181016        86.5599 
 450   0.0000       3.194142        86.9170 
 451   0.0000       3.202601        87.1472 
 452   0.0000       3.206307        87.2480 
 453   0.0000       3.208844        87.3171 
 454   0.0000       3.231575        87.9356 
 455   0.0000       3.236451        88.0683 
 456   0.0000       3.241367        88.2021 
 457   0.0000       3.254185        88.5509 
 458   0.0000       3.257682        88.6460 
 459   0.0000       3.261260        88.7434 
 460   0.0000       3.279888        89.2503 
 461   0.0000       3.281887        89.3047 
 462   0.0000       3.289600        89.5146 
 463   0.0000       3.292205        89.5854 
 464   0.0000       3.299704        89.7895 
 465   0.0000       3.305339        89.9428 
 466   0.0000       3.315983        90.2325 
 467   0.0000       3.319706        90.3338 
 468   0.0000       3.326432        90.5168 
 469   0.0000       3.337220        90.8104 
 470   0.0000       3.343591        90.9837 
 471   0.0000       3.347781        91.0977 
 472   0.0000       3.349824        91.1534 
 473   0.0000       3.356123        91.3248 
 474   0.0000       3.364425        91.5507 
 475   0.0000       3.369357        91.6849 
 476   0.0000       3.376468        91.8784 
 477   0.0000       3.382910        92.0537 
 478   0.0000       3.390754        92.2671 
 479   0.0000       3.399857        92.5148 
 480   0.0000       3.405896        92.6792 
 481   0.0000       3.409008        92.7638 
 482   0.0000       3.415845        92.9499 
 483   0.0000       3.418096        93.0111 
 484   0.0000       3.420114        93.0660 
 485   0.0000       3.426291        93.2341 
 486   0.0000       3.432636        93.4068 
 487   0.0000       3.435399        93.4820 
 488   0.0000       3.437467        93.5382 
 489   0.0000       3.443913        93.7136 
 490   0.0000       3.447561        93.8129 
 491   0.0000       3.451852        93.9297 
 492   0.0000       3.455943        94.0410 
 493   0.0000       3.473669        94.5233 
 494   0.0000       3.476268        94.5941 
 495   0.0000       3.484367        94.8144 
 496   0.0000       3.497836        95.1809 
 497   0.0000       3.506459        95.4156 
 498   0.0000       3.517025        95.7031 
 499   0.0000       3.522627        95.8556 
 500   0.0000       3.527520        95.9887 
 501   0.0000       3.533912        96.1626 
 502   0.0000       3.540032        96.3292 
 503   0.0000       3.543959        96.4360 
 504   0.0000       3.548394        96.5567 
 505   0.0000       3.553040        96.6831 
 506   0.0000       3.559114        96.8484 
 507   0.0000       3.567206        97.0686 
 508   0.0000       3.576289        97.3158 
 509   0.0000       3.579822        97.4119 
 510   0.0000       3.595989        97.8518 
 511   0.0000       3.603740        98.0627 
 512   0.0000       3.615772        98.3902 
 513   0.0000       3.618466        98.4635 
 514   0.0000       3.623869        98.6105 
 515   0.0000       3.627835        98.7184 
 516   0.0000       3.630907        98.8020 
 517   0.0000       3.633772        98.8800 
 518   0.0000       3.642553        99.1189 
 519   0.0000       3.648190        99.2723 
 520   0.0000       3.653503        99.4169 
 521   0.0000       3.660564        99.6090 
 522   0.0000       3.661899        99.6453 
 523   0.0000       3.671278        99.9006 
 524   0.0000       3.679741       100.1308 
 525   0.0000       3.687309       100.3368 
 526   0.0000       3.697389       100.6111 
 527   0.0000       3.706587       100.8614 
 528   0.0000       3.709686       100.9457 
 529   0.0000       3.711003       100.9815 
 530   0.0000       3.714633       101.0803 
 531   0.0000       3.719091       101.2016 
 532   0.0000       3.726503       101.4033 
 533   0.0000       3.748995       102.0153 
 534   0.0000       3.755137       102.1825 
 535   0.0000       3.759078       102.2897 
 536   0.0000       3.765689       102.4696 
 537   0.0000       3.769146       102.5637 
 538   0.0000       3.770810       102.6090 
 539   0.0000       3.780105       102.8619 
 540   0.0000       3.791611       103.1750 
 541   0.0000       3.793731       103.2327 
 542   0.0000       3.804957       103.5381 
 543   0.0000       3.809386       103.6587 
 544   0.0000       3.813620       103.7739 
 545   0.0000       3.819330       103.9293 
 546   0.0000       3.826775       104.1318 
 547   0.0000       3.834718       104.3480 
 548   0.0000       3.841114       104.5220 
 549   0.0000       3.845700       104.6468 
 550   0.0000       3.858045       104.9827 
 551   0.0000       3.867590       105.2425 
 552   0.0000       3.875654       105.4619 
 553   0.0000       3.880203       105.5857 
 554   0.0000       3.889468       105.8378 
 555   0.0000       3.897719       106.0623 
 556   0.0000       3.906028       106.2884 
 557   0.0000       3.917269       106.5943 
 558   0.0000       3.931837       106.9907 
 559   0.0000       3.933925       107.0475 
 560   0.0000       3.948577       107.4462 
 561   0.0000       3.957297       107.6835 
 562   0.0000       3.959873       107.7536 
 563   0.0000       3.977610       108.2363 
 564   0.0000       3.984041       108.4113 
 565   0.0000       3.992040       108.6289 
 566   0.0000       3.994318       108.6909 
 567   0.0000       4.001000       108.8727 
 568   0.0000       4.010743       109.1379 
 569   0.0000       4.018601       109.3517 
 570   0.0000       4.024765       109.5194 
 571   0.0000       4.041211       109.9669 
 572   0.0000       4.057721       110.4162 
 573   0.0000       4.063235       110.5663 
 574   0.0000       4.067167       110.6732 
 575   0.0000       4.077804       110.9627 
 576   0.0000       4.080768       111.0433 
 577   0.0000       4.082976       111.1034 
 578   0.0000       4.097696       111.5040 
 579   0.0000       4.104620       111.6924 
 580   0.0000       4.122655       112.1831 
 581   0.0000       4.131755       112.4308 
 582   0.0000       4.135741       112.5392 
 583   0.0000       4.138531       112.6151 
 584   0.0000       4.144587       112.7799 
 585   0.0000       4.157513       113.1317 
 586   0.0000       4.161461       113.2391 
 587   0.0000       4.166797       113.3843 
 588   0.0000       4.170138       113.4752 
 589   0.0000       4.177252       113.6688 
 590   0.0000       4.185392       113.8903 
 591   0.0000       4.192185       114.0752 
 592   0.0000       4.196833       114.2016 
 593   0.0000       4.203015       114.3698 
 594   0.0000       4.210473       114.5728 
 595   0.0000       4.216039       114.7242 
 596   0.0000       4.226644       115.0128 
 597   0.0000       4.230626       115.1212 
 598   0.0000       4.239684       115.3677 
 599   0.0000       4.243180       115.4628 
 600   0.0000       4.258365       115.8760 
 601   0.0000       4.269401       116.1763 
 602   0.0000       4.270608       116.2092 
 603   0.0000       4.282634       116.5364 
 604   0.0000       4.294141       116.8495 
 605   0.0000       4.300052       117.0104 
 606   0.0000       4.314127       117.3934 
 607   0.0000       4.317511       117.4854 
 608   0.0000       4.321923       117.6055 
 609   0.0000       4.333097       117.9096 
 610   0.0000       4.336276       117.9961 
 611   0.0000       4.348693       118.3340 
 612   0.0000       4.352372       118.4341 
 613   0.0000       4.363034       118.7242 
 614   0.0000       4.366506       118.8187 
 615   0.0000       4.380984       119.2126 
 616   0.0000       4.382850       119.2634 
 617   0.0000       4.387884       119.4004 
 618   0.0000       4.397665       119.6666 
 619   0.0000       4.411866       120.0530 
 620   0.0000       4.419396       120.2579 
 621   0.0000       4.425914       120.4352 
 622   0.0000       4.436190       120.7149 
 623   0.0000       4.451509       121.1317 
 624   0.0000       4.457155       121.2854 
 625   0.0000       4.467617       121.5700 
 626   0.0000       4.472292       121.6973 
 627   0.0000       4.476531       121.8126 
 628   0.0000       4.496373       122.3525 
 629   0.0000       4.501139       122.4822 
 630   0.0000       4.506304       122.6228 
 631   0.0000       4.512684       122.7964 
 632   0.0000       4.518718       122.9606 
 633   0.0000       4.535432       123.4154 
 634   0.0000       4.539787       123.5339 
 635   0.0000       4.548466       123.7700 
 636   0.0000       4.562424       124.1499 
 637   0.0000       4.569205       124.3344 
 638   0.0000       4.577495       124.5600 
 639   0.0000       4.586888       124.8156 
 640   0.0000       4.592712       124.9740 
 641   0.0000       4.598196       125.1233 
 642   0.0000       4.608433       125.4018 
 643   0.0000       4.615167       125.5851 
 644   0.0000       4.622213       125.7768 
 645   0.0000       4.631139       126.0197 
 646   0.0000       4.636869       126.1756 
 647   0.0000       4.645254       126.4038 
 648   0.0000       4.646960       126.4502 
 649   0.0000       4.652443       126.5994 
 650   0.0000       4.665392       126.9518 
 651   0.0000       4.670664       127.0952 
 652   0.0000       4.679971       127.3485 
 653   0.0000       4.693786       127.7244 
 654   0.0000       4.694608       127.7468 
 655   0.0000       4.705231       128.0359 
 656   0.0000       4.713467       128.2600 
 657   0.0000       4.736814       128.8953 
 658   0.0000       4.741531       129.0236 
 659   0.0000       4.755597       129.4064 
 660   0.0000       4.763336       129.6170 
 661   0.0000       4.770465       129.8110 
 662   0.0000       4.782070       130.1268 
 663   0.0000       4.793214       130.4300 
 664   0.0000       4.812526       130.9555 
 665   0.0000       4.820226       131.1650 
 666   0.0000       4.854597       132.1003 
 667   0.0000       4.863671       132.3472 
 668   0.0000       4.875801       132.6773 
 669   0.0000       4.899572       133.3241 
 670   0.0000       4.921335       133.9163 
 671   0.0000       4.938684       134.3884 
 672   0.0000       4.949366       134.6791 
 673   0.0000       4.962650       135.0406 
 674   0.0000       4.977634       135.4483 
 675   0.0000       4.991121       135.8153 
 676   0.0000       5.001336       136.0933 
 677   0.0000       5.016373       136.5024 
 678   0.0000       5.025569       136.7527 
 679   0.0000       5.044738       137.2743 
 680   0.0000       5.053557       137.5143 
 681   0.0000       5.069670       137.9527 
 682   0.0000       5.077403       138.1632 
 683   0.0000       5.083841       138.3384 
 684   0.0000       5.106903       138.9659 
 685   0.0000       5.122391       139.3873 
 686   0.0000       5.128846       139.5630 
 687   0.0000       5.135521       139.7446 
 688   0.0000       5.153711       140.2396 
 689   0.0000       5.159760       140.4042 
 690   0.0000       5.174546       140.8066 
 691   0.0000       5.183781       141.0578 
 692   0.0000       5.192043       141.2827 
 693   0.0000       5.195716       141.3826 
 694   0.0000       5.208016       141.7173 
 695   0.0000       5.214096       141.8828 
 696   0.0000       5.218290       141.9969 
 697   0.0000       5.234415       142.4357 
 698   0.0000       5.236358       142.4886 
 699   0.0000       5.238539       142.5479 
 700   0.0000       5.267551       143.3374 
 701   0.0000       5.278038       143.6227 
 702   0.0000       5.286721       143.8590 
 703   0.0000       5.311055       144.5212 
 704   0.0000       5.317493       144.6963 
 705   0.0000       5.328740       145.0024 
 706   0.0000       5.341946       145.3617 
 707   0.0000       5.354442       145.7018 
 708   0.0000       5.374983       146.2607 
 709   0.0000       5.379729       146.3899 
 710   0.0000       5.388533       146.6294 
 711   0.0000       5.415397       147.3604 
 712   0.0000       5.427624       147.6931 
 713   0.0000       5.458676       148.5381 
 714   0.0000       5.461545       148.6162 
 715   0.0000       5.471701       148.8926 
 716   0.0000       5.486157       149.2859 
 717   0.0000       5.497222       149.5870 
 718   0.0000       5.515772       150.0918 
 719   0.0000       5.522093       150.2638 
 720   0.0000       5.531176       150.5110 
 721   0.0000       5.543299       150.8408 
 722   0.0000       5.560835       151.3180 
 723   0.0000       5.567974       151.5123 
 724   0.0000       5.587961       152.0561 
 725   0.0000       5.600368       152.3937 
 726   0.0000       5.613203       152.7430 
 727   0.0000       5.621656       152.9730 
 728   0.0000       5.639828       153.4675 
 729   0.0000       5.653210       153.8317 
 730   0.0000       5.667069       154.2088 
 731   0.0000       5.673673       154.3885 
 732   0.0000       5.678600       154.5226 
 733   0.0000       5.696418       155.0074 
 734   0.0000       5.703329       155.1955 
 735   0.0000       5.718771       155.6157 
 736   0.0000       5.725486       155.7984 
 737   0.0000       5.738487       156.1522 
 738   0.0000       5.751382       156.5031 
 739   0.0000       5.755818       156.6238 
 740   0.0000       5.763371       156.8293 
 741   0.0000       5.783651       157.3811 
 742   0.0000       5.803579       157.9234 
 743   0.0000       5.807102       158.0193 
 744   0.0000       5.823778       158.4731 
 745   0.0000       5.855314       159.3312 
 746   0.0000       5.864791       159.5891 
 747   0.0000       5.878723       159.9682 
 748   0.0000       5.902848       160.6247 
 749   0.0000       5.939147       161.6124 
 750   0.0000       5.949282       161.8882 
 751   0.0000       5.968906       162.4222 
 752   0.0000       5.977371       162.6525 
 753   0.0000       5.996235       163.1658 
 754   0.0000       6.014455       163.6616 
 755   0.0000       6.020145       163.8165 
 756   0.0000       6.051758       164.6767 
 757   0.0000       6.058067       164.8484 
 758   0.0000       6.088792       165.6845 
 759   0.0000       6.099795       165.9839 
 760   0.0000       6.115692       166.4164 
 761   0.0000       6.150976       167.3766 
 762   0.0000       6.218771       169.2214 
 763   0.0000       6.240612       169.8157 
 764   0.0000       6.250715       170.0906 
 765   0.0000       6.267572       170.5493 
 766   0.0000       6.304062       171.5422 
 767   0.0000       6.324979       172.1114 
 768   0.0000       6.338274       172.4732 
 769   0.0000       6.346281       172.6911 
 770   0.0000       6.370471       173.3493 
 771   0.0000       6.388043       173.8275 
 772   0.0000       6.406525       174.3304 
 773   0.0000       6.439187       175.2192 
 774   0.0000       6.456085       175.6790 
 775   0.0000       6.465488       175.9349 
 776   0.0000       6.495713       176.7573 
 777   0.0000       6.547877       178.1768 
 778   0.0000       6.585291       179.1949 
 779   0.0000       6.613033       179.9498 
 780   0.0000       6.654448       181.0767 
 781   0.0000       6.668433       181.4573 
 782   0.0000       6.760417       183.9603 
 783   0.0000       6.779655       184.4838 
 784   0.0000       6.807955       185.2539 
 785   0.0000       6.858165       186.6201 
 786   0.0000       6.903339       187.8494 
 787   0.0000       6.919657       188.2934 
 788   0.0000       6.948555       189.0798 
 789   0.0000       7.007348       190.6796 
 790   0.0000       7.045889       191.7284 
 791   0.0000       7.065227       192.2546 
 792   0.0000       7.077980       192.6016 
 793   0.0000       7.118639       193.7080 
 794   0.0000       7.233825       196.8424 
 795   0.0000       7.254818       197.4136 
 796   0.0000       7.278155       198.0487 
 797   0.0000       7.281549       198.1410 
 798   0.0000       7.339547       199.7192 
 799   0.0000       7.358580       200.2371 
 800   0.0000       7.391893       201.1436 
 801   0.0000       7.534804       205.0324 
 802   0.0000       7.580310       206.2707 
 803   0.0000       7.586881       206.4495 
 804   0.0000       7.670666       208.7294 
 805   0.0000       7.781459       211.7443 
 806   0.0000       7.815001       212.6570 
 807   0.0000       7.930690       215.8050 
 808   0.0000       7.952590       216.4010 
 809   0.0000       9.499741       258.5011 
 810   0.0000       9.613586       261.5990 
 811   0.0000      10.791857       293.6614 
 812   0.0000      11.301407       307.5269 
 813   0.0000      11.941486       324.9443 
 814   0.0000      12.720077       346.1309 
 815   0.0000      12.967727       352.8698 
 816   0.0000      13.081972       355.9785 
 817   0.0000      13.206366       359.3635 
 818   0.0000      13.389278       364.3408 
 819   0.0000      13.454526       366.1163 
 820   0.0000      13.511882       367.6770 
 821   0.0000      13.746258       374.0547 
 822   0.0000      13.956819       379.7843 
 823   0.0000      13.992910       380.7664 
 824   0.0000      14.043266       382.1367 
 825   0.0000      14.513719       394.9384 
 826   0.0000      14.604325       397.4039 
 827   0.0000      15.970344       434.5751 

                    ********************************
                    * MULLIKEN POPULATION ANALYSIS *
                    ********************************

-----------------------
MULLIKEN ATOMIC CHARGES
-----------------------
   0 C :   -0.286736
   1 C :    0.032569
   2 O :   -0.358774
   3 C :    0.415705
   4 O :   -0.371137
   5 C :   -0.223869
   6 C :    0.156900
   7 C :   -0.281087
   8 N :   -0.125904
   9 C :    0.196545
  10 S :   -0.433170
  11 N :   -0.189478
  12 C :    0.032890
  13 C :    0.033085
  14 C :   -0.172778
  15 C :   -0.135886
  16 C :   -0.272606
  17 C :    0.301387
  18 O :   -0.354553
  19 C :   -0.251340
  20 H :    0.081181
  21 H :    0.102853
  22 H :    0.115016
  23 H :    0.104606
  24 H :    0.118980
  25 H :    0.122495
  26 H :    0.143102
  27 H :    0.095185
  28 H :    0.198085
  29 H :    0.190899
  30 H :    0.151279
  31 H :    0.151701
  32 H :    0.164521
  33 H :    0.134799
  34 H :    0.241498
  35 H :    0.172038
Sum of atomic charges:   -0.0000000

--------------------------------
MULLIKEN REDUCED ORBITAL CHARGES
--------------------------------
  0 C s       :     3.260011  s :     3.260011
      pz      :     1.004746  p :     2.947934
      px      :     0.957845
      py      :     0.985342
      dz2     :     0.022819  d :     0.074384
      dxz     :     0.014659
      dyz     :     0.007570
      dx2y2   :     0.018806
      dxy     :     0.010530
      f0      :     0.000901  f :     0.004408
      f+1     :     0.000436
      f-1     :     0.000524
      f+2     :     0.000596
      f-2     :     0.000524
      f+3     :     0.000344
      f-3     :     0.001083
  1 C s       :     3.170462  s :     3.170462
      pz      :     0.923353  p :     2.628379
      px      :     0.681960
      py      :     1.023066
      dz2     :     0.035343  d :     0.156945
      dxz     :     0.033858
      dyz     :     0.016563
      dx2y2   :     0.045930
      dxy     :     0.025252
      f0      :     0.001045  f :     0.011645
      f+1     :     0.002779
      f-1     :     0.000946
      f+2     :     0.001819
      f-2     :     0.001648
      f+3     :     0.001599
      f-3     :     0.001810
  2 O s       :     3.720044  s :     3.720044
      pz      :     1.747920  p :     4.603689
      px      :     1.467737
      py      :     1.388031
      dz2     :     0.005190  d :     0.032739
      dxz     :     0.005661
      dyz     :     0.003476
      dx2y2   :     0.013005
      dxy     :     0.005406
      f0      :     0.000335  f :     0.002302
      f+1     :     0.000229
      f-1     :     0.000340
      f+2     :     0.000368
      f-2     :     0.000252
[...]
 15 C s       :     2.705810  s :     2.705810
      pz      :     0.902472  p :     2.792845
      px      :     0.921239
      py      :     0.969134
      dz2     :     0.097652  d :     0.416776
      dxz     :     0.068133
      dyz     :     0.061657
      dx2y2   :     0.107101
      dxy     :     0.082233
      f0      :     0.003278  f :     0.041102
      f+1     :     0.005312
      f-1     :     0.006469
      f+2     :     0.007139
      f-2     :     0.006491
      f+3     :     0.006350
      f-3     :     0.006061
 16 C s       :     2.701711  s :     2.701711
      pz      :     0.939159  p :     2.867703
      px      :     0.955418
      py      :     0.973126
      dz2     :     0.047322  d :     0.390115
      dxz     :     0.054337
      dyz     :     0.092725
      dx2y2   :     0.091539
      dxy     :     0.104192
      f0      :     0.004641  f :     0.040285
      f+1     :     0.004605
      f-1     :     0.003881
      f+2     :     0.006164
      f-2     :     0.005453
      f+3     :     0.008523
      f-3     :     0.007018
 17 C s       :     2.701433  s :     2.701433
      pz      :     0.841243  p :     2.680685
      px      :     0.819036
      py      :     1.020406
      dz2     :     0.132135  d :     0.710110
      dxz     :     0.105669
      dyz     :     0.147551
      dx2y2   :     0.160602
      dxy     :     0.164152
      f0      :     0.010477  f :     0.099360
      f+1     :     0.015435
      f-1     :     0.010094
      f+2     :     0.016275
      f-2     :     0.015162
      f+3     :     0.016021
      f-3     :     0.015897
 18 O s       :     3.177086  s :     3.177086
      pz      :     1.413527  p :     4.345039
      px      :     1.433538
      py      :     1.497973
      dz2     :     0.008861  d :     0.075464
      dxz     :     0.017394
      dyz     :     0.019509
      dx2y2   :     0.014760
      dxy     :     0.014941
      f0      :     0.000624  f :     0.005056
      f+1     :     0.000716
      f-1     :     0.000420
      f+2     :     0.000794
      f-2     :     0.001023
      f+3     :     0.000661
      f-3     :     0.000817
 19 C s       :     2.695389  s :     2.695389
      pz      :     0.934759  p :     2.845812
      px      :     0.944790
      py      :     0.966263
      dz2     :     0.078181  d :     0.387621
      dxz     :     0.066949
      dyz     :     0.065060
      dx2y2   :     0.093013
      dxy     :     0.084417
      f0      :     0.003323  f :     0.040770
      f+1     :     0.005539
      f-1     :     0.005930
      f+2     :     0.007132
      f-2     :     0.007061
      f+3     :     0.006234
      f-3     :     0.005551
 20 H s       :     0.852849  s :     0.852849
      pz      :     0.040015  p :     0.153397
      px      :     0.039478
      py      :     0.073903
      dz2     :     0.002425  d :     0.027721
      dxz     :     0.000054
      dyz     :     0.009213
      dx2y2   :     0.006812
      dxy     :     0.009217
 21 H s       :     0.846422  s :     0.846422
      pz      :     0.043979  p :     0.151518
      px      :     0.064849
      py      :     0.042691
      dz2     :     0.004502  d :     0.027468
      dxz     :     0.007085
      dyz     :     0.001638
      dx2y2   :     0.007442
      dxy     :     0.006802
 22 H s       :     0.843629  s :     0.843629
      pz      :     0.071883  p :     0.150256
      px      :     0.037222
      py      :     0.041151
      dz2     :     0.009346  d :     0.027535
      dxz     :     0.008563
      dyz     :     0.007986
      dx2y2   :     0.001178
      dxy     :     0.000462
 23 H s       :     0.847698  s :     0.847698
      pz      :     0.085026  p :     0.163680
      px      :     0.031645
      py      :     0.047009
      dz2     :     0.010334  d :     0.028155
      dxz     :     0.007115
      dyz     :     0.008097
      dx2y2   :     0.001914
      dxy     :     0.000695
 24 H s       :     0.850824  s :     0.850824
      pz      :     0.037665  p :     0.143339
      px      :     0.026688
      py      :     0.078985
      dz2     :     0.002525  d :     0.026829
      dxz     :     0.000228
      dyz     :     0.009388
      dx2y2   :     0.007726
      dxy     :     0.006962
 25 H s       :     0.833044  s :     0.833044
      pz      :     0.044714  p :     0.150803
      px      :     0.054307
      py      :     0.051782
      dz2     :     0.003944  d :     0.027803
      dxz     :     0.005575
      dyz     :     0.004648
      dx2y2   :     0.007302
      dxy     :     0.006334
 26 H s       :     0.823373  s :     0.823373
      pz      :     0.058964  p :     0.151626
      px      :     0.052120
      py      :     0.040542
      dz2     :     0.007649  d :     0.027658
      dxz     :     0.006770
      dyz     :     0.005456
      dx2y2   :     0.003158
      dxy     :     0.004625
 27 H s       :     0.843591  s :     0.843591
      pz      :     0.039432  p :     0.150498
      px      :     0.048036
      py      :     0.063029
      dz2     :     0.003216  d :     0.027665
      dxz     :     0.003159
      dyz     :     0.006168
      dx2y2   :     0.007786
      dxy     :     0.007336
 28 H s       :     0.742348  s :     0.742348
      pz      :     0.057109  p :     0.253340
      px      :     0.078997
      py      :     0.117235
      dz2     :     0.005562  d :     0.061717
      dxz     :     0.002629
      dyz     :     0.016304
      dx2y2   :     0.018301
      dxy     :     0.018920
 29 H s       :     0.749080  s :     0.749080
      pz      :     0.108894  p :     0.254153
      px      :     0.099905
      py      :     0.045355
      dz2     :     0.019290  d :     0.061379
      dxz     :     0.014960
      dyz     :     0.009466
      dx2y2   :     0.010379
      dxy     :     0.007283
 30 H s       :     0.831237  s :     0.831237
      pz      :     0.041632  p :     0.146640
      px      :     0.062373
      py      :     0.042635
      dz2     :     0.003704  d :     0.028463
      dxz     :     0.007123
      dyz     :     0.003715
      dx2y2   :     0.006739
      dxy     :     0.007183
 31 H s       :     0.843117  s :     0.843117
      pz      :     0.056266  p :     0.157498
      px      :     0.064144
      py      :     0.037088
      dz2     :     0.005601  d :     0.027491
      dxz     :     0.006795
      dyz     :     0.003854
      dx2y2   :     0.005557
      dxy     :     0.005683
 32 H s       :     0.841700  s :     0.841700
      pz      :     0.036397  p :     0.150924
      px      :     0.039063
      py      :     0.075463
      dz2     :     0.002619  d :     0.026406
      dxz     :     0.000671
      dyz     :     0.007326
      dx2y2   :     0.007838
      dxy     :     0.007952
 33 H s       :     0.847478  s :     0.847478
      pz      :     0.057387  p :     0.158653
      px      :     0.049025
      py      :     0.052241
      dz2     :     0.006118  d :     0.027711
      dxz     :     0.004735
      dyz     :     0.006106
      dx2y2   :     0.005599
      dxy     :     0.005153
 34 H s       :     0.705708  s :     0.705708
      pz      :     0.112130  p :     0.347325
      px      :     0.087225
      py      :     0.147970
      dz2     :     0.023387  d :     0.099417
      dxz     :     0.011885
      dyz     :     0.024284
      dx2y2   :     0.019923
      dxy     :     0.019938
 35 H s       :     0.837275  s :     0.837275
      pz      :     0.039656  p :     0.157416
      px      :     0.041257
      py      :     0.076503
      dz2     :     0.002606  d :     0.028007
      dxz     :     0.000757
      dyz     :     0.008070
      dx2y2   :     0.008070
      dxy     :     0.008504


                      *****************************
                      * MAYER POPULATION ANALYSIS *
                      *****************************

  NA   - Mulliken gross atomic population
  ZA   - Total nuclear charge
  QA   - Mulliken gross atomic charge
  VA   - Mayer's total valence
  BVA  - Mayer's bonded valence
  FA   - Mayer's free valence

  ATOM       NA         ZA         QA         VA         BVA        FA
  0 C      6.2867     6.0000    -0.2867     3.8971     3.8971    -0.0000
  1 C      5.9674     6.0000     0.0326     3.8489     3.8489    -0.0000
  2 O      8.3588     8.0000    -0.3588     2.0004     2.0004     0.0000
  3 C      5.5843     6.0000     0.4157     4.2574     4.2574    -0.0000
  4 O      8.3711     8.0000    -0.3711     2.1228     2.1228     0.0000
  5 C      6.2239     6.0000    -0.2239     3.5708     3.5708    -0.0000
  6 C      5.8431     6.0000     0.1569     3.8771     3.8771     0.0000
  7 C      6.2811     6.0000    -0.2811     3.9029     3.9029    -0.0000
  8 N      7.1259     7.0000    -0.1259     3.2847     3.2847    -0.0000
  9 C      5.8035     6.0000     0.1965     4.1565     4.1565    -0.0000
 10 S     16.4332    16.0000    -0.4332     1.7656     1.7656    -0.0000
 11 N      7.1895     7.0000    -0.1895     3.2502     3.2502    -0.0000
 12 C      5.9671     6.0000     0.0329     3.9725     3.9725    -0.0000
 13 C      5.9669     6.0000     0.0331     3.7319     3.7319     0.0000
 14 C      6.1728     6.0000    -0.1728     3.8527     3.8527    -0.0000
 15 C      6.1359     6.0000    -0.1359     3.8052     3.8052    -0.0000
 16 C      6.2726     6.0000    -0.2726     3.7886     3.7886    -0.0000
 17 C      5.6986     6.0000     0.3014     3.8906     3.8906     0.0000
 18 O      8.3546     8.0000    -0.3546     2.1216     2.1216     0.0000
 19 C      6.2513     6.0000    -0.2513     3.8268     3.8268     0.0000
 20 H      0.9188     1.0000     0.0812     0.9784     0.9784     0.0000
 21 H      0.8971     1.0000     0.1029     0.9818     0.9818    -0.0000
 22 H      0.8850     1.0000     0.1150     0.9847     0.9847     0.0000
 23 H      0.8954     1.0000     0.1046     0.9601     0.9601    -0.0000
 24 H      0.8810     1.0000     0.1190     0.9782     0.9782     0.0000
 25 H      0.8775     1.0000     0.1225     0.9801     0.9801    -0.0000
 26 H      0.8569     1.0000     0.1431     0.9762     0.9762     0.0000
 27 H      0.9048     1.0000     0.0952     0.9845     0.9845    -0.0000
 28 H      0.8019     1.0000     0.1981     1.0213     1.0213     0.0000
 29 H      0.8091     1.0000     0.1909     1.0209     1.0209     0.0000
 30 H      0.8487     1.0000     0.1513     0.9884     0.9884    -0.0000
 31 H      0.8483     1.0000     0.1517     0.9878     0.9878    -0.0000
 32 H      0.8355     1.0000     0.1645     0.9762     0.9762    -0.0000
 33 H      0.8652     1.0000     0.1348     0.9901     0.9901    -0.0000
 34 H      0.7585     1.0000     0.2415     1.0103     1.0103    -0.0000
 35 H      0.8280     1.0000     0.1720     0.9873     0.9873     0.0000

  Mayer bond orders larger than 0.100000
B(  0-C ,  1-C ) :   0.9774 B(  0-C , 20-H ) :   0.9758 B(  0-C , 21-H ) :   0.9774 
B(  0-C , 22-H ) :   0.9761 B(  1-C ,  2-O ) :   0.8859 B(  1-C , 23-H ) :   0.9595 
B(  1-C , 24-H ) :   0.9806 B(  2-O ,  3-C ) :   1.1409 B(  3-C ,  4-O ) :   2.0919 
B(  3-C ,  5-C ) :   0.9653 B(  5-C ,  6-C ) :   1.6874 B(  5-C , 12-C ) :   0.9625 
B(  6-C ,  7-C ) :   0.9629 B(  6-C ,  8-N ) :   1.1347 B(  7-C , 25-H ) :   0.9718 
B(  7-C , 26-H ) :   0.9558 B(  7-C , 27-H ) :   0.9847 B(  8-N ,  9-C ) :   1.1835 
B(  8-N , 28-H ) :   0.9499 B(  9-C , 10-S ) :   1.6214 B(  9-C , 11-N ) :   1.2895 
B( 11-N , 12-C ) :   0.9952 B( 11-N , 29-H ) :   0.9531 B( 12-C , 13-C ) :   0.9444 
B( 12-C , 30-H ) :   1.0091 B( 13-C , 14-C ) :   1.3727 B( 13-C , 19-C ) :   1.3631 
B( 14-C , 15-C ) :   1.3859 B( 14-C , 31-H ) :   0.9700 B( 15-C , 16-C ) :   1.3687 
B( 15-C , 32-H ) :   0.9697 B( 16-C , 17-C ) :   1.3270 B( 16-C , 33-H ) :   0.9830 
B( 17-C , 18-O ) :   1.1159 B( 17-C , 19-C ) :   1.3750 B( 18-O , 34-H ) :   0.9790 
B( 19-C , 35-H ) :   0.9571 

-------
TIMINGS
-------

Total SCF time: 0 days 2 hours 8 min 42 sec 

Total time                  ....    7722.384 sec
Sum of individual times     ....    7713.847 sec  ( 99.9%)

Fock matrix formation       ....    7691.743 sec  ( 99.6%)
Diagonalization             ....       1.663 sec  (  0.0%)
Density matrix formation    ....       0.182 sec  (  0.0%)
Population analysis         ....       0.341 sec  (  0.0%)
Initial guess               ....       7.649 sec  (  0.1%)
Orbital Transformation      ....       0.000 sec  (  0.0%)
Orbital Orthonormalization  ....       0.000 sec  (  0.0%)
DIIS solution               ....       7.031 sec  (  0.1%)
SOSCF solution              ....       3.480 sec  (  0.0%)

Maximum memory used throughout the entire SCF-calculation: 754.6 MB

------------------------------------------------------------------------------
                                ORCA  MP2 
------------------------------------------------------------------------------

Freezing NCore=48 chemical core electrons

-------------
RI-MP2 ENERGY
-------------
Dimension of the basis                    ...  828
Memory devoted to MP2                     ...  256 MB   
Data format for buffers                   ... DOUBLE
Compression type for matrix containers    ... UNCOMPRESSED
Overall scaling of the MP2 energy         ...   1.000e+00
Calculating two index integrals           ... done (    0.033 sec)
Cholesky decomposition of V**-1           ... done (    0.491 sec)

-----------------
RI-TRANSFORMATION (AUX index driven)
-----------------

Dimension of the orbital-basis         ... 828
Dimension of the aux-basis             ... 2141
Transformation of internal/external MOs...   24-  76 to   77- 827
Number Format for Storage              ... Double (8 Byte)
Integral mode                          ... Direct

First Phase: integral generation and transformation of MO indices
  Aux angular momentum 0               ... done (    4.017 sec)
  Aux angular momentum 1               ... done (    6.345 sec)
  Aux angular momentum 2               ... done (    9.994 sec)
  Aux angular momentum 3               ... done (    6.183 sec)
  Aux angular momentum 4               ... done (    2.179 sec)
Closing buffer VIA ( 0.63 GB; CompressionRatio= 1.00)
  Phase 1 completed in    29.037 sec
Second Phase: sorting and transformation of aux index

IA-Transformation
Memory available                       ... 157 MB 
Max. # MO pairs treated in a batch     ... 11    
# of internal orbitals                 ... 53
# batches for internal orbitals        ... 5
Closing buffer IAV ( 0.63 GB; CompressionRatio= 1.00)
(ia|v) transformation done in    26.832 sec

  Phase 2 completed in    26.843 sec
RI-Integral transformation completed in    55.939 sec
Opening buffers                              ... done

Starting loop over batches of integrals:

Operator 0  - window                       ... ( 24- 76)x( 77-827)
Operator 0  - Memory available             ...   256 MB
Operator 0  - Memory needed per MO         ...  12.3 MB
Operator 0  - Number of orbitals per batch ... 13
Operator 0  - Number of batches            ... 5

OPERATOR  0   PASS   0:  MOs    24 ...   36
  Reading integrals       ... ok
  Internal MO  26
  Internal MO  29
  Internal MO  32
  Internal MO  35
OPERATOR  0   PASS   1:  MOs    37 ...   49
  Reading integrals       ... ok
  Internal MO  38
  Internal MO  41
  Internal MO  44
  Internal MO  47
OPERATOR  0   PASS   2:  MOs    50 ...   62
  Reading integrals       ... ok
  Internal MO  50
  Internal MO  53
  Internal MO  56
  Internal MO  59
  Internal MO  62
OPERATOR  0   PASS   3:  MOs    63 ...   75
  Reading integrals       ... ok
  Internal MO  65
  Internal MO  68
  Internal MO  71
  Internal MO  74
OPERATOR  0   PASS   4:  MOs    76 ...   76
  Reading integrals       ... ok
Time spent in pair loops =   101.764 sec
Deleting buffer (Ka|jb)[aa] ...done

-----------------------------------------------
 RI-MP2 CORRELATION ENERGY:     -3.537826534 Eh
-----------------------------------------------


-------
TIMINGS
-------

Total time                :  158.309 sec
Integral trafo            :   55.951 sec ( 35.3%)
I/O of integrals          :    4.103 sec (  2.6%)
K(i,j) Operators          :   77.923 sec ( 49.2%)
T(i,j) pair energies      :    2.829 sec (  1.8%)
V-calculation             :    0.033 sec (  0.0%)
V**(-1/2)                 :    0.491 sec (  0.3%)
Gamma(ia|P)               :    0.000 sec (  0.0%)
Gamma-Trafo               :    0.000 sec (  0.0%)
D(virtual)                :    0.000 sec (  0.0%)
D(internal)               :    0.000 sec (  0.0%)
W(virtual)                :    0.000 sec (  0.0%)
W(internal)               :    0.000 sec (  0.0%)
L(virtual)                :    0.000 sec (  0.0%)
L(internal)               :    0.000 sec (  0.0%)
G(D)                      :    0.000 sec (  0.0%)
G(Z)                      :    0.000 sec (  0.0%)
Z-Vector Solution         :    0.000 sec (  0.0%)
3-Index Derivative        :    0.000 sec (  0.0%)
2-Index Derivative        :    0.000 sec (  0.0%)
Separable Gradient        :    0.000 sec (  0.0%)


---------------------------------------
MP2 TOTAL ENERGY:    -1274.325995425 Eh
---------------------------------------

Maximum memory used throughout the entire MP2-calculation: 305.5 MB

-------------------------   --------------------
FINAL SINGLE POINT ENERGY     -1274.325995425435
-------------------------   --------------------


                            ***************************************
                            *     ORCA property calculations      *
                            ***************************************


  WARNING: The energy has been calculated at the MP2 level but the densities
           used in the property calculations are still SCF densities
           MP2 response densities have not been calculated 
           use %mp2 Density relaxed end
           or  %mp2 Density unrelaxed end

                                    ---------------------
                                    Active property flags
                                    ---------------------
   (+) Dipole Moment


------------------------------------------------------------------------------
                       ORCA ELECTRIC PROPERTIES CALCULATION
------------------------------------------------------------------------------

Dipole Moment Calculation                       ... on
Quadrupole Moment Calculation                   ... off
Polarizability Calculation                      ... off
GBWName                                         ... CONFS/Conf640.orca.gbw
Electron density file                           ... CONFS/Conf640.orca.scfp
The origin for moment calculation is the CENTER OF MASS  = (32.869848, 31.378108 35.248672)

-------------
DIPOLE MOMENT
-------------
                                X             Y             Z
Electronic contribution:     10.69212       7.28444       7.13882
Nuclear contribution   :    -11.97539      -8.90279      -6.77709
                        -----------------------------------------
Total Dipole Moment    :     -1.28327      -1.61834       0.36172
                        -----------------------------------------
Magnitude (a.u.)       :      2.09682
Magnitude (Debye)      :      5.32970



--------------------
Rotational spectrum 
--------------------
 
Rotational constants in cm-1:     0.011260     0.009904     0.006483 
Rotational constants in MHz :   337.578234   296.902754   194.357610 

 Dipole components along the rotational axes: 
x,y,z [a.u.] :    -2.004657    -0.017139     0.614596 
x,y,z [Debye]:    -5.095432    -0.043563     1.562179 

 

Timings for individual modules:

Sum of individual times         ...     7890.933 sec (= 131.516 min)
GTO integral calculation        ...        3.842 sec (=   0.064 min)   0.0 %
SCF iterations                  ...     7722.654 sec (= 128.711 min)  97.9 %
MP2 module                      ...      164.438 sec (=   2.741 min)   2.1 %
                             ****ORCA TERMINATED NORMALLY****
TOTAL RUN TIME: 0 days 2 hours 11 minutes 31 seconds 963 msec
