
                                        *****************
                                        * O   R   C   A *
                                        *****************

                                            #,                                       
                                            ###                                      
                                            ####                                     
                                            #####                                    
                                            ######                                   
                                           ########,                                 
                                     ,,################,,,,,                         
                               ,,#################################,,                 
                          ,,##########################################,,             
                       ,#########################################, ''#####,          
                    ,#############################################,,   '####,        
                  ,##################################################,,,,####,       
                ,###########''''           ''''###############################       
              ,#####''   ,,,,##########,,,,          '''####'''          '####       
            ,##' ,,,,###########################,,,                        '##       
           ' ,,###''''                  '''############,,,                           
         ,,##''                                '''############,,,,        ,,,,,,###''
      ,#''                                            '''#######################'''  
     '                                                          ''''####''''         
             ,#######,   #######,   ,#######,      ##                                
            ,#'     '#,  ##    ##  ,#'     '#,    #''#        ######   ,####,        
            ##       ##  ##   ,#'  ##            #'  '#       #        #'  '#        
            ##       ##  #######   ##           ,######,      #####,   #    #        
            '#,     ,#'  ##    ##  '#,     ,#' ,#      #,         ##   #,  ,#        
             '#######'   ##     ##  '#######'  #'      '#     #####' # '####'        



                  #######################################################
                  #                        -***-                        #
                  #          Department of theory and spectroscopy      #
                  #    Directorship and core code : Frank Neese         #
                  #        Max Planck Institute fuer Kohlenforschung    #
                  #                Kaiser Wilhelm Platz 1               #
                  #                 D-45470 Muelheim/Ruhr               #
                  #                      Germany                        #
                  #                                                     #
                  #                  All rights reserved                #
                  #                        -***-                        #
                  #######################################################


                         Program Version 5.0.0 -  RELEASE  -
                                (SVN: $Rev: 19529$)
                ($Date: 2021-06-28 11:36:33 +0200 (Mo, 28 Jun 2021) $)


 With contributions from (in alphabetic order):
   Daniel Aravena         : Magnetic Suceptibility
   Michael Atanasov       : Ab Initio Ligand Field Theory (pilot matlab implementation)
   Alexander A. Auer      : GIAO ZORA, VPT2 properties, NMR spectrum
   Ute Becker             : Parallelization
   Giovanni Bistoni       : ED, misc. LED, open-shell LED, HFLD
   Martin Brehm           : Molecular dynamics
   Dmytro Bykov           : SCF Hessian
   Vijay G. Chilkuri      : MRCI spin determinant printing, contributions to CSF-ICE
   Dipayan Datta          : RHF DLPNO-CCSD density
   Achintya Kumar Dutta   : EOM-CC, STEOM-CC
   Dmitry Ganyushin       : Spin-Orbit,Spin-Spin,Magnetic field MRCI
   Miquel Garcia          : C-PCM Hessian, Gaussian charge scheme
   Yang Guo               : DLPNO-NEVPT2, F12-NEVPT2, CIM, IAO-localization
   Andreas Hansen         : Spin unrestricted coupled pair/coupled cluster methods
   Benjamin Helmich-Paris : MC-RPA, TRAH-SCF, COSX integrals
   Lee Huntington         : MR-EOM, pCC
   Robert Izsak           : Overlap fitted RIJCOSX, COSX-SCS-MP3, EOM
   Marcus Kettner         : VPT2
   Christian Kollmar      : KDIIS, OOCD, Brueckner-CCSD(T), CCSD density, CASPT2, CASPT2-K
   Simone Kossmann        : Meta GGA functionals, TD-DFT gradient, OOMP2, MP2 Hessian
   Martin Krupicka        : Initial AUTO-CI
   Lucas Lang             : DCDCAS
   Marvin Lechner         : AUTO-CI (C++ implementation), FIC-MRCC
   Dagmar Lenk            : GEPOL surface, SMD
   Dimitrios Liakos       : Extrapolation schemes; Compound Job, initial MDCI parallelization
   Dimitrios Manganas     : Further ROCIS development; embedding schemes
   Dimitrios Pantazis     : SARC Basis sets
   Anastasios Papadopoulos: AUTO-CI, single reference methods and gradients
   Taras Petrenko         : DFT Hessian,TD-DFT gradient, ASA, ECA, R-Raman, ABS, FL, XAS/XES, NRVS
   Peter Pinski           : DLPNO-MP2, DLPNO-MP2 Gradient
   Christoph Reimann      : Effective Core Potentials
   Marius Retegan         : Local ZFS, SOC
   Christoph Riplinger    : Optimizer, TS searches, QM/MM, DLPNO-CCSD(T), (RO)-DLPNO pert. Triples
   Tobias Risthaus        : Range-separated hybrids, TD-DFT gradient, RPA, STAB
   Michael Roemelt        : Original ROCIS implementation
   Masaaki Saitow         : Open-shell DLPNO-CCSD energy and density
   Barbara Sandhoefer     : DKH picture change effects
   Avijit Sen             : IP-ROCIS
   Kantharuban Sivalingam : CASSCF convergence, NEVPT2, FIC-MRCI
   Bernardo de Souza      : ESD, SOC TD-DFT
   Georgi Stoychev        : AutoAux, RI-MP2 NMR
   Willem Van den Heuvel  : Paramagnetic NMR
   Boris Wezisla          : Elementary symmetry handling
   Frank Wennmohs         : Technical directorship


 We gratefully acknowledge several colleagues who have allowed us to
 interface, adapt or use parts of their codes:
   Stefan Grimme, W. Hujo, H. Kruse, P. Pracht,  : VdW corrections, initial TS optimization,
                  C. Bannwarth, S. Ehlert          DFT functionals, gCP, sTDA/sTD-DF
   Ed Valeev, F. Pavosevic, A. Kumar             : LibInt (2-el integral package), F12 methods
   Garnet Chan, S. Sharma, J. Yang, R. Olivares  : DMRG
   Ulf Ekstrom                                   : XCFun DFT Library
   Mihaly Kallay                                 : mrcc  (arbitrary order and MRCC methods)
   Jiri Pittner, Ondrej Demel                    : Mk-CCSD
   Frank Weinhold                                : gennbo (NPA and NBO analysis)
   Christopher J. Cramer and Donald G. Truhlar   : smd solvation model
   Lars Goerigk                                  : TD-DFT with DH, B97 family of functionals
   V. Asgeirsson, H. Jonsson                     : NEB implementation
   FAccTs GmbH                                   : IRC, NEB, NEB-TS, DLPNO-Multilevel, CI-OPT
                                                   MM, QMMM, 2- and 3-layer-ONIOM, Crystal-QMMM,
                                                   LR-CPCM, SF, NACMEs, symmetry and pop. for TD-DFT,
                                                   nearIR, NL-DFT gradient (VV10), updates on ESD,
                                                   ML-optimized integration grids
   S Lehtola, MJT Oliveira, MAL Marques          : LibXC Library
   Liviu Ungur et al                             : ANISO software


 Your calculation uses the libint2 library for the computation of 2-el integrals
 For citations please refer to: http://libint.valeyev.net

 Your ORCA version has been built with support for libXC version: 5.1.0
 For citations please refer to: https://tddft.org/programs/libxc/

 This ORCA versions uses:
   CBLAS   interface :  Fast vector & matrix operations
   LAPACKE interface :  Fast linear algebra routines
   SCALAPACK package :  Parallel linear algebra routines
   Shared memory     :  Shared parallel matrices
   BLAS/LAPACK       :  OpenBLAS 0.3.15  USE64BITINT DYNAMIC_ARCH NO_AFFINITY SkylakeX SINGLE_THREADED
        Core in use  :  SkylakeX
   Copyright (c) 2011-2014, The OpenBLAS Project


================================================================================

----- Orbital basis set information -----
Your calculation utilizes the basis: cc-pVTZ 
       H, B-Ne : Obtained from the ccRepo (grant-hill.group.shef.ac.uk/ccrepo) Feb. 2017
                 T. H. Dunning, Jr., J. Chem. Phys. 90, 1007 (1989)
            He : Obtained from the ccRepo (grant-hill.group.shef.ac.uk/ccrepo) Feb. 2017
                 D. E. Woon, T. H. Dunning, Jr., J. Chem. Phys. 100, 2975 (1994)
  Li-Be, Na-Mg : Obtained from the ccRepo (grant-hill.group.shef.ac.uk/ccrepo) Feb. 2017
                 B. P. Prascher, D. E. Woon, K. A. Peterson, T. H. Dunning, Jr., A. K. Wilson, Theor. Chem. Acc. 128, 69 (2011)
         Al-Ar : Obtained from the ccRepo (grant-hill.group.shef.ac.uk/ccrepo) Feb. 2017
                 D. E. Woon, T. H. Dunning, Jr., J. Chem. Phys. 98, 1358 (1993)
            Ca : Obtained from the Peterson Research Group Website (tyr0.chem.wsu.edu/~kipeters) Feb. 2017
                 J. Koput, K. A. Peterson, J. Phys. Chem. 106, 9595 (2002)
         Sc-Zn : Obtained from the ccRepo (grant-hill.group.shef.ac.uk/ccrepo) Feb. 2017
                 N. B. Balabanov, K. A. Peterson, J. Chem. Phys. 123, 064107 (2005)
                 N. B. Balabanov, K. A. Peterson, J. Chem. Phys. 125, 074110 (2006)
         Ga-Kr : Obtained from the ccRepo (grant-hill.group.shef.ac.uk/ccrepo) Feb. 2017
                 A. K. Wilson, D. E. Woon, K. A. Peterson, T. H. Dunning, Jr., J. Chem. Phys. 110, 7667 (1999)
             Y : Obtained from the ccRepo (grant-hill.group.shef.ac.uk/ccrepo) Feb. 2017
                 K. A. Peterson, D. Figgen, M. Dolg, H. Stoll, J. Chem. Phys. 126, 124101 (2007)
        Ag, Au : Obtained from the Peterson Research Group Website (tyr0.chem.wsu.edu/~kipeters) Feb. 2017
                 K. A. Peterson, C. Puzzarini, Theor. Chem. Acc. 114, 283 (2005)

----- AuxC basis set information -----
Your calculation utilizes the auxiliary basis: cc-pVTZ/C 
  Obtained from the EMSL Basis Set Exchange (bse.pnl.gov) Feb. 2017
  H-He, B-F, Al-Ar, Ga-Kr : F. Weigend, A. Kohn, C. Hattig, J. Chem. Phys. 116, 3175 (2002)
             Li-Be, Na-Mg : C. Haettig, Phys. Chem. Chem. Phys. 7, 59 (2005)
                       Ne : C. Haettig, Phys. Chem. Chem. Phys. 7, 59 (2005)
                            F. Weigend, A. Kohn, C. Hattig, J. Chem. Phys. 116, 3175 (2002)
                    Sc-Zn : J. G. Hill, J. A. Platts, J. Chem. Phys. 128, 044104 (2008)

================================================================================
                                        WARNINGS
                       Please study these warnings very carefully!
================================================================================


WARNING: No MP2 level density has been requested!
         To caclulate MP2 level properties use
         %mp2 Density relaxed end
         or
         %mp2 Density unrelaxed end

WARNING: Post HF methods need fully converged wavefunctions
  ===> : Setting SCFConvForced true
         You can overwrite this default with %scf ConvForced false 


INFO   : the flag for use of the SHARK integral package has been found!

================================================================================
                                       INPUT FILE
================================================================================
NAME = CONFS/Conf485.orca
|  1> ! ri-mp2 cc-pvtz cc-pvtz/c TightSCF NoKeepInts
|  2> 
|  3> %scf
|  4>   MaxCore 4096
|  5> end
|  6> *xyz  0  1
|  7>     C       15.0953034   15.5157569   17.0158326
|  8>     C       16.1356615   14.3745332   16.9314989
|  9>     O       17.4256505   14.7672398   16.3915046
| 10>     C       17.8120725   16.0508065   16.1153034
| 11>     O       17.8333160   16.4234270   14.9567620
| 12>     C       17.8139815   17.0041561   17.2778961
| 13>     C       17.3903700   18.2866534   17.1524971
| 14>     C       16.7102873   18.9100025   15.9527724
| 15>     N       17.6010807   19.1982535   18.1902365
| 16>     C       18.4085170   18.9679068   19.2721535
| 17>     S       18.7393853   20.1460812   20.3843454
| 18>     N       18.9377062   17.7065394   19.3824573
| 19>     C       18.5477854   16.5495533   18.5538166
| 20>     C       17.7933156   15.5488878   19.4217227
| 21>     C       18.2856352   14.2394248   19.5830733
| 22>     C       17.6097790   13.3167848   20.3993734
| 23>     C       16.4370304   13.7079830   21.0675178
| 24>     C       15.9542009   15.0157728   20.9244635
| 25>     O       14.8240260   15.3981149   21.5697208
| 26>     C       16.6301449   15.9323895   20.1134259
| 27>     H       15.3502535   16.2644924   17.7703858
| 28>     H       14.1171892   15.1033976   17.2919033
| 29>     H       14.9810371   16.0113977   16.0438492
| 30>     H       16.2602834   13.9278977   17.9238378
| 31>     H       15.7270365   13.5860830   16.2863486
| 32>     H       15.9566120   18.2340184   15.5315152
| 33>     H       17.4435210   19.1106000   15.1607519
| 34>     H       16.2054609   19.8528976   16.1934640
| 35>     H       17.2418108   20.1362767   18.1096506
| 36>     H       19.5118052   17.5619221   20.2034578
| 37>     H       19.4771854   16.0635044   18.2248383
| 38>     H       19.1910047   13.9313770   19.0660519
| 39>     H       17.9956031   12.3047716   20.5125700
| 40>     H       15.9113904   12.9984151   21.6984187
| 41>     H       14.5439043   14.6604925   22.1327056
| 42>     H       16.2476533   16.9441893   20.0278777
| 43> *
| 44> 
| 45>                          ****END OF INPUT****
================================================================================

                       ****************************
                       * Single Point Calculation *
                       ****************************

---------------------------------
CARTESIAN COORDINATES (ANGSTROEM)
---------------------------------
  C     15.095303   15.515757   17.015833
  C     16.135662   14.374533   16.931499
  O     17.425650   14.767240   16.391505
  C     17.812072   16.050807   16.115303
  O     17.833316   16.423427   14.956762
  C     17.813982   17.004156   17.277896
  C     17.390370   18.286653   17.152497
  C     16.710287   18.910003   15.952772
  N     17.601081   19.198253   18.190236
  C     18.408517   18.967907   19.272154
  S     18.739385   20.146081   20.384345
  N     18.937706   17.706539   19.382457
  C     18.547785   16.549553   18.553817
  C     17.793316   15.548888   19.421723
  C     18.285635   14.239425   19.583073
  C     17.609779   13.316785   20.399373
  C     16.437030   13.707983   21.067518
  C     15.954201   15.015773   20.924464
  O     14.824026   15.398115   21.569721
  C     16.630145   15.932389   20.113426
  H     15.350253   16.264492   17.770386
  H     14.117189   15.103398   17.291903
  H     14.981037   16.011398   16.043849
  H     16.260283   13.927898   17.923838
  H     15.727037   13.586083   16.286349
  H     15.956612   18.234018   15.531515
  H     17.443521   19.110600   15.160752
  H     16.205461   19.852898   16.193464
  H     17.241811   20.136277   18.109651
  H     19.511805   17.561922   20.203458
  H     19.477185   16.063504   18.224838
  H     19.191005   13.931377   19.066052
  H     17.995603   12.304772   20.512570
  H     15.911390   12.998415   21.698419
  H     14.543904   14.660493   22.132706
  H     16.247653   16.944189   20.027878

----------------------------
CARTESIAN COORDINATES (A.U.)
----------------------------
  NO LB      ZA    FRAG     MASS         X           Y           Z
   0 C     6.0000    0    12.011   28.525989   29.320531   32.155264
   1 C     6.0000    0    12.011   30.491981   27.163931   31.995896
   2 O     8.0000    0    15.999   32.929707   27.906039   30.975455
   3 C     6.0000    0    12.011   33.659939   30.331629   30.453510
   4 O     8.0000    0    15.999   33.700083   31.035779   28.264184
   5 C     6.0000    0    12.011   33.663546   32.133198   32.650492
   6 C     6.0000    0    12.011   32.863037   34.556767   32.413522
   7 C     6.0000    0    12.011   31.577867   35.734726   30.146371
   8 N     7.0000    0    14.007   33.261222   36.279441   34.374565
   9 C     6.0000    0    12.011   34.787056   35.844149   36.419092
  10 S    16.0000    0    32.060   35.412306   38.070576   38.520830
  11 N     7.0000    0    14.007   35.787078   33.460510   36.627536
  12 C     6.0000    0    12.011   35.050235   31.274123   35.061632
  13 C     6.0000    0    12.011   33.624493   29.383140   36.701737
  14 C     6.0000    0    12.011   34.554843   26.908613   37.006645
  15 C     6.0000    0    12.011   33.277660   25.165076   38.549229
  16 C     6.0000    0    12.011   31.061486   25.904334   39.811839
  17 C     6.0000    0    12.011   30.149070   28.375698   39.541506
  18 O     8.0000    0    15.999   28.013349   29.098220   40.760865
  19 C     6.0000    0    12.011   31.426419   30.107853   38.008867
  20 H     1.0000    0     1.008   29.007775   30.735436   33.581162
  21 H     1.0000    0     1.008   26.677621   28.541285   32.676962
  22 H     1.0000    0     1.008   28.310057   30.257157   30.318481
  23 H     1.0000    0     1.008   30.727482   26.319912   33.871145
  24 H     1.0000    0     1.008   29.719792   25.673976   30.776739
  25 H     1.0000    0     1.008   30.153627   34.457301   29.350310
  26 H     1.0000    0     1.008   32.963478   36.113800   28.649669
  27 H     1.0000    0     1.008   30.623883   37.516539   30.601212
  28 H     1.0000    0     1.008   32.582300   38.052048   34.222280
  29 H     1.0000    0     1.008   36.871968   33.187223   38.179002
  30 H     1.0000    0     1.008   36.806546   30.355624   34.439953
  31 H     1.0000    0     1.008   36.265743   26.326487   36.029617
  32 H     1.0000    0     1.008   34.006761   23.252648   38.763140
  33 H     1.0000    0     1.008   30.068170   24.563445   41.004069
  34 H     1.0000    0     1.008   27.483996   27.704316   41.824752
  35 H     1.0000    0     1.008   30.703615   32.019877   37.847204

--------------------------------
INTERNAL COORDINATES (ANGSTROEM)
--------------------------------
 C      0   0   0     0.000000000000     0.00000000     0.00000000
 C      1   0   0     1.546560274491     0.00000000     0.00000000
 O      2   1   0     1.452543953840   114.71987775     0.00000000
 C      3   2   1     1.368631629882   125.40292545     7.90116965
 O      4   3   2     1.217175212871   118.95500728   256.07361803
 C      4   3   2     1.503496222208   116.03920890    59.72489984
 C      6   4   3     1.356455283686   121.84578140   219.89573887
 C      7   6   4     1.513412017628   127.08837025     8.27544077
 N      7   6   4     1.397253306930   120.07255936   190.07518634
 C      9   7   6     1.369509903450   124.46554146    11.25860711
 S     10   9   7     1.653644330316   121.96918913   173.47740036
 N     10   9   7     1.372317694805   116.45206591   353.85558692
 C     12  10   9     1.475567848512   125.00615116   350.41441429
 C     13  12  10     1.524407137355   109.01172549   249.48533690
 C     14  13  12     1.408227947824   120.17196437   240.00251295
 C     15  14  13     1.405130608142   120.59574304   178.90029839
 C     16  15  14     1.405273016085   119.65831468   359.56753412
 C     17  16  15     1.401393242385   119.91912511   359.53348843
 O     18  17  16     1.356406196250   120.10338349   180.12761520
 C     18  17  16     1.398166104034   120.29448234     0.35491971
 H      1   2   3     1.093139942588   112.71668578   290.77393104
 H      1   2   3     1.096796522577   109.64529728   171.74209988
 H      1   2   3     1.097027036958   110.80227311    53.29402976
 H      2   1   3     1.095331173789   109.14901199   124.26869671
 H      2   1   3     1.097655236445   108.15996408   239.60955791
 H      8   7   6     1.096557608990   111.06853961    42.42439080
 H      8   7   6     1.097801206158   110.30667465   283.79641364
 H      8   7   6     1.096281583377   112.77661816   162.96651822
 H      9   7   6     1.007698601797   119.61393247   183.14191779
 H     12  10   9     1.012198422376   114.53396205   181.37301971
 H     13  12  10     1.099206356906   106.93909381   133.69379179
 H     15  14  13     1.087151556441   120.00899034   358.29905240
 H     16  15  14     1.088964840280   120.01278750   179.62561466
 H     17  16  15     1.085274140451   119.90641046   179.95408517
 H     19  18  17     0.969281618945   107.61347873     4.81080652
 H     20  18  17     1.085060898694   119.11968310   180.89410353

---------------------------
INTERNAL COORDINATES (A.U.)
---------------------------
 C      0   0   0     0.000000000000     0.00000000     0.00000000
 C      1   0   0     2.922575368390     0.00000000     0.00000000
 O      2   1   0     2.744910270241   114.71987775     0.00000000
 C      3   2   1     2.586338958700   125.40292545     7.90116965
 O      4   3   2     2.300127809323   118.95500728   256.07361803
 C      4   3   2     2.841196103359   116.03920890    59.72489984
 C      6   4   3     2.563328999078   121.84578140   219.89573887
 C      7   6   4     2.859934241102   127.08837025     8.27544077
 N      7   6   4     2.640426089814   120.07255936   190.07518634
 C      9   7   6     2.587998655213   124.46554146    11.25860711
 S     10   9   7     3.124934907209   121.96918913   173.47740036
 N     10   9   7     2.593304611915   116.45206591   353.85558692
 C     12  10   9     2.788419125707   125.00615116   350.41441429
 C     13  12  10     2.880712006196   109.01172549   249.48533690
 C     14  13  12     2.661165155522   120.17196437   240.00251295
 C     15  14  13     2.655312031779   120.59574304   178.90029839
 C     16  15  14     2.655581143790   119.65831468   359.56753412
 C     17  16  15     2.648249434036   119.91912511   359.53348843
 O     18  17  16     2.563236237267   120.10338349   180.12761520
 C     18  17  16     2.642151026355   120.29448234     0.35491971
 H      1   2   3     2.065735117541   112.71668578   290.77393104
 H      1   2   3     2.072645052307   109.64529728   171.74209988
 H      1   2   3     2.073080661357   110.80227311    53.29402976
 H      2   1   3     2.069875944407   109.14901199   124.26869671
 H      2   1   3     2.074267786346   108.15996408   239.60955791
 H      8   7   6     2.072193571059   111.06853961    42.42439080
 H      8   7   6     2.074543629127   110.30667465   283.79641364
 H      8   7   6     2.071671958244   112.77661816   162.96651822
 H      9   7   6     1.904274382931   119.61393247   183.14191779
 H     12  10   9     1.912777811478   114.53396205   181.37301971
 H     13  12  10     2.077198979217   106.93909381   133.69379179
 H     15  14  13     2.054418707741   120.00899034   358.29905240
 H     16  15  14     2.057845317599   120.01278750   179.62561466
 H     17  16  15     2.050870905679   119.90641046   179.95408517
 H     19  18  17     1.831676806449   107.61347873     4.81080652
 H     20  18  17     2.050467937157   119.11968310   180.89410353

---------------------
BASIS SET INFORMATION
---------------------
There are 5 groups of distinct atoms

 Group   1 Type C   : 18s5p2d1f contracted to 4s3p2d1f pattern {8811/311/11/1}
 Group   2 Type O   : 18s5p2d1f contracted to 4s3p2d1f pattern {8811/311/11/1}
 Group   3 Type N   : 18s5p2d1f contracted to 4s3p2d1f pattern {8811/311/11/1}
 Group   4 Type S   : 41s16p2d1f contracted to 5s4p2d1f pattern {13131311/7711/11/1}
 Group   5 Type H   : 5s2p1d contracted to 3s2p1d pattern {311/11/1}

Atom   0C    basis set group =>   1
Atom   1C    basis set group =>   1
Atom   2O    basis set group =>   2
Atom   3C    basis set group =>   1
Atom   4O    basis set group =>   2
Atom   5C    basis set group =>   1
Atom   6C    basis set group =>   1
Atom   7C    basis set group =>   1
Atom   8N    basis set group =>   3
Atom   9C    basis set group =>   1
Atom  10S    basis set group =>   4
Atom  11N    basis set group =>   3
Atom  12C    basis set group =>   1
Atom  13C    basis set group =>   1
Atom  14C    basis set group =>   1
Atom  15C    basis set group =>   1
Atom  16C    basis set group =>   1
Atom  17C    basis set group =>   1
Atom  18O    basis set group =>   2
Atom  19C    basis set group =>   1
Atom  20H    basis set group =>   5
Atom  21H    basis set group =>   5
Atom  22H    basis set group =>   5
Atom  23H    basis set group =>   5
Atom  24H    basis set group =>   5
Atom  25H    basis set group =>   5
Atom  26H    basis set group =>   5
Atom  27H    basis set group =>   5
Atom  28H    basis set group =>   5
Atom  29H    basis set group =>   5
Atom  30H    basis set group =>   5
Atom  31H    basis set group =>   5
Atom  32H    basis set group =>   5
Atom  33H    basis set group =>   5
Atom  34H    basis set group =>   5
Atom  35H    basis set group =>   5
---------------------------------
AUXILIARY/C BASIS SET INFORMATION
---------------------------------
There are 5 groups of distinct atoms

 Group   1 Type C   : 8s6p5d3f1g contracted to 8s6p5d3f1g pattern {11111111/111111/11111/111/1}
 Group   2 Type O   : 8s6p5d3f1g contracted to 8s6p5d3f1g pattern {11111111/111111/11111/111/1}
 Group   3 Type N   : 8s6p5d3f1g contracted to 8s6p5d3f1g pattern {11111111/111111/11111/111/1}
 Group   4 Type S   : 10s8p7d5f2g contracted to 10s8p7d5f2g pattern {1111111111/11111111/1111111/11111/11}
 Group   5 Type H   : 4s3p2d1f contracted to 4s3p2d1f pattern {1111/111/11/1}

Atom   0C    basis set group =>   1
Atom   1C    basis set group =>   1
Atom   2O    basis set group =>   2
Atom   3C    basis set group =>   1
Atom   4O    basis set group =>   2
Atom   5C    basis set group =>   1
Atom   6C    basis set group =>   1
Atom   7C    basis set group =>   1
Atom   8N    basis set group =>   3
Atom   9C    basis set group =>   1
Atom  10S    basis set group =>   4
Atom  11N    basis set group =>   3
Atom  12C    basis set group =>   1
Atom  13C    basis set group =>   1
Atom  14C    basis set group =>   1
Atom  15C    basis set group =>   1
Atom  16C    basis set group =>   1
Atom  17C    basis set group =>   1
Atom  18O    basis set group =>   2
Atom  19C    basis set group =>   1
Atom  20H    basis set group =>   5
Atom  21H    basis set group =>   5
Atom  22H    basis set group =>   5
Atom  23H    basis set group =>   5
Atom  24H    basis set group =>   5
Atom  25H    basis set group =>   5
Atom  26H    basis set group =>   5
Atom  27H    basis set group =>   5
Atom  28H    basis set group =>   5
Atom  29H    basis set group =>   5
Atom  30H    basis set group =>   5
Atom  31H    basis set group =>   5
Atom  32H    basis set group =>   5
Atom  33H    basis set group =>   5
Atom  34H    basis set group =>   5
Atom  35H    basis set group =>   5
------------------------------------------------------------------------------
                           ORCA GTO INTEGRAL CALCULATION
------------------------------------------------------------------------------
------------------------------------------------------------------------------
                   ___                                                        
                  /   \      - P O W E R E D   B Y -                         
                 /     \                                                     
                 |  |  |   _    _      __       _____    __    __             
                 |  |  |  | |  | |    /  \     |  _  \  |  |  /  |          
                  \  \/   | |  | |   /    \    | | | |  |  | /  /          
                 / \  \   | |__| |  /  /\  \   | |_| |  |  |/  /          
                |  |  |   |  __  | /  /__\  \  |    /   |      \           
                |  |  |   | |  | | |   __   |  |    \   |  |\   \          
                \     /   | |  | | |  |  |  |  | |\  \  |  | \   \       
                 \___/    |_|  |_| |__|  |__|  |_| \__\ |__|  \__/        
                                                                              
                      - O R C A' S   B I G   F R I E N D -                    
                                      &                                       
                       - I N T E G R A L  F E E D E R -                       
                                                                              
 v1 FN, 2020, v2 2021                                                         
------------------------------------------------------------------------------


Reading SHARK input file CONFS/Conf485.orca.SHARKINP.tmp ... ok
----------------------
SHARK INTEGRAL PACKAGE
----------------------

Number of atoms                             ...     36
Number of basis functions                   ...    828
Number of shells                            ...    298
Maximum angular momentum                    ...      3
Integral batch strategy                     ... SHARK/LIBINT Hybrid
RI-J (if used) integral strategy            ... SPLIT-RIJ (Revised 2003 algorithm where possible)
Printlevel                                  ...      1
Contraction scheme used                     ... SEGMENTED contraction
Coulomb Range Separation                    ... NOT USED
Exchange Range Separation                   ... NOT USED
Finite Nucleus Model                        ... NOT USED
Auxiliary Coulomb fitting basis             ... NOT available
Auxiliary J/K fitting basis                 ... NOT available
Auxiliary Correlation fitting basis         ... AVAILABLE
   # of basis functions in Aux-C            ...   2141
   # of shells in Aux-C                     ...    629
   Maximum angular momentum in Aux-C        ...      4
Auxiliary 'external' fitting basis          ... NOT available
Integral threshold                          ...     2.500000e-11
Primitive cut-off                           ...     2.500000e-12
Primitive pair pre-selection threshold      ...     2.500000e-12

Calculating pre-screening integrals         ... done (  0.7 sec) Dimension = 298
Organizing shell pair data                  ... done (  1.5 sec)
Shell pair information
Total number of shell pairs                 ...     44551
Shell pairs after pre-screening             ...     34993
Total number of primitive shell pairs       ...    234348
Primitive shell pairs kept                  ...    100113
          la=0 lb=0:   6937 shell pairs
          la=1 lb=0:   9687 shell pairs
          la=1 lb=1:   3432 shell pairs
          la=2 lb=0:   5601 shell pairs
          la=2 lb=1:   3859 shell pairs
          la=2 lb=2:   1112 shell pairs
          la=3 lb=0:   2019 shell pairs
          la=3 lb=1:   1401 shell pairs
          la=3 lb=2:    793 shell pairs
          la=3 lb=3:    152 shell pairs

Calculating one electron integrals          ... done (  0.4 sec)
Calculating RI/C V-Matrix + Cholesky decomp.... done (  1.4 sec)
Calculating Nuclear repulsion               ... done (  0.0 sec) ENN=   1741.070742842246 Eh

SHARK setup successfully completed in   4.3 seconds

Maximum memory used throughout the entire GTOINT-calculation: 524.4 MB
-------------------------------------------------------------------------------
                                 ORCA SCF
-------------------------------------------------------------------------------

------------
SCF SETTINGS
------------
Hamiltonian:
 Ab initio Hamiltonian  Method          .... Hartree-Fock(GTOs)


General Settings:
 Integral files         IntName         .... CONFS/Conf485.orca
 Hartree-Fock type      HFTyp           .... RHF
 Total Charge           Charge          ....    0
 Multiplicity           Mult            ....    1
 Number of Electrons    NEL             ....  154
 Basis Dimension        Dim             ....  828
 Nuclear Repulsion      ENuc            ....   1741.0707428422 Eh

Convergence Acceleration:
 DIIS                   CNVDIIS         .... on
   Start iteration      DIISMaxIt       ....    12
   Startup error        DIISStart       ....  0.200000
   # of expansion vecs  DIISMaxEq       ....     5
   Bias factor          DIISBfac        ....   1.050
   Max. coefficient     DIISMaxC        ....  10.000
 Trust-Rad. Augm. Hess. CNVTRAH         .... auto
   Auto Start mean grad. ratio tolernc. ....  1.125000
   Auto Start start iteration           ....    20
   Auto Start num. interpolation iter.  ....    10
   Max. Number of Micro iterations      ....    16
   Max. Number of Macro iterations      .... Maxiter - #DIIS iter
   Number of Davidson start vectors     ....     2
   Converg. threshold I  (grad. norm)   ....   1.000e-05
   Converg. threshold II (energy diff.) ....   1.000e-08
   Grad. Scal. Fac. for Micro threshold ....   0.100
   Minimum threshold for Micro iter.    ....   0.010
   NR start threshold (gradient norm)   ....   0.001
   Initial trust radius                 ....   0.400
   Minimum AH scaling param. (alpha)    ....   1.000
   Maximum AH scaling param. (alpha)    .... 1000.000
   Orbital update algorithm             .... Taylor
   White noise on init. David. guess    .... on
   Maximum white noise                  ....   0.010
   Quad. conv. algorithm                .... NR
 SOSCF                  CNVSOSCF        .... on
   Start iteration      SOSCFMaxIt      ....   150
   Startup grad/error   SOSCFStart      ....  0.003300
 Level Shifting         CNVShift        .... on
   Level shift para.    LevelShift      ....    0.2500
   Turn off err/grad.   ShiftErr        ....    0.0010
 Zerner damping         CNVZerner       .... off
 Static damping         CNVDamp         .... on
   Fraction old density DampFac         ....    0.7000
   Max. Damping (<1)    DampMax         ....    0.9800
   Min. Damping (>=0)   DampMin         ....    0.0000
   Turn off err/grad.   DampErr         ....    0.1000
 Fernandez-Rico         CNVRico         .... off

SCF Procedure:
 Maximum # iterations   MaxIter         ....   125
 SCF integral mode      SCFMode         .... Direct
   Integral package                     .... SHARK and LIBINT hybrid scheme
 Reset frequency        DirectResetFreq ....    20
 Integral Threshold     Thresh          ....  2.500e-11 Eh
 Primitive CutOff       TCut            ....  2.500e-12 Eh

Convergence Tolerance:
 Convergence Check Mode ConvCheckMode   .... Total+1el-Energy
 Convergence forced     ConvForced      .... 1
 Energy Change          TolE            ....  1.000e-08 Eh
 1-El. energy change                    ....  1.000e-05 Eh
 Orbital Gradient       TolG            ....  1.000e-05
 Orbital Rotation angle TolX            ....  1.000e-05
 DIIS Error             TolErr          ....  5.000e-07


Diagonalization of the overlap matrix:
Smallest eigenvalue                        ... 3.174e-05
Time for diagonalization                   ...    0.162 sec
Threshold for overlap eigenvalues          ... 1.000e-08
Number of eigenvalues below threshold      ... 0
Time for construction of square roots      ...    0.232 sec
Total time needed                          ...    0.398 sec

Time for model grid setup =    1.542 sec

------------------------------
INITIAL GUESS: MODEL POTENTIAL
------------------------------
Loading Hartree-Fock densities                     ... done
Calculating cut-offs                               ... done
Initializing the effective Hamiltonian             ... done
Setting up the integral package (SHARK)            ... done
Starting the Coulomb interaction                   ... done (   4.9 sec)
Reading the grid                                   ... done
Mapping shells                                     ... done
Starting the XC term evaluation                    ... done (   1.6 sec)
Transforming the Hamiltonian                       ... done (   0.1 sec)
Diagonalizing the Hamiltonian                      ... done (   0.1 sec)
Back transforming the eigenvectors                 ... done (   0.0 sec)
Now organizing SCF variables                       ... done
                      ------------------
                      INITIAL GUESS DONE (   8.3 sec)
                      ------------------
--------------
SCF ITERATIONS
--------------
ITER       Energy         Delta-E        Max-DP      RMS-DP      [F,P]     Damp
               ***  Starting incremental Fock matrix formation  ***
  0  -1269.9878084310   0.000000000000 0.04934692  0.00043608  0.3237162 0.7000
  1  -1270.2531183550  -0.265309924001 0.03609808  0.00035244  0.1947326 0.7000
                               ***Turning on DIIS***
  2  -1270.4184018997  -0.165283544689 0.02584696  0.00023580  0.1096987 0.7000
  3  -1272.5395172191  -2.121115319422 0.06314974  0.00051109  0.0828560 0.0000
  4  -1270.7286642798   1.810852939308 0.00957730  0.00010067  0.0066920 0.0000
  5  -1270.7823159605  -0.053651680699 0.00455192  0.00005239  0.0049625 0.0000
  6  -1270.7621578963   0.020158064227 0.00237923  0.00002759  0.0038988 0.0000
                      *** Initiating the SOSCF procedure ***
                           *** Shutting down DIIS ***
                      *** Re-Reading the Fockian *** 
                      *** Removing any level shift *** 
ITER      Energy       Delta-E        Grad      Rot      Max-DP    RMS-DP
  7  -1270.77819433  -0.0160364338  0.001277  0.001277  0.001222  0.000015
               *** Restarting incremental Fock matrix formation ***
  8  -1270.77802098   0.0001733485  0.000686  0.001754  0.000549  0.000008
  9  -1270.77803720  -0.0000162155  0.000325  0.002093  0.000905  0.000011
 10  -1270.77804399  -0.0000067978  0.000070  0.000155  0.000222  0.000002
 11  -1270.77804467  -0.0000006712  0.000040  0.000074  0.000067  0.000001
 12  -1270.77804481  -0.0000001397  0.000013  0.000048  0.000029  0.000000
 13  -1270.77804483  -0.0000000224  0.000009  0.000042  0.000022  0.000000
                  ***Gradient check signals convergence***
              ***Rediagonalizing the Fockian in SOSCF/NRSCF***

               *****************************************************
               *                     SUCCESS                       *
               *           SCF CONVERGED AFTER  14 CYCLES          *
               *****************************************************


----------------
TOTAL SCF ENERGY
----------------

Total Energy       :        -1270.77804484 Eh          -34579.62859 eV

Components:
Nuclear Repulsion  :         1741.07074284 Eh           47376.94351 eV
Electronic Energy  :        -3011.84878768 Eh          -81956.57210 eV
One Electron Energy:        -5202.87128832 Eh         -141577.32541 eV
Two Electron Energy:         2191.02250064 Eh           59620.75330 eV

Virial components:
Potential Energy   :        -2539.75819569 Eh          -69110.33401 eV
Kinetic Energy     :         1268.98015085 Eh           34530.70541 eV
Virial Ratio       :            2.00141680


---------------
SCF CONVERGENCE
---------------

  Last Energy change         ...   -1.0341e-08  Tolerance :   1.0000e-08
  Last MAX-Density change    ...    3.4725e-06  Tolerance :   1.0000e-07
  Last RMS-Density change    ...    5.5650e-08  Tolerance :   5.0000e-09
  Last Orbital Gradient      ...    1.8251e-06  Tolerance :   1.0000e-05
  Last Orbital Rotation      ...    7.6035e-06  Tolerance :   1.0000e-05

             **** THE GBW FILE WAS UPDATED (CONFS/Conf485.orca.gbw) ****
             **** DENSITY CONFS/Conf485.orca.scfp WAS UPDATED ****
             **** ENERGY FILE WAS UPDATED (CONFS/Conf485.orca.en.tmp) ****
             **** THE GBW FILE WAS UPDATED (CONFS/Conf485.orca.gbw) ****
             **** DENSITY CONFS/Conf485.orca.scfp WAS UPDATED ****
----------------
ORBITAL ENERGIES
----------------

  NO   OCC          E(Eh)            E(eV) 
   0   2.0000     -91.891230     -2500.4875 
   1   2.0000     -20.603701      -560.6552 
   2   2.0000     -20.579577      -559.9987 
   3   2.0000     -20.551567      -559.2366 
   4   2.0000     -15.629602      -425.3031 
   5   2.0000     -15.611279      -424.8045 
   6   2.0000     -11.394306      -310.0548 
   7   2.0000     -11.386204      -309.8344 
   8   2.0000     -11.333541      -308.4013 
   9   2.0000     -11.321713      -308.0795 
  10   2.0000     -11.316526      -307.9383 
  11   2.0000     -11.300608      -307.5052 
  12   2.0000     -11.266753      -306.5839 
  13   2.0000     -11.262264      -306.4618 
  14   2.0000     -11.259591      -306.3891 
  15   2.0000     -11.254687      -306.2556 
  16   2.0000     -11.251358      -306.1650 
  17   2.0000     -11.246340      -306.0285 
  18   2.0000     -11.245407      -306.0031 
  19   2.0000     -11.231080      -305.6132 
  20   2.0000      -8.896279      -242.0801 
  21   2.0000      -6.577851      -178.9924 
  22   2.0000      -6.575848      -178.9379 
  23   2.0000      -6.575257      -178.9218 
  24   2.0000      -1.441184       -39.2166 
  25   2.0000      -1.423471       -38.7346 
  26   2.0000      -1.350240       -36.7419 
  27   2.0000      -1.341956       -36.5165 
  28   2.0000      -1.241484       -33.7825 
  29   2.0000      -1.164419       -31.6855 
  30   2.0000      -1.122412       -30.5424 
  31   2.0000      -1.048652       -28.5353 
  32   2.0000      -1.032663       -28.1002 
  33   2.0000      -1.022850       -27.8332 
  34   2.0000      -1.002366       -27.2758 
  35   2.0000      -0.988286       -26.8926 
  36   2.0000      -0.927497       -25.2385 
  37   2.0000      -0.897578       -24.4243 
  38   2.0000      -0.850334       -23.1388 
  39   2.0000      -0.845140       -22.9974 
  40   2.0000      -0.841713       -22.9042 
  41   2.0000      -0.824595       -22.4384 
  42   2.0000      -0.747141       -20.3307 
  43   2.0000      -0.737607       -20.0713 
  44   2.0000      -0.719383       -19.5754 
  45   2.0000      -0.702482       -19.1155 
  46   2.0000      -0.691419       -18.8145 
  47   2.0000      -0.676229       -18.4011 
  48   2.0000      -0.672868       -18.3097 
  49   2.0000      -0.658573       -17.9207 
  50   2.0000      -0.657343       -17.8872 
  51   2.0000      -0.648572       -17.6485 
  52   2.0000      -0.639289       -17.3960 
  53   2.0000      -0.626090       -17.0368 
  54   2.0000      -0.613413       -16.6918 
  55   2.0000      -0.605993       -16.4899 
  56   2.0000      -0.602815       -16.4034 
  57   2.0000      -0.582777       -15.8582 
  58   2.0000      -0.575781       -15.6678 
  59   2.0000      -0.566896       -15.4260 
  60   2.0000      -0.551155       -14.9977 
  61   2.0000      -0.548542       -14.9266 
  62   2.0000      -0.541405       -14.7324 
  63   2.0000      -0.532843       -14.4994 
  64   2.0000      -0.529959       -14.4209 
  65   2.0000      -0.516973       -14.0676 
  66   2.0000      -0.506050       -13.7703 
  67   2.0000      -0.493518       -13.4293 
  68   2.0000      -0.479614       -13.0510 
  69   2.0000      -0.473001       -12.8710 
  70   2.0000      -0.449500       -12.2315 
  71   2.0000      -0.445383       -12.1195 
  72   2.0000      -0.358528        -9.7560 
  73   2.0000      -0.353194        -9.6109 
  74   2.0000      -0.331629        -9.0241 
  75   2.0000      -0.328800        -8.9471 
  76   2.0000      -0.318960        -8.6794 
  77   0.0000       0.072257         1.9662 
  78   0.0000       0.100305         2.7294 
  79   0.0000       0.119148         3.2422 
  80   0.0000       0.126020         3.4292 
  81   0.0000       0.131589         3.5807 
  82   0.0000       0.140014         3.8100 
  83   0.0000       0.148243         4.0339 
  84   0.0000       0.151625         4.1259 
  85   0.0000       0.156612         4.2616 
  86   0.0000       0.173572         4.7231 
  87   0.0000       0.175632         4.7792 
  88   0.0000       0.182137         4.9562 
  89   0.0000       0.190871         5.1939 
  90   0.0000       0.199926         5.4403 
  91   0.0000       0.208068         5.6618 
  92   0.0000       0.217267         5.9121 
  93   0.0000       0.223742         6.0883 
  94   0.0000       0.232684         6.3316 
  95   0.0000       0.233467         6.3530 
  96   0.0000       0.243837         6.6351 
  97   0.0000       0.260769         7.0959 
  98   0.0000       0.277413         7.5488 
  99   0.0000       0.282038         7.6746 
 100   0.0000       0.299069         8.1381 
 101   0.0000       0.302976         8.2444 
 102   0.0000       0.305757         8.3201 
 103   0.0000       0.310893         8.4598 
 104   0.0000       0.325814         8.8658 
 105   0.0000       0.329615         8.9693 
 106   0.0000       0.342091         9.3088 
 107   0.0000       0.354788         9.6543 
 108   0.0000       0.360537         9.8107 
 109   0.0000       0.368894        10.0381 
 110   0.0000       0.370011        10.0685 
 111   0.0000       0.372411        10.1338 
 112   0.0000       0.383232        10.4283 
 113   0.0000       0.389862        10.6087 
 114   0.0000       0.403253        10.9731 
 115   0.0000       0.411547        11.1988 
 116   0.0000       0.414890        11.2897 
 117   0.0000       0.426650        11.6097 
 118   0.0000       0.433949        11.8083 
 119   0.0000       0.435556        11.8521 
 120   0.0000       0.439945        11.9715 
 121   0.0000       0.454159        12.3583 
 122   0.0000       0.456232        12.4147 
 123   0.0000       0.461382        12.5548 
 124   0.0000       0.464446        12.6382 
 125   0.0000       0.468243        12.7415 
 126   0.0000       0.472384        12.8542 
 127   0.0000       0.479565        13.0496 
 128   0.0000       0.489246        13.3131 
 129   0.0000       0.496151        13.5010 
 130   0.0000       0.503585        13.7033 
 131   0.0000       0.507452        13.8085 
 132   0.0000       0.510897        13.9022 
 133   0.0000       0.517665        14.0864 
 134   0.0000       0.521873        14.2009 
 135   0.0000       0.527174        14.3451 
 136   0.0000       0.538628        14.6568 
 137   0.0000       0.539820        14.6892 
 138   0.0000       0.546978        14.8840 
 139   0.0000       0.554509        15.0890 
 140   0.0000       0.555464        15.1149 
 141   0.0000       0.560398        15.2492 
 142   0.0000       0.565867        15.3980 
 143   0.0000       0.567912        15.4537 
 144   0.0000       0.569209        15.4890 
 145   0.0000       0.580728        15.8024 
 146   0.0000       0.589312        16.0360 
 147   0.0000       0.592901        16.1337 
 148   0.0000       0.597481        16.2583 
 149   0.0000       0.600682        16.3454 
 150   0.0000       0.603348        16.4179 
 151   0.0000       0.605451        16.4752 
 152   0.0000       0.611936        16.6516 
 153   0.0000       0.615017        16.7355 
 154   0.0000       0.617587        16.8054 
 155   0.0000       0.625664        17.0252 
 156   0.0000       0.632903        17.2222 
 157   0.0000       0.636026        17.3072 
 158   0.0000       0.641214        17.4483 
 159   0.0000       0.647542        17.6205 
 160   0.0000       0.649699        17.6792 
 161   0.0000       0.661376        17.9970 
 162   0.0000       0.664164        18.0728 
 163   0.0000       0.673304        18.3215 
 164   0.0000       0.677227        18.4283 
 165   0.0000       0.680296        18.5118 
 166   0.0000       0.686535        18.6816 
 167   0.0000       0.696085        18.9414 
 168   0.0000       0.699090        19.0232 
 169   0.0000       0.702574        19.1180 
 170   0.0000       0.706755        19.2318 
 171   0.0000       0.717309        19.5190 
 172   0.0000       0.721128        19.6229 
 173   0.0000       0.728055        19.8114 
 174   0.0000       0.731667        19.9097 
 175   0.0000       0.737091        20.0573 
 176   0.0000       0.740172        20.1411 
 177   0.0000       0.746744        20.3199 
 178   0.0000       0.761394        20.7186 
 179   0.0000       0.771444        20.9921 
 180   0.0000       0.776304        21.1243 
 181   0.0000       0.779716        21.2172 
 182   0.0000       0.793233        21.5850 
 183   0.0000       0.802691        21.8423 
 184   0.0000       0.804698        21.8969 
 185   0.0000       0.814916        22.1750 
 186   0.0000       0.822042        22.3689 
 187   0.0000       0.829357        22.5680 
 188   0.0000       0.832671        22.6581 
 189   0.0000       0.846294        23.0288 
 190   0.0000       0.851443        23.1689 
 191   0.0000       0.856779        23.3142 
 192   0.0000       0.859158        23.3789 
 193   0.0000       0.871799        23.7229 
 194   0.0000       0.881184        23.9782 
 195   0.0000       0.888374        24.1739 
 196   0.0000       0.889849        24.2140 
 197   0.0000       0.892913        24.2974 
 198   0.0000       0.897829        24.4312 
 199   0.0000       0.909455        24.7475 
 200   0.0000       0.914672        24.8895 
 201   0.0000       0.923623        25.1331 
 202   0.0000       0.933580        25.4040 
 203   0.0000       0.935201        25.4481 
 204   0.0000       0.944938        25.7131 
 205   0.0000       0.950949        25.8766 
 206   0.0000       0.962138        26.1811 
 207   0.0000       0.966332        26.2952 
 208   0.0000       0.976948        26.5841 
 209   0.0000       0.977448        26.5977 
 210   0.0000       0.982228        26.7278 
 211   0.0000       0.990367        26.9492 
 212   0.0000       0.999961        27.2103 
 213   0.0000       1.009617        27.4731 
 214   0.0000       1.012293        27.5459 
 215   0.0000       1.020368        27.7656 
 216   0.0000       1.023077        27.8393 
 217   0.0000       1.029748        28.0209 
 218   0.0000       1.038580        28.2612 
 219   0.0000       1.046717        28.4826 
 220   0.0000       1.054731        28.7007 
 221   0.0000       1.065201        28.9856 
 222   0.0000       1.067457        29.0470 
 223   0.0000       1.085676        29.5428 
 224   0.0000       1.093304        29.7503 
 225   0.0000       1.100221        29.9385 
 226   0.0000       1.110853        30.2279 
 227   0.0000       1.122215        30.5370 
 228   0.0000       1.125998        30.6400 
 229   0.0000       1.132036        30.8043 
 230   0.0000       1.134945        30.8834 
 231   0.0000       1.142717        31.0949 
 232   0.0000       1.152896        31.3719 
 233   0.0000       1.162713        31.6390 
 234   0.0000       1.163271        31.6542 
 235   0.0000       1.173107        31.9219 
 236   0.0000       1.181017        32.1371 
 237   0.0000       1.185702        32.2646 
 238   0.0000       1.188282        32.3348 
 239   0.0000       1.198184        32.6042 
 240   0.0000       1.205273        32.7972 
 241   0.0000       1.209693        32.9174 
 242   0.0000       1.216624        33.1060 
 243   0.0000       1.224829        33.3293 
 244   0.0000       1.233944        33.5773 
 245   0.0000       1.239345        33.7243 
 246   0.0000       1.244765        33.8718 
 247   0.0000       1.255407        34.1614 
 248   0.0000       1.258509        34.2458 
 249   0.0000       1.264745        34.4155 
 250   0.0000       1.268162        34.5084 
 251   0.0000       1.285038        34.9677 
 252   0.0000       1.295154        35.2429 
 253   0.0000       1.296885        35.2900 
 254   0.0000       1.308597        35.6087 
 255   0.0000       1.320574        35.9347 
 256   0.0000       1.325070        36.0570 
 257   0.0000       1.335434        36.3390 
 258   0.0000       1.339243        36.4427 
 259   0.0000       1.346556        36.6416 
 260   0.0000       1.350092        36.7379 
 261   0.0000       1.358261        36.9602 
 262   0.0000       1.369435        37.2642 
 263   0.0000       1.377115        37.4732 
 264   0.0000       1.390614        37.8405 
 265   0.0000       1.396056        37.9886 
 266   0.0000       1.402073        38.1524 
 267   0.0000       1.418219        38.5917 
 268   0.0000       1.423220        38.7278 
 269   0.0000       1.427721        38.8503 
 270   0.0000       1.436983        39.1023 
 271   0.0000       1.440363        39.1943 
 272   0.0000       1.450263        39.4637 
 273   0.0000       1.458512        39.6881 
 274   0.0000       1.461967        39.7821 
 275   0.0000       1.464876        39.8613 
 276   0.0000       1.472714        40.0746 
 277   0.0000       1.473954        40.1083 
 278   0.0000       1.477085        40.1935 
 279   0.0000       1.498112        40.7657 
 280   0.0000       1.500908        40.8418 
 281   0.0000       1.506851        41.0035 
 282   0.0000       1.513832        41.1935 
 283   0.0000       1.520785        41.3827 
 284   0.0000       1.522378        41.4260 
 285   0.0000       1.530861        41.6569 
 286   0.0000       1.538578        41.8668 
 287   0.0000       1.541310        41.9412 
 288   0.0000       1.549923        42.1755 
 289   0.0000       1.559027        42.4233 
 290   0.0000       1.559994        42.4496 
 291   0.0000       1.568701        42.6865 
 292   0.0000       1.579965        42.9930 
 293   0.0000       1.586231        43.1635 
 294   0.0000       1.595369        43.4122 
 295   0.0000       1.601059        43.5670 
 296   0.0000       1.608535        43.7705 
 297   0.0000       1.621074        44.1117 
 298   0.0000       1.628984        44.3269 
 299   0.0000       1.640402        44.6376 
 300   0.0000       1.643777        44.7294 
 301   0.0000       1.650482        44.9119 
 302   0.0000       1.660422        45.1824 
 303   0.0000       1.671182        45.4752 
 304   0.0000       1.674011        45.5522 
 305   0.0000       1.688054        45.9343 
 306   0.0000       1.693956        46.0949 
 307   0.0000       1.709015        46.5047 
 308   0.0000       1.716749        46.7151 
 309   0.0000       1.723753        46.9057 
 310   0.0000       1.733809        47.1793 
 311   0.0000       1.745359        47.4936 
 312   0.0000       1.748894        47.5898 
 313   0.0000       1.756493        47.7966 
 314   0.0000       1.770344        48.1735 
 315   0.0000       1.780756        48.4568 
 316   0.0000       1.784183        48.5501 
 317   0.0000       1.791679        48.7541 
 318   0.0000       1.799837        48.9760 
 319   0.0000       1.814107        49.3644 
 320   0.0000       1.825268        49.6681 
 321   0.0000       1.837286        49.9951 
 322   0.0000       1.843267        50.1578 
 323   0.0000       1.861591        50.6565 
 324   0.0000       1.869720        50.8777 
 325   0.0000       1.881905        51.2092 
 326   0.0000       1.886887        51.3448 
 327   0.0000       1.895099        51.5683 
 328   0.0000       1.908513        51.9333 
 329   0.0000       1.927371        52.4464 
 330   0.0000       1.934679        52.6453 
 331   0.0000       1.942688        52.8632 
 332   0.0000       1.952092        53.1191 
 333   0.0000       1.959128        53.3106 
 334   0.0000       1.978675        53.8425 
 335   0.0000       1.986623        54.0588 
 336   0.0000       1.999490        54.4089 
 337   0.0000       2.013769        54.7974 
 338   0.0000       2.017755        54.9059 
 339   0.0000       2.026998        55.1574 
 340   0.0000       2.040416        55.5226 
 341   0.0000       2.046116        55.6777 
 342   0.0000       2.051146        55.8145 
 343   0.0000       2.068923        56.2983 
 344   0.0000       2.091707        56.9182 
 345   0.0000       2.116081        57.5815 
 346   0.0000       2.122025        57.7432 
 347   0.0000       2.138588        58.1939 
 348   0.0000       2.154539        58.6280 
 349   0.0000       2.163957        58.8843 
 350   0.0000       2.181010        59.3483 
 351   0.0000       2.208181        60.0877 
 352   0.0000       2.216291        60.3083 
 353   0.0000       2.238057        60.9006 
 354   0.0000       2.242953        61.0339 
 355   0.0000       2.256823        61.4113 
 356   0.0000       2.274895        61.9030 
 357   0.0000       2.286857        62.2285 
 358   0.0000       2.296012        62.4777 
 359   0.0000       2.317170        63.0534 
 360   0.0000       2.322075        63.1869 
 361   0.0000       2.337431        63.6047 
 362   0.0000       2.345677        63.8291 
 363   0.0000       2.365448        64.3671 
 364   0.0000       2.369671        64.4820 
 365   0.0000       2.382022        64.8181 
 366   0.0000       2.396169        65.2031 
 367   0.0000       2.408011        65.5253 
 368   0.0000       2.413059        65.6627 
 369   0.0000       2.433774        66.2264 
 370   0.0000       2.446269        66.5664 
 371   0.0000       2.465910        67.1008 
 372   0.0000       2.475961        67.3743 
 373   0.0000       2.488037        67.7029 
 374   0.0000       2.497687        67.9655 
 375   0.0000       2.509575        68.2890 
 376   0.0000       2.531149        68.8761 
 377   0.0000       2.541617        69.1609 
 378   0.0000       2.550675        69.4074 
 379   0.0000       2.560973        69.6876 
 380   0.0000       2.577754        70.1443 
 381   0.0000       2.586541        70.3834 
 382   0.0000       2.608599        70.9836 
 383   0.0000       2.610358        71.0315 
 384   0.0000       2.615289        71.1656 
 385   0.0000       2.632638        71.6377 
 386   0.0000       2.646361        72.0111 
 387   0.0000       2.660692        72.4011 
 388   0.0000       2.668350        72.6095 
 389   0.0000       2.677188        72.8500 
 390   0.0000       2.689894        73.1957 
 391   0.0000       2.700634        73.4880 
 392   0.0000       2.728831        74.2553 
 393   0.0000       2.730690        74.3059 
 394   0.0000       2.738067        74.5066 
 395   0.0000       2.741446        74.5985 
 396   0.0000       2.752825        74.9082 
 397   0.0000       2.757646        75.0394 
 398   0.0000       2.768626        75.3381 
 399   0.0000       2.781561        75.6901 
 400   0.0000       2.786624        75.8279 
 401   0.0000       2.803657        76.2914 
 402   0.0000       2.807026        76.3831 
 403   0.0000       2.829676        76.9994 
 404   0.0000       2.839140        77.2569 
 405   0.0000       2.844947        77.4150 
 406   0.0000       2.852675        77.6252 
 407   0.0000       2.858071        77.7721 
 408   0.0000       2.865739        77.9807 
 409   0.0000       2.872248        78.1578 
 410   0.0000       2.879266        78.3488 
 411   0.0000       2.883673        78.4687 
 412   0.0000       2.911175        79.2171 
 413   0.0000       2.912295        79.2476 
 414   0.0000       2.920453        79.4696 
 415   0.0000       2.924097        79.5687 
 416   0.0000       2.933469        79.8238 
 417   0.0000       2.943919        80.1081 
 418   0.0000       2.956529        80.4513 
 419   0.0000       2.962262        80.6073 
 420   0.0000       2.971204        80.8506 
 421   0.0000       2.980351        81.0995 
 422   0.0000       2.988035        81.3086 
 423   0.0000       2.996960        81.5514 
 424   0.0000       3.002897        81.7130 
 425   0.0000       3.014561        82.0304 
 426   0.0000       3.019088        82.1536 
 427   0.0000       3.032191        82.5101 
 428   0.0000       3.038563        82.6835 
 429   0.0000       3.045171        82.8633 
 430   0.0000       3.056765        83.1788 
 431   0.0000       3.058279        83.2200 
 432   0.0000       3.066597        83.4464 
 433   0.0000       3.075472        83.6878 
 434   0.0000       3.082146        83.8694 
 435   0.0000       3.084149        83.9240 
 436   0.0000       3.096568        84.2619 
 437   0.0000       3.102215        84.4156 
 438   0.0000       3.103482        84.4500 
 439   0.0000       3.111723        84.6743 
 440   0.0000       3.121576        84.9424 
 441   0.0000       3.131958        85.2249 
 442   0.0000       3.133288        85.2611 
 443   0.0000       3.142282        85.5058 
 444   0.0000       3.150473        85.7287 
 445   0.0000       3.153617        85.8143 
 446   0.0000       3.164419        86.1082 
 447   0.0000       3.174904        86.3935 
 448   0.0000       3.187377        86.7329 
 449   0.0000       3.201251        87.1105 
 450   0.0000       3.208353        87.3037 
 451   0.0000       3.211806        87.3977 
 452   0.0000       3.216188        87.5169 
 453   0.0000       3.218817        87.5885 
 454   0.0000       3.226103        87.7867 
 455   0.0000       3.234686        88.0203 
 456   0.0000       3.250293        88.4450 
 457   0.0000       3.254688        88.5646 
 458   0.0000       3.260973        88.7356 
 459   0.0000       3.264821        88.8403 
 460   0.0000       3.280071        89.2553 
 461   0.0000       3.288841        89.4939 
 462   0.0000       3.292639        89.5973 
 463   0.0000       3.300239        89.8041 
 464   0.0000       3.307466        90.0007 
 465   0.0000       3.308475        90.0282 
 466   0.0000       3.317305        90.2684 
 467   0.0000       3.321351        90.3785 
 468   0.0000       3.332512        90.6823 
 469   0.0000       3.336846        90.8002 
 470   0.0000       3.344872        91.0186 
 471   0.0000       3.353426        91.2514 
 472   0.0000       3.354730        91.2868 
 473   0.0000       3.360824        91.4527 
 474   0.0000       3.368895        91.6723 
 475   0.0000       3.374106        91.8141 
 476   0.0000       3.380465        91.9871 
 477   0.0000       3.388634        92.2094 
 478   0.0000       3.391568        92.2892 
 479   0.0000       3.400774        92.5398 
 480   0.0000       3.406533        92.6965 
 481   0.0000       3.409001        92.7636 
 482   0.0000       3.416027        92.9548 
 483   0.0000       3.418712        93.0279 
 484   0.0000       3.426895        93.2506 
 485   0.0000       3.429318        93.3165 
 486   0.0000       3.433645        93.4342 
 487   0.0000       3.433945        93.4424 
 488   0.0000       3.438852        93.5759 
 489   0.0000       3.445927        93.7684 
 490   0.0000       3.457341        94.0790 
 491   0.0000       3.460763        94.1722 
 492   0.0000       3.474927        94.5576 
 493   0.0000       3.482465        94.7627 
 494   0.0000       3.487103        94.8889 
 495   0.0000       3.490557        94.9829 
 496   0.0000       3.501082        95.2693 
 497   0.0000       3.502847        95.3173 
 498   0.0000       3.508670        95.4758 
 499   0.0000       3.518015        95.7301 
 500   0.0000       3.532375        96.1208 
 501   0.0000       3.534942        96.1907 
 502   0.0000       3.537394        96.2574 
 503   0.0000       3.541234        96.3619 
 504   0.0000       3.556803        96.7855 
 505   0.0000       3.561869        96.9234 
 506   0.0000       3.572118        97.2023 
 507   0.0000       3.577161        97.3395 
 508   0.0000       3.583152        97.5025 
 509   0.0000       3.589443        97.6737 
 510   0.0000       3.599179        97.9386 
 511   0.0000       3.601924        98.0133 
 512   0.0000       3.614093        98.3445 
 513   0.0000       3.620351        98.5148 
 514   0.0000       3.624046        98.6153 
 515   0.0000       3.630054        98.7788 
 516   0.0000       3.637140        98.9716 
 517   0.0000       3.640480        99.0625 
 518   0.0000       3.649343        99.3037 
 519   0.0000       3.651685        99.3674 
 520   0.0000       3.656547        99.4997 
 521   0.0000       3.670409        99.8769 
 522   0.0000       3.673954        99.9734 
 523   0.0000       3.676130       100.0326 
 524   0.0000       3.682575       100.2080 
 525   0.0000       3.692423       100.4760 
 526   0.0000       3.695488       100.5593 
 527   0.0000       3.704477       100.8040 
 528   0.0000       3.712464       101.0213 
 529   0.0000       3.713469       101.0486 
 530   0.0000       3.729700       101.4903 
 531   0.0000       3.736755       101.6823 
 532   0.0000       3.745562       101.9219 
 533   0.0000       3.748429       102.0000 
 534   0.0000       3.751097       102.0725 
 535   0.0000       3.757011       102.2335 
 536   0.0000       3.762114       102.3723 
 537   0.0000       3.770451       102.5992 
 538   0.0000       3.776206       102.7558 
 539   0.0000       3.783842       102.9636 
 540   0.0000       3.790823       103.1535 
 541   0.0000       3.797393       103.3323 
 542   0.0000       3.804953       103.5380 
 543   0.0000       3.810613       103.6921 
 544   0.0000       3.818352       103.9027 
 545   0.0000       3.828112       104.1682 
 546   0.0000       3.837129       104.4136 
 547   0.0000       3.840676       104.5101 
 548   0.0000       3.846977       104.6816 
 549   0.0000       3.853583       104.8613 
 550   0.0000       3.862146       105.0943 
 551   0.0000       3.870917       105.3330 
 552   0.0000       3.884403       105.7000 
 553   0.0000       3.889730       105.8449 
 554   0.0000       3.898818       106.0922 
 555   0.0000       3.911246       106.4304 
 556   0.0000       3.919750       106.6618 
 557   0.0000       3.923414       106.7615 
 558   0.0000       3.930824       106.9632 
 559   0.0000       3.943785       107.3159 
 560   0.0000       3.948080       107.4327 
 561   0.0000       3.956471       107.6611 
 562   0.0000       3.968336       107.9839 
 563   0.0000       3.971664       108.0745 
 564   0.0000       3.987608       108.5083 
 565   0.0000       3.991674       108.6190 
 566   0.0000       4.000584       108.8614 
 567   0.0000       4.007232       109.0423 
 568   0.0000       4.015797       109.2754 
 569   0.0000       4.020867       109.4133 
 570   0.0000       4.037208       109.8580 
 571   0.0000       4.046414       110.1085 
 572   0.0000       4.060173       110.4829 
 573   0.0000       4.066263       110.6487 
 574   0.0000       4.067337       110.6779 
 575   0.0000       4.071912       110.8023 
 576   0.0000       4.080868       111.0461 
 577   0.0000       4.091949       111.3476 
 578   0.0000       4.095886       111.4547 
 579   0.0000       4.108408       111.7955 
 580   0.0000       4.117871       112.0530 
 581   0.0000       4.132441       112.4494 
 582   0.0000       4.133362       112.4745 
 583   0.0000       4.139946       112.6536 
 584   0.0000       4.148033       112.8737 
 585   0.0000       4.157143       113.1216 
 586   0.0000       4.161755       113.2471 
 587   0.0000       4.171734       113.5187 
 588   0.0000       4.177692       113.6808 
 589   0.0000       4.182022       113.7986 
 590   0.0000       4.187636       113.9514 
 591   0.0000       4.189730       114.0083 
 592   0.0000       4.196263       114.1861 
 593   0.0000       4.205490       114.4372 
 594   0.0000       4.213375       114.6518 
 595   0.0000       4.224763       114.9617 
 596   0.0000       4.227446       115.0347 
 597   0.0000       4.241389       115.4141 
 598   0.0000       4.246076       115.5416 
 599   0.0000       4.253277       115.7375 
 600   0.0000       4.261310       115.9562 
 601   0.0000       4.265557       116.0717 
 602   0.0000       4.278612       116.4269 
 603   0.0000       4.279731       116.4574 
 604   0.0000       4.296454       116.9125 
 605   0.0000       4.298611       116.9712 
 606   0.0000       4.312736       117.3555 
 607   0.0000       4.317553       117.4866 
 608   0.0000       4.323636       117.6521 
 609   0.0000       4.334318       117.9428 
 610   0.0000       4.346683       118.2793 
 611   0.0000       4.348044       118.3163 
 612   0.0000       4.357420       118.5714 
 613   0.0000       4.375595       119.0660 
 614   0.0000       4.376425       119.0886 
 615   0.0000       4.380404       119.1968 
 616   0.0000       4.392417       119.5237 
 617   0.0000       4.405553       119.8812 
 618   0.0000       4.416918       120.1905 
 619   0.0000       4.420723       120.2940 
 620   0.0000       4.425672       120.4287 
 621   0.0000       4.442105       120.8758 
 622   0.0000       4.448219       121.0422 
 623   0.0000       4.450068       121.0925 
 624   0.0000       4.466730       121.5459 
 625   0.0000       4.470840       121.6577 
 626   0.0000       4.474678       121.7622 
 627   0.0000       4.491550       122.2213 
 628   0.0000       4.495216       122.3210 
 629   0.0000       4.504279       122.5677 
 630   0.0000       4.508279       122.6765 
 631   0.0000       4.519909       122.9930 
 632   0.0000       4.529961       123.2665 
 633   0.0000       4.541523       123.5811 
 634   0.0000       4.544303       123.6568 
 635   0.0000       4.546736       123.7230 
 636   0.0000       4.558283       124.0372 
 637   0.0000       4.571973       124.4097 
 638   0.0000       4.587572       124.8342 
 639   0.0000       4.590348       124.9097 
 640   0.0000       4.599358       125.1549 
 641   0.0000       4.604699       125.3002 
 642   0.0000       4.612972       125.5254 
 643   0.0000       4.622602       125.7874 
 644   0.0000       4.632078       126.0453 
 645   0.0000       4.634990       126.1245 
 646   0.0000       4.639142       126.2375 
 647   0.0000       4.645246       126.4036 
 648   0.0000       4.656454       126.7086 
 649   0.0000       4.661839       126.8551 
 650   0.0000       4.668907       127.0474 
 651   0.0000       4.671532       127.1188 
 652   0.0000       4.679614       127.3388 
 653   0.0000       4.689846       127.6172 
 654   0.0000       4.697335       127.8210 
 655   0.0000       4.704218       128.0083 
 656   0.0000       4.720267       128.4450 
 657   0.0000       4.730561       128.7251 
 658   0.0000       4.743109       129.0666 
 659   0.0000       4.754900       129.3874 
 660   0.0000       4.765672       129.6805 
 661   0.0000       4.772772       129.8737 
 662   0.0000       4.792176       130.4018 
 663   0.0000       4.812610       130.9578 
 664   0.0000       4.817198       131.0826 
 665   0.0000       4.827523       131.3636 
 666   0.0000       4.844988       131.8388 
 667   0.0000       4.868283       132.4727 
 668   0.0000       4.874125       132.6317 
 669   0.0000       4.899708       133.3278 
 670   0.0000       4.917910       133.8231 
 671   0.0000       4.940674       134.4426 
 672   0.0000       4.946873       134.6113 
 673   0.0000       4.959255       134.9482 
 674   0.0000       4.975092       135.3791 
 675   0.0000       4.988363       135.7403 
 676   0.0000       5.015744       136.4853 
 677   0.0000       5.021911       136.6531 
 678   0.0000       5.031485       136.9137 
 679   0.0000       5.046083       137.3109 
 680   0.0000       5.053530       137.5135 
 681   0.0000       5.070030       137.9625 
 682   0.0000       5.074107       138.0735 
 683   0.0000       5.086469       138.4099 
 684   0.0000       5.114390       139.1696 
 685   0.0000       5.129049       139.5685 
 686   0.0000       5.129183       139.5722 
 687   0.0000       5.135104       139.7333 
 688   0.0000       5.143750       139.9686 
 689   0.0000       5.153467       140.2330 
 690   0.0000       5.176232       140.8524 
 691   0.0000       5.182709       141.0287 
 692   0.0000       5.194806       141.3579 
 693   0.0000       5.206641       141.6799 
 694   0.0000       5.215600       141.9237 
 695   0.0000       5.219725       142.0360 
 696   0.0000       5.225498       142.1930 
 697   0.0000       5.232824       142.3924 
 698   0.0000       5.242381       142.6524 
 699   0.0000       5.250856       142.8831 
 700   0.0000       5.266940       143.3207 
 701   0.0000       5.277082       143.5967 
 702   0.0000       5.297398       144.1495 
 703   0.0000       5.311509       144.5335 
 704   0.0000       5.320966       144.7909 
 705   0.0000       5.329918       145.0344 
 706   0.0000       5.342429       145.3749 
 707   0.0000       5.364221       145.9679 
 708   0.0000       5.367521       146.0577 
 709   0.0000       5.381134       146.4281 
 710   0.0000       5.393217       146.7569 
 711   0.0000       5.400983       146.9682 
 712   0.0000       5.423282       147.5750 
 713   0.0000       5.454428       148.4225 
 714   0.0000       5.461710       148.6207 
 715   0.0000       5.479320       149.0999 
 716   0.0000       5.493697       149.4911 
 717   0.0000       5.503643       149.7618 
 718   0.0000       5.516281       150.1056 
 719   0.0000       5.530547       150.4938 
 720   0.0000       5.538638       150.7140 
 721   0.0000       5.545150       150.8912 
 722   0.0000       5.560675       151.3137 
 723   0.0000       5.574828       151.6988 
 724   0.0000       5.586055       152.0043 
 725   0.0000       5.603759       152.4860 
 726   0.0000       5.613706       152.7567 
 727   0.0000       5.626425       153.1028 
 728   0.0000       5.643400       153.5647 
 729   0.0000       5.646881       153.6594 
 730   0.0000       5.659329       153.9982 
 731   0.0000       5.671996       154.3429 
 732   0.0000       5.673767       154.3910 
 733   0.0000       5.703855       155.2098 
 734   0.0000       5.710846       155.4000 
 735   0.0000       5.728394       155.8775 
 736   0.0000       5.735238       156.0638 
 737   0.0000       5.746229       156.3629 
 738   0.0000       5.750914       156.4903 
 739   0.0000       5.755881       156.6255 
 740   0.0000       5.776871       157.1966 
 741   0.0000       5.778223       157.2334 
 742   0.0000       5.804817       157.9571 
 743   0.0000       5.806949       158.0151 
 744   0.0000       5.821653       158.4152 
 745   0.0000       5.846941       159.1034 
 746   0.0000       5.855506       159.3364 
 747   0.0000       5.863336       159.5495 
 748   0.0000       5.878355       159.9582 
 749   0.0000       5.911629       160.8636 
 750   0.0000       5.938697       161.6002 
 751   0.0000       5.965999       162.3431 
 752   0.0000       5.980855       162.7473 
 753   0.0000       6.002536       163.3373 
 754   0.0000       6.012478       163.6078 
 755   0.0000       6.025347       163.9580 
 756   0.0000       6.044196       164.4709 
 757   0.0000       6.054743       164.7579 
 758   0.0000       6.072963       165.2537 
 759   0.0000       6.095491       165.8667 
 760   0.0000       6.117894       166.4764 
 761   0.0000       6.160488       167.6354 
 762   0.0000       6.219468       169.2403 
 763   0.0000       6.240706       169.8182 
 764   0.0000       6.267890       170.5580 
 765   0.0000       6.291927       171.2120 
 766   0.0000       6.337918       172.4635 
 767   0.0000       6.347175       172.7154 
 768   0.0000       6.360847       173.0874 
 769   0.0000       6.367353       173.2645 
 770   0.0000       6.377226       173.5332 
 771   0.0000       6.396391       174.0546 
 772   0.0000       6.422574       174.7671 
 773   0.0000       6.445131       175.3809 
 774   0.0000       6.456335       175.6858 
 775   0.0000       6.498677       176.8380 
 776   0.0000       6.508374       177.1019 
 777   0.0000       6.548304       178.1884 
 778   0.0000       6.575586       178.9308 
 779   0.0000       6.614077       179.9782 
 780   0.0000       6.635981       180.5742 
 781   0.0000       6.671555       181.5422 
 782   0.0000       6.756634       183.8574 
 783   0.0000       6.782706       184.5668 
 784   0.0000       6.816284       185.4805 
 785   0.0000       6.899828       187.7539 
 786   0.0000       6.904571       187.8829 
 787   0.0000       6.919627       188.2926 
 788   0.0000       6.954256       189.2349 
 789   0.0000       7.020020       191.0245 
 790   0.0000       7.044945       191.7027 
 791   0.0000       7.071084       192.4140 
 792   0.0000       7.077161       192.5793 
 793   0.0000       7.130065       194.0189 
 794   0.0000       7.210114       196.1972 
 795   0.0000       7.243425       197.1036 
 796   0.0000       7.253408       197.3753 
 797   0.0000       7.278480       198.0575 
 798   0.0000       7.337232       199.6562 
 799   0.0000       7.372578       200.6180 
 800   0.0000       7.389020       201.0655 
 801   0.0000       7.530672       204.9200 
 802   0.0000       7.577233       206.1870 
 803   0.0000       7.585398       206.4092 
 804   0.0000       7.719168       210.0492 
 805   0.0000       7.751843       210.9384 
 806   0.0000       7.817116       212.7145 
 807   0.0000       7.930169       215.7909 
 808   0.0000       7.959313       216.5839 
 809   0.0000       9.519385       259.0356 
 810   0.0000       9.668304       263.0879 
 811   0.0000      10.784494       293.4610 
 812   0.0000      11.310084       307.7630 
 813   0.0000      11.955680       325.3306 
 814   0.0000      12.683079       345.1241 
 815   0.0000      12.849067       349.6409 
 816   0.0000      13.086244       356.0948 
 817   0.0000      13.166125       358.2685 
 818   0.0000      13.217584       359.6688 
 819   0.0000      13.401097       364.6624 
 820   0.0000      13.507567       367.5596 
 821   0.0000      13.723669       373.4400 
 822   0.0000      13.953835       379.7032 
 823   0.0000      14.041500       382.0886 
 824   0.0000      14.108293       383.9062 
 825   0.0000      14.532995       395.4629 
 826   0.0000      14.632441       398.1690 
 827   0.0000      16.019114       435.9023 

                    ********************************
                    * MULLIKEN POPULATION ANALYSIS *
                    ********************************

-----------------------
MULLIKEN ATOMIC CHARGES
-----------------------
   0 C :   -0.351712
   1 C :    0.040573
   2 O :   -0.369766
   3 C :    0.448874
   4 O :   -0.374817
   5 C :   -0.261428
   6 C :    0.160492
   7 C :   -0.279289
   8 N :   -0.123825
   9 C :    0.198312
  10 S :   -0.435374
  11 N :   -0.194392
  12 C :    0.054297
  13 C :    0.031514
  14 C :   -0.163684
  15 C :   -0.135397
  16 C :   -0.275510
  17 C :    0.319913
  18 O :   -0.356142
  19 C :   -0.289089
  20 H :    0.112943
  21 H :    0.123288
  22 H :    0.113947
  23 H :    0.109552
  24 H :    0.124964
  25 H :    0.123721
  26 H :    0.144176
  27 H :    0.094543
  28 H :    0.197838
  29 H :    0.192611
  30 H :    0.150571
  31 H :    0.148651
  32 H :    0.164165
  33 H :    0.134572
  34 H :    0.242013
  35 H :    0.178896
Sum of atomic charges:   -0.0000000

--------------------------------
MULLIKEN REDUCED ORBITAL CHARGES
--------------------------------
  0 C s       :     3.272239  s :     3.272239
      pz      :     1.022461  p :     2.998570
      px      :     0.996777
      py      :     0.979332
      dz2     :     0.014744  d :     0.076510
      dxz     :     0.006369
      dyz     :     0.025395
      dx2y2   :     0.010438
      dxy     :     0.019564
      f0      :     0.000528  f :     0.004393
      f+1     :     0.000293
      f-1     :     0.001192
      f+2     :     0.000127
      f-2     :     0.000642
      f+3     :     0.000741
      f-3     :     0.000870
  1 C s       :     3.165363  s :     3.165363
      pz      :     0.974909  p :     2.625652
      px      :     0.673201
      py      :     0.977543
      dz2     :     0.024861  d :     0.156958
      dxz     :     0.034028
      dyz     :     0.032046
      dx2y2   :     0.031915
      dxy     :     0.034109
      f0      :     0.001202  f :     0.011453
      f+1     :     0.002120
      f-1     :     0.001012
      f+2     :     0.001364
      f-2     :     0.001612
      f+3     :     0.002212
      f-3     :     0.001930
  2 O s       :     3.717429  s :     3.717429
      pz      :     1.783327  p :     4.619504
      px      :     1.442739
      py      :     1.393438
      dz2     :     0.004317  d :     0.030524
      dxz     :     0.004429
      dyz     :     0.003805
      dx2y2   :     0.012628
      dxy     :     0.005346
      f0      :     0.000354  f :     0.002310
      f+1     :     0.000215
      f-1     :     0.000343
      f+2     :     0.000327
[...]
 15 C s       :     2.705600  s :     2.705600
      pz      :     0.887435  p :     2.795393
      px      :     0.944389
      py      :     0.963570
      dz2     :     0.085347  d :     0.416794
      dxz     :     0.072436
      dyz     :     0.052966
      dx2y2   :     0.107912
      dxy     :     0.098132
      f0      :     0.002987  f :     0.041095
      f+1     :     0.005120
      f-1     :     0.005548
      f+2     :     0.007167
      f-2     :     0.006064
      f+3     :     0.007385
      f-3     :     0.006823
 16 C s       :     2.701605  s :     2.701605
      pz      :     0.931602  p :     2.867672
      px      :     0.967101
      py      :     0.968970
      dz2     :     0.039668  d :     0.390972
      dxz     :     0.060208
      dyz     :     0.080317
      dx2y2   :     0.097415
      dxy     :     0.113363
      f0      :     0.003974  f :     0.040348
      f+1     :     0.004758
      f-1     :     0.003410
      f+2     :     0.005892
      f-2     :     0.005220
      f+3     :     0.008579
      f-3     :     0.008514
 17 C s       :     2.700913  s :     2.700913
      pz      :     0.843733  p :     2.681551
      px      :     0.821230
      py      :     1.016588
      dz2     :     0.118448  d :     0.709839
      dxz     :     0.114372
      dyz     :     0.128007
      dx2y2   :     0.174838
      dxy     :     0.174174
      f0      :     0.008357  f :     0.099373
      f+1     :     0.016390
      f-1     :     0.008093
      f+2     :     0.015546
      f-2     :     0.014251
      f+3     :     0.016969
      f-3     :     0.019768
 18 O s       :     3.176936  s :     3.176936
      pz      :     1.448833  p :     4.345390
      px      :     1.397580
      py      :     1.498978
      dz2     :     0.007552  d :     0.075507
      dxz     :     0.017386
      dyz     :     0.016660
      dx2y2   :     0.017763
      dxy     :     0.016146
      f0      :     0.000571  f :     0.005060
      f+1     :     0.000750
      f-1     :     0.000345
      f+2     :     0.000711
      f-2     :     0.000895
      f+3     :     0.000785
      f-3     :     0.001004
 19 C s       :     2.694750  s :     2.694750
      pz      :     0.923559  p :     2.840887
      px      :     0.954847
      py      :     0.962481
      dz2     :     0.070150  d :     0.389086
      dxz     :     0.068548
      dyz     :     0.056328
      dx2y2   :     0.095577
      dxy     :     0.098483
      f0      :     0.003062  f :     0.040878
      f+1     :     0.005197
      f-1     :     0.005156
      f+2     :     0.007155
      f-2     :     0.006682
      f+3     :     0.007232
      f-3     :     0.006395
 20 H s       :     0.846578  s :     0.846578
      pz      :     0.059632  p :     0.163028
      px      :     0.045125
      py      :     0.058270
      dz2     :     0.007992  d :     0.028375
      dxz     :     0.003985
      dyz     :     0.006960
      dx2y2   :     0.004254
      dxy     :     0.005184
 21 H s       :     0.841090  s :     0.841090
      pz      :     0.042625  p :     0.151828
      px      :     0.065712
      py      :     0.043491
      dz2     :     0.003294  d :     0.027592
      dxz     :     0.007151
      dyz     :     0.002196
      dx2y2   :     0.007368
      dxy     :     0.007582
 22 H s       :     0.848222  s :     0.848222
      pz      :     0.066412  p :     0.152937
      px      :     0.039527
      py      :     0.046998
      dz2     :     0.008536  d :     0.027648
      dxz     :     0.007124
      dyz     :     0.007994
      dx2y2   :     0.001535
      dxy     :     0.002459
 23 H s       :     0.848864  s :     0.848864
      pz      :     0.077809  p :     0.154650
      px      :     0.028919
      py      :     0.047923
      dz2     :     0.009800  d :     0.027548
      dxz     :     0.005351
      dyz     :     0.009209
      dx2y2   :     0.001400
      dxy     :     0.001787
 24 H s       :     0.851793  s :     0.851793
      pz      :     0.050707  p :     0.145291
      px      :     0.033894
      py      :     0.060689
      dz2     :     0.005949  d :     0.027079
      dxz     :     0.003940
      dyz     :     0.006259
      dx2y2   :     0.005741
      dxy     :     0.005191
 25 H s       :     0.831616  s :     0.831616
      pz      :     0.043948  p :     0.150696
      px      :     0.054528
      py      :     0.052220
      dz2     :     0.003917  d :     0.027796
      dxz     :     0.005495
      dyz     :     0.004517
      dx2y2   :     0.007560
      dxy     :     0.006307
 26 H s       :     0.823325  s :     0.823325
      pz      :     0.057912  p :     0.151738
      px      :     0.054310
      py      :     0.039516
      dz2     :     0.007570  d :     0.027678
      dxz     :     0.006917
      dyz     :     0.004965
      dx2y2   :     0.003325
      dxy     :     0.004900
 27 H s       :     0.844235  s :     0.844235
      pz      :     0.037617  p :     0.150376
      px      :     0.047944
      py      :     0.064816
      dz2     :     0.002776  d :     0.027673
      dxz     :     0.002670
      dyz     :     0.006458
      dx2y2   :     0.008073
      dxy     :     0.007696
 28 H s       :     0.742276  s :     0.742276
      pz      :     0.053371  p :     0.253612
      px      :     0.084148
      py      :     0.116094
      dz2     :     0.005822  d :     0.061747
      dxz     :     0.002389
      dyz     :     0.015882
      dx2y2   :     0.018158
      dxy     :     0.019496
 29 H s       :     0.748927  s :     0.748927
      pz      :     0.113285  p :     0.254009
      px      :     0.096188
      py      :     0.044536
      dz2     :     0.020828  d :     0.061412
      dxz     :     0.016094
      dyz     :     0.011240
      dx2y2   :     0.007979
      dxy     :     0.005273
 30 H s       :     0.831327  s :     0.831327
      pz      :     0.039227  p :     0.147430
      px      :     0.067299
      py      :     0.040904
      dz2     :     0.003164  d :     0.028558
      dxz     :     0.007478
      dyz     :     0.003012
      dx2y2   :     0.007363
      dxy     :     0.007540
 31 H s       :     0.843016  s :     0.843016
      pz      :     0.052480  p :     0.157363
      px      :     0.068441
      py      :     0.036442
      dz2     :     0.004677  d :     0.027482
      dxz     :     0.007131
      dyz     :     0.002734
      dx2y2   :     0.006326
      dxy     :     0.006615
 32 H s       :     0.841638  s :     0.841638
      pz      :     0.037705  p :     0.151213
      px      :     0.040412
      py      :     0.073096
      dz2     :     0.002661  d :     0.026424
      dxz     :     0.001095
      dyz     :     0.006872
      dx2y2   :     0.007834
      dxy     :     0.007963
 33 H s       :     0.847381  s :     0.847381
      pz      :     0.057345  p :     0.158611
      px      :     0.047355
      py      :     0.053912
      dz2     :     0.005821  d :     0.027706
      dxz     :     0.004567
      dyz     :     0.006020
      dx2y2   :     0.005902
      dxy     :     0.005396
 34 H s       :     0.705617  s :     0.705617
      pz      :     0.116245  p :     0.347265
      px      :     0.082349
      py      :     0.148672
      dz2     :     0.023750  d :     0.099414
      dxz     :     0.011527
      dyz     :     0.024384
      dx2y2   :     0.020340
      dxy     :     0.019413
 35 H s       :     0.838161  s :     0.838161
      pz      :     0.040466  p :     0.156754
      px      :     0.041724
      py      :     0.074564
      dz2     :     0.002645  d :     0.028070
      dxz     :     0.001200
      dyz     :     0.007674
      dx2y2   :     0.008198
      dxy     :     0.008353


                      *****************************
                      * MAYER POPULATION ANALYSIS *
                      *****************************

  NA   - Mulliken gross atomic population
  ZA   - Total nuclear charge
  QA   - Mulliken gross atomic charge
  VA   - Mayer's total valence
  BVA  - Mayer's bonded valence
  FA   - Mayer's free valence

  ATOM       NA         ZA         QA         VA         BVA        FA
  0 C      6.3517     6.0000    -0.3517     3.8727     3.8727     0.0000
  1 C      5.9594     6.0000     0.0406     3.8647     3.8647     0.0000
  2 O      8.3698     8.0000    -0.3698     1.9992     1.9992     0.0000
  3 C      5.5511     6.0000     0.4489     4.2503     4.2503    -0.0000
  4 O      8.3748     8.0000    -0.3748     2.1232     2.1232    -0.0000
  5 C      6.2614     6.0000    -0.2614     3.5914     3.5914     0.0000
  6 C      5.8395     6.0000     0.1605     3.8614     3.8614    -0.0000
  7 C      6.2793     6.0000    -0.2793     3.9046     3.9046    -0.0000
  8 N      7.1238     7.0000    -0.1238     3.2899     3.2899    -0.0000
  9 C      5.8017     6.0000     0.1983     4.1547     4.1547    -0.0000
 10 S     16.4354    16.0000    -0.4354     1.7626     1.7626     0.0000
 11 N      7.1944     7.0000    -0.1944     3.2508     3.2508     0.0000
 12 C      5.9457     6.0000     0.0543     3.9501     3.9501     0.0000
 13 C      5.9685     6.0000     0.0315     3.6984     3.6984    -0.0000
 14 C      6.1637     6.0000    -0.1637     3.8443     3.8443    -0.0000
 15 C      6.1354     6.0000    -0.1354     3.8036     3.8036    -0.0000
 16 C      6.2755     6.0000    -0.2755     3.7890     3.7890    -0.0000
 17 C      5.6801     6.0000     0.3199     3.8751     3.8751    -0.0000
 18 O      8.3561     8.0000    -0.3561     2.1202     2.1202    -0.0000
 19 C      6.2891     6.0000    -0.2891     3.8251     3.8251    -0.0000
 20 H      0.8871     1.0000     0.1129     0.9715     0.9715     0.0000
 21 H      0.8767     1.0000     0.1233     0.9824     0.9824    -0.0000
 22 H      0.8861     1.0000     0.1139     0.9786     0.9786    -0.0000
 23 H      0.8904     1.0000     0.1096     0.9568     0.9568     0.0000
 24 H      0.8750     1.0000     0.1250     0.9730     0.9730     0.0000
 25 H      0.8763     1.0000     0.1237     0.9795     0.9795    -0.0000
 26 H      0.8558     1.0000     0.1442     0.9772     0.9772    -0.0000
 27 H      0.9055     1.0000     0.0945     0.9851     0.9851     0.0000
 28 H      0.8022     1.0000     0.1978     1.0218     1.0218     0.0000
 29 H      0.8074     1.0000     0.1926     1.0198     1.0198    -0.0000
 30 H      0.8494     1.0000     0.1506     0.9867     0.9867     0.0000
 31 H      0.8513     1.0000     0.1487     0.9889     0.9889    -0.0000
 32 H      0.8358     1.0000     0.1642     0.9766     0.9766    -0.0000
 33 H      0.8654     1.0000     0.1346     0.9905     0.9905    -0.0000
 34 H      0.7580     1.0000     0.2420     1.0101     1.0101    -0.0000
 35 H      0.8211     1.0000     0.1789     0.9800     0.9800     0.0000

  Mayer bond orders larger than 0.100000
B(  0-C ,  1-C ) :   0.9624 B(  0-C , 20-H ) :   0.9672 B(  0-C , 21-H ) :   0.9758 
B(  0-C , 22-H ) :   0.9743 B(  1-C ,  2-O ) :   0.8906 B(  1-C , 23-H ) :   0.9694 
B(  1-C , 24-H ) :   0.9839 B(  2-O ,  3-C ) :   1.1423 B(  3-C ,  4-O ) :   2.0844 
B(  3-C ,  5-C ) :   0.9753 B(  5-C ,  6-C ) :   1.6814 B(  5-C , 12-C ) :   0.9663 
B(  6-C ,  7-C ) :   0.9598 B(  6-C ,  8-N ) :   1.1392 B(  7-C , 25-H ) :   0.9700 
B(  7-C , 26-H ) :   0.9570 B(  7-C , 27-H ) :   0.9859 B(  8-N ,  9-C ) :   1.1864 
B(  8-N , 28-H ) :   0.9494 B(  9-C , 10-S ) :   1.6178 B(  9-C , 11-N ) :   1.2905 
B( 11-N , 12-C ) :   0.9938 B( 11-N , 29-H ) :   0.9525 B( 12-C , 13-C ) :   0.9362 
B( 12-C , 30-H ) :   1.0083 B( 13-C , 14-C ) :   1.3579 B( 13-C , 19-C ) :   1.3589 
B( 14-C , 15-C ) :   1.3958 B( 14-C , 31-H ) :   0.9726 B( 15-C , 16-C ) :   1.3623 
B( 15-C , 32-H ) :   0.9704 B( 16-C , 17-C ) :   1.3282 B( 16-C , 33-H ) :   0.9835 
B( 17-C , 18-O ) :   1.1139 B( 17-C , 19-C ) :   1.3692 B( 18-O , 34-H ) :   0.9788 
B( 19-C , 35-H ) :   0.9537 

-------
TIMINGS
-------

Total SCF time: 0 days 2 hours 29 min 1 sec 

Total time                  ....    8941.851 sec
Sum of individual times     ....    8935.359 sec  ( 99.9%)

Fock matrix formation       ....    8919.368 sec  ( 99.7%)
Diagonalization             ....       1.853 sec  (  0.0%)
Density matrix formation    ....       0.214 sec  (  0.0%)
Population analysis         ....       0.345 sec  (  0.0%)
Initial guess               ....       6.797 sec  (  0.1%)
Orbital Transformation      ....       0.000 sec  (  0.0%)
Orbital Orthonormalization  ....       0.000 sec  (  0.0%)
DIIS solution               ....       3.107 sec  (  0.0%)
SOSCF solution              ....       2.134 sec  (  0.0%)

Maximum memory used throughout the entire SCF-calculation: 766.8 MB

------------------------------------------------------------------------------
                                ORCA  MP2 
------------------------------------------------------------------------------

Freezing NCore=48 chemical core electrons

-------------
RI-MP2 ENERGY
-------------
Dimension of the basis                    ...  828
Memory devoted to MP2                     ...  256 MB   
Data format for buffers                   ... DOUBLE
Compression type for matrix containers    ... UNCOMPRESSED
Overall scaling of the MP2 energy         ...   1.000e+00
Calculating two index integrals           ... done (    0.043 sec)
Cholesky decomposition of V**-1           ... done (    0.555 sec)

-----------------
RI-TRANSFORMATION (AUX index driven)
-----------------

Dimension of the orbital-basis         ... 828
Dimension of the aux-basis             ... 2141
Transformation of internal/external MOs...   24-  76 to   77- 827
Number Format for Storage              ... Double (8 Byte)
Integral mode                          ... Direct

First Phase: integral generation and transformation of MO indices
  Aux angular momentum 0               ... done (    5.356 sec)
  Aux angular momentum 1               ... done (    9.867 sec)
  Aux angular momentum 2               ... done (   11.153 sec)
  Aux angular momentum 3               ... done (    8.162 sec)
  Aux angular momentum 4               ... done (    2.741 sec)
Closing buffer VIA ( 0.63 GB; CompressionRatio= 1.00)
  Phase 1 completed in    37.949 sec
Second Phase: sorting and transformation of aux index

IA-Transformation
Memory available                       ... 156 MB 
Max. # MO pairs treated in a batch     ... 11    
# of internal orbitals                 ... 53
# batches for internal orbitals        ... 5
Closing buffer IAV ( 0.63 GB; CompressionRatio= 1.00)
(ia|v) transformation done in    22.547 sec

  Phase 2 completed in    22.559 sec
RI-Integral transformation completed in    60.580 sec
Opening buffers                              ... done

Starting loop over batches of integrals:

Operator 0  - window                       ... ( 24- 76)x( 77-827)
Operator 0  - Memory available             ...   256 MB
Operator 0  - Memory needed per MO         ...  12.3 MB
Operator 0  - Number of orbitals per batch ... 13
Operator 0  - Number of batches            ... 5

OPERATOR  0   PASS   0:  MOs    24 ...   36
  Reading integrals       ... ok
  Internal MO  26
  Internal MO  29
  Internal MO  32
  Internal MO  35
OPERATOR  0   PASS   1:  MOs    37 ...   49
  Reading integrals       ... ok
  Internal MO  38
  Internal MO  41
  Internal MO  44
  Internal MO  47
OPERATOR  0   PASS   2:  MOs    50 ...   62
  Reading integrals       ... ok
  Internal MO  50
  Internal MO  53
  Internal MO  56
  Internal MO  59
  Internal MO  62
OPERATOR  0   PASS   3:  MOs    63 ...   75
  Reading integrals       ... ok
  Internal MO  65
  Internal MO  68
  Internal MO  71
  Internal MO  74
OPERATOR  0   PASS   4:  MOs    76 ...   76
  Reading integrals       ... ok
Time spent in pair loops =    72.790 sec
Deleting buffer (Ka|jb)[aa] ...done

-----------------------------------------------
 RI-MP2 CORRELATION ENERGY:     -3.541591256 Eh
-----------------------------------------------


-------
TIMINGS
-------

Total time                :  134.131 sec
Integral trafo            :   60.600 sec ( 45.2%)
I/O of integrals          :    1.880 sec (  1.4%)
K(i,j) Operators          :   43.681 sec ( 32.6%)
T(i,j) pair energies      :    6.888 sec (  5.1%)
V-calculation             :    0.043 sec (  0.0%)
V**(-1/2)                 :    0.555 sec (  0.4%)
Gamma(ia|P)               :    0.000 sec (  0.0%)
Gamma-Trafo               :    0.000 sec (  0.0%)
D(virtual)                :    0.000 sec (  0.0%)
D(internal)               :    0.000 sec (  0.0%)
W(virtual)                :    0.000 sec (  0.0%)
W(internal)               :    0.000 sec (  0.0%)
L(virtual)                :    0.000 sec (  0.0%)
L(internal)               :    0.000 sec (  0.0%)
G(D)                      :    0.000 sec (  0.0%)
G(Z)                      :    0.000 sec (  0.0%)
Z-Vector Solution         :    0.000 sec (  0.0%)
3-Index Derivative        :    0.000 sec (  0.0%)
2-Index Derivative        :    0.000 sec (  0.0%)
Separable Gradient        :    0.000 sec (  0.0%)


---------------------------------------
MP2 TOTAL ENERGY:    -1274.319636094 Eh
---------------------------------------

Maximum memory used throughout the entire MP2-calculation: 306.3 MB

-------------------------   --------------------
FINAL SINGLE POINT ENERGY     -1274.319636094166
-------------------------   --------------------


                            ***************************************
                            *     ORCA property calculations      *
                            ***************************************


  WARNING: The energy has been calculated at the MP2 level but the densities
           used in the property calculations are still SCF densities
           MP2 response densities have not been calculated 
           use %mp2 Density relaxed end
           or  %mp2 Density unrelaxed end

                                    ---------------------
                                    Active property flags
                                    ---------------------
   (+) Dipole Moment


------------------------------------------------------------------------------
                       ORCA ELECTRIC PROPERTIES CALCULATION
------------------------------------------------------------------------------

Dipole Moment Calculation                       ... on
Quadrupole Moment Calculation                   ... off
Polarizability Calculation                      ... off
GBWName                                         ... CONFS/Conf485.orca.gbw
Electron density file                           ... CONFS/Conf485.orca.scfp
The origin for moment calculation is the CENTER OF MASS  = (32.786513, 31.352474 35.171017)

-------------
DIPOLE MOMENT
-------------
                                X             Y             Z
Electronic contribution:      9.58224       6.75058       5.67847
Nuclear contribution   :    -10.78841      -8.35216      -5.35532
                        -----------------------------------------
Total Dipole Moment    :     -1.20617      -1.60158       0.32315
                        -----------------------------------------
Magnitude (a.u.)       :      2.03084
Magnitude (Debye)      :      5.16199



--------------------
Rotational spectrum 
--------------------
 
Rotational constants in cm-1:     0.012042     0.009751     0.006702 
Rotational constants in MHz :   361.013575   292.314454   200.924749 

 Dipole components along the rotational axes: 
x,y,z [a.u.] :    -1.930593    -0.185595     0.602235 
x,y,z [Debye]:    -4.907177    -0.471744     1.530761 

 

Timings for individual modules:

Sum of individual times         ...     9081.419 sec (= 151.357 min)
GTO integral calculation        ...        4.374 sec (=   0.073 min)   0.0 %
SCF iterations                  ...     8941.981 sec (= 149.033 min)  98.5 %
MP2 module                      ...      135.065 sec (=   2.251 min)   1.5 %
                             ****ORCA TERMINATED NORMALLY****
TOTAL RUN TIME: 0 days 2 hours 31 minutes 22 seconds 985 msec
