
                                        *****************
                                        * O   R   C   A *
                                        *****************

                                            #,                                       
                                            ###                                      
                                            ####                                     
                                            #####                                    
                                            ######                                   
                                           ########,                                 
                                     ,,################,,,,,                         
                               ,,#################################,,                 
                          ,,##########################################,,             
                       ,#########################################, ''#####,          
                    ,#############################################,,   '####,        
                  ,##################################################,,,,####,       
                ,###########''''           ''''###############################       
              ,#####''   ,,,,##########,,,,          '''####'''          '####       
            ,##' ,,,,###########################,,,                        '##       
           ' ,,###''''                  '''############,,,                           
         ,,##''                                '''############,,,,        ,,,,,,###''
      ,#''                                            '''#######################'''  
     '                                                          ''''####''''         
             ,#######,   #######,   ,#######,      ##                                
            ,#'     '#,  ##    ##  ,#'     '#,    #''#        ######   ,####,        
            ##       ##  ##   ,#'  ##            #'  '#       #        #'  '#        
            ##       ##  #######   ##           ,######,      #####,   #    #        
            '#,     ,#'  ##    ##  '#,     ,#' ,#      #,         ##   #,  ,#        
             '#######'   ##     ##  '#######'  #'      '#     #####' # '####'        



                  #######################################################
                  #                        -***-                        #
                  #          Department of theory and spectroscopy      #
                  #    Directorship and core code : Frank Neese         #
                  #        Max Planck Institute fuer Kohlenforschung    #
                  #                Kaiser Wilhelm Platz 1               #
                  #                 D-45470 Muelheim/Ruhr               #
                  #                      Germany                        #
                  #                                                     #
                  #                  All rights reserved                #
                  #                        -***-                        #
                  #######################################################


                         Program Version 5.0.0 -  RELEASE  -
                                (SVN: $Rev: 19529$)
                ($Date: 2021-06-28 11:36:33 +0200 (Mo, 28 Jun 2021) $)


 With contributions from (in alphabetic order):
   Daniel Aravena         : Magnetic Suceptibility
   Michael Atanasov       : Ab Initio Ligand Field Theory (pilot matlab implementation)
   Alexander A. Auer      : GIAO ZORA, VPT2 properties, NMR spectrum
   Ute Becker             : Parallelization
   Giovanni Bistoni       : ED, misc. LED, open-shell LED, HFLD
   Martin Brehm           : Molecular dynamics
   Dmytro Bykov           : SCF Hessian
   Vijay G. Chilkuri      : MRCI spin determinant printing, contributions to CSF-ICE
   Dipayan Datta          : RHF DLPNO-CCSD density
   Achintya Kumar Dutta   : EOM-CC, STEOM-CC
   Dmitry Ganyushin       : Spin-Orbit,Spin-Spin,Magnetic field MRCI
   Miquel Garcia          : C-PCM Hessian, Gaussian charge scheme
   Yang Guo               : DLPNO-NEVPT2, F12-NEVPT2, CIM, IAO-localization
   Andreas Hansen         : Spin unrestricted coupled pair/coupled cluster methods
   Benjamin Helmich-Paris : MC-RPA, TRAH-SCF, COSX integrals
   Lee Huntington         : MR-EOM, pCC
   Robert Izsak           : Overlap fitted RIJCOSX, COSX-SCS-MP3, EOM
   Marcus Kettner         : VPT2
   Christian Kollmar      : KDIIS, OOCD, Brueckner-CCSD(T), CCSD density, CASPT2, CASPT2-K
   Simone Kossmann        : Meta GGA functionals, TD-DFT gradient, OOMP2, MP2 Hessian
   Martin Krupicka        : Initial AUTO-CI
   Lucas Lang             : DCDCAS
   Marvin Lechner         : AUTO-CI (C++ implementation), FIC-MRCC
   Dagmar Lenk            : GEPOL surface, SMD
   Dimitrios Liakos       : Extrapolation schemes; Compound Job, initial MDCI parallelization
   Dimitrios Manganas     : Further ROCIS development; embedding schemes
   Dimitrios Pantazis     : SARC Basis sets
   Anastasios Papadopoulos: AUTO-CI, single reference methods and gradients
   Taras Petrenko         : DFT Hessian,TD-DFT gradient, ASA, ECA, R-Raman, ABS, FL, XAS/XES, NRVS
   Peter Pinski           : DLPNO-MP2, DLPNO-MP2 Gradient
   Christoph Reimann      : Effective Core Potentials
   Marius Retegan         : Local ZFS, SOC
   Christoph Riplinger    : Optimizer, TS searches, QM/MM, DLPNO-CCSD(T), (RO)-DLPNO pert. Triples
   Tobias Risthaus        : Range-separated hybrids, TD-DFT gradient, RPA, STAB
   Michael Roemelt        : Original ROCIS implementation
   Masaaki Saitow         : Open-shell DLPNO-CCSD energy and density
   Barbara Sandhoefer     : DKH picture change effects
   Avijit Sen             : IP-ROCIS
   Kantharuban Sivalingam : CASSCF convergence, NEVPT2, FIC-MRCI
   Bernardo de Souza      : ESD, SOC TD-DFT
   Georgi Stoychev        : AutoAux, RI-MP2 NMR
   Willem Van den Heuvel  : Paramagnetic NMR
   Boris Wezisla          : Elementary symmetry handling
   Frank Wennmohs         : Technical directorship


 We gratefully acknowledge several colleagues who have allowed us to
 interface, adapt or use parts of their codes:
   Stefan Grimme, W. Hujo, H. Kruse, P. Pracht,  : VdW corrections, initial TS optimization,
                  C. Bannwarth, S. Ehlert          DFT functionals, gCP, sTDA/sTD-DF
   Ed Valeev, F. Pavosevic, A. Kumar             : LibInt (2-el integral package), F12 methods
   Garnet Chan, S. Sharma, J. Yang, R. Olivares  : DMRG
   Ulf Ekstrom                                   : XCFun DFT Library
   Mihaly Kallay                                 : mrcc  (arbitrary order and MRCC methods)
   Jiri Pittner, Ondrej Demel                    : Mk-CCSD
   Frank Weinhold                                : gennbo (NPA and NBO analysis)
   Christopher J. Cramer and Donald G. Truhlar   : smd solvation model
   Lars Goerigk                                  : TD-DFT with DH, B97 family of functionals
   V. Asgeirsson, H. Jonsson                     : NEB implementation
   FAccTs GmbH                                   : IRC, NEB, NEB-TS, DLPNO-Multilevel, CI-OPT
                                                   MM, QMMM, 2- and 3-layer-ONIOM, Crystal-QMMM,
                                                   LR-CPCM, SF, NACMEs, symmetry and pop. for TD-DFT,
                                                   nearIR, NL-DFT gradient (VV10), updates on ESD,
                                                   ML-optimized integration grids
   S Lehtola, MJT Oliveira, MAL Marques          : LibXC Library
   Liviu Ungur et al                             : ANISO software


 Your calculation uses the libint2 library for the computation of 2-el integrals
 For citations please refer to: http://libint.valeyev.net

 Your ORCA version has been built with support for libXC version: 5.1.0
 For citations please refer to: https://tddft.org/programs/libxc/

 This ORCA versions uses:
   CBLAS   interface :  Fast vector & matrix operations
   LAPACKE interface :  Fast linear algebra routines
   SCALAPACK package :  Parallel linear algebra routines
   Shared memory     :  Shared parallel matrices
   BLAS/LAPACK       :  OpenBLAS 0.3.15  USE64BITINT DYNAMIC_ARCH NO_AFFINITY Zen SINGLE_THREADED
        Core in use  :  Zen
   Copyright (c) 2011-2014, The OpenBLAS Project


================================================================================

----- Orbital basis set information -----
Your calculation utilizes the basis: cc-pVTZ 
       H, B-Ne : Obtained from the ccRepo (grant-hill.group.shef.ac.uk/ccrepo) Feb. 2017
                 T. H. Dunning, Jr., J. Chem. Phys. 90, 1007 (1989)
            He : Obtained from the ccRepo (grant-hill.group.shef.ac.uk/ccrepo) Feb. 2017
                 D. E. Woon, T. H. Dunning, Jr., J. Chem. Phys. 100, 2975 (1994)
  Li-Be, Na-Mg : Obtained from the ccRepo (grant-hill.group.shef.ac.uk/ccrepo) Feb. 2017
                 B. P. Prascher, D. E. Woon, K. A. Peterson, T. H. Dunning, Jr., A. K. Wilson, Theor. Chem. Acc. 128, 69 (2011)
         Al-Ar : Obtained from the ccRepo (grant-hill.group.shef.ac.uk/ccrepo) Feb. 2017
                 D. E. Woon, T. H. Dunning, Jr., J. Chem. Phys. 98, 1358 (1993)
            Ca : Obtained from the Peterson Research Group Website (tyr0.chem.wsu.edu/~kipeters) Feb. 2017
                 J. Koput, K. A. Peterson, J. Phys. Chem. 106, 9595 (2002)
         Sc-Zn : Obtained from the ccRepo (grant-hill.group.shef.ac.uk/ccrepo) Feb. 2017
                 N. B. Balabanov, K. A. Peterson, J. Chem. Phys. 123, 064107 (2005)
                 N. B. Balabanov, K. A. Peterson, J. Chem. Phys. 125, 074110 (2006)
         Ga-Kr : Obtained from the ccRepo (grant-hill.group.shef.ac.uk/ccrepo) Feb. 2017
                 A. K. Wilson, D. E. Woon, K. A. Peterson, T. H. Dunning, Jr., J. Chem. Phys. 110, 7667 (1999)
             Y : Obtained from the ccRepo (grant-hill.group.shef.ac.uk/ccrepo) Feb. 2017
                 K. A. Peterson, D. Figgen, M. Dolg, H. Stoll, J. Chem. Phys. 126, 124101 (2007)
        Ag, Au : Obtained from the Peterson Research Group Website (tyr0.chem.wsu.edu/~kipeters) Feb. 2017
                 K. A. Peterson, C. Puzzarini, Theor. Chem. Acc. 114, 283 (2005)

----- AuxC basis set information -----
Your calculation utilizes the auxiliary basis: cc-pVTZ/C 
  Obtained from the EMSL Basis Set Exchange (bse.pnl.gov) Feb. 2017
  H-He, B-F, Al-Ar, Ga-Kr : F. Weigend, A. Kohn, C. Hattig, J. Chem. Phys. 116, 3175 (2002)
             Li-Be, Na-Mg : C. Haettig, Phys. Chem. Chem. Phys. 7, 59 (2005)
                       Ne : C. Haettig, Phys. Chem. Chem. Phys. 7, 59 (2005)
                            F. Weigend, A. Kohn, C. Hattig, J. Chem. Phys. 116, 3175 (2002)
                    Sc-Zn : J. G. Hill, J. A. Platts, J. Chem. Phys. 128, 044104 (2008)

================================================================================
                                        WARNINGS
                       Please study these warnings very carefully!
================================================================================


WARNING: No MP2 level density has been requested!
         To caclulate MP2 level properties use
         %mp2 Density relaxed end
         or
         %mp2 Density unrelaxed end

WARNING: Post HF methods need fully converged wavefunctions
  ===> : Setting SCFConvForced true
         You can overwrite this default with %scf ConvForced false 


INFO   : the flag for use of the SHARK integral package has been found!

================================================================================
                                       INPUT FILE
================================================================================
NAME = CONFS/Conf728.orca
|  1> ! ri-mp2 cc-pvtz cc-pvtz/c TightSCF NoKeepInts
|  2> 
|  3> %scf
|  4>   MaxCore 4096
|  5> end
|  6> *xyz  0  1
|  7>     C       14.5341912   16.1116361   16.5723767
|  8>     C       15.5515641   15.0874410   17.1065554
|  9>     O       16.7240883   15.0134386   16.2656780
| 10>     C       17.8882729   15.7220042   16.4422127
| 11>     O       18.9494528   15.2136457   16.1324738
| 12>     C       17.8517056   16.8553696   17.4095627
| 13>     C       17.3319339   18.0562645   17.0701730
| 14>     C       16.7521974   18.4452906   15.7266178
| 15>     N       17.4217987   19.1302321   17.9577709
| 16>     C       18.1086115   19.1052981   19.1437220
| 17>     S       18.2041036   20.4360199   20.1204397
| 18>     N       18.7177042   17.9210800   19.4804817
| 19>     C       18.6192974   16.6593544   18.7187537
| 20>     C       18.0241635   15.5336620   19.5599449
| 21>     C       18.4879971   14.2159432   19.3913900
| 22>     C       17.9375531   13.1607283   20.1372636
| 23>     C       16.9123451   13.4231773   21.0614011
| 24>     C       16.4440579   14.7327968   21.2309796
| 25>     O       15.4451821   14.9877601   22.1126138
| 26>     C       16.9919025   15.7817496   20.4854029
| 27>     H       14.7371473   17.1135757   16.9614004
| 28>     H       13.5237346   15.8393952   16.9014590
| 29>     H       14.5355261   16.1365843   15.4754791
| 30>     H       15.8003483   15.2932397   18.1525985
| 31>     H       15.0702618   14.1010568   17.0829938
| 32>     H       16.5684772   17.5784693   15.0807942
| 33>     H       17.4467942   19.1023719   15.1877672
| 34>     H       15.8017544   18.9812898   15.8381775
| 35>     H       17.0084216   20.0169537   17.7150474
| 36>     H       19.2084623   17.9305430   20.3658791
| 37>     H       19.6434675   16.3602635   18.4497033
| 38>     H       19.2726348   14.0069390   18.6664927
| 39>     H       18.3044752   12.1455805   19.9938376
| 40>     H       16.4837943   12.6102603   21.6385135
| 41>     H       15.2394859   14.1575417   22.5687343
| 42>     H       16.6040914   16.7850436   20.6293083
| 43> *
| 44> 
| 45>                          ****END OF INPUT****
================================================================================

                       ****************************
                       * Single Point Calculation *
                       ****************************

---------------------------------
CARTESIAN COORDINATES (ANGSTROEM)
---------------------------------
  C     14.534191   16.111636   16.572377
  C     15.551564   15.087441   17.106555
  O     16.724088   15.013439   16.265678
  C     17.888273   15.722004   16.442213
  O     18.949453   15.213646   16.132474
  C     17.851706   16.855370   17.409563
  C     17.331934   18.056265   17.070173
  C     16.752197   18.445291   15.726618
  N     17.421799   19.130232   17.957771
  C     18.108611   19.105298   19.143722
  S     18.204104   20.436020   20.120440
  N     18.717704   17.921080   19.480482
  C     18.619297   16.659354   18.718754
  C     18.024164   15.533662   19.559945
  C     18.487997   14.215943   19.391390
  C     17.937553   13.160728   20.137264
  C     16.912345   13.423177   21.061401
  C     16.444058   14.732797   21.230980
  O     15.445182   14.987760   22.112614
  C     16.991902   15.781750   20.485403
  H     14.737147   17.113576   16.961400
  H     13.523735   15.839395   16.901459
  H     14.535526   16.136584   15.475479
  H     15.800348   15.293240   18.152598
  H     15.070262   14.101057   17.082994
  H     16.568477   17.578469   15.080794
  H     17.446794   19.102372   15.187767
  H     15.801754   18.981290   15.838177
  H     17.008422   20.016954   17.715047
  H     19.208462   17.930543   20.365879
  H     19.643467   16.360263   18.449703
  H     19.272635   14.006939   18.666493
  H     18.304475   12.145580   19.993838
  H     16.483794   12.610260   21.638513
  H     15.239486   14.157542   22.568734
  H     16.604091   16.785044   20.629308

----------------------------
CARTESIAN COORDINATES (A.U.)
----------------------------
  NO LB      ZA    FRAG     MASS         X           Y           Z
   0 C     6.0000    0    12.011   27.465641   30.446580   31.317253
   1 C     6.0000    0    12.011   29.388197   28.511132   32.326705
   2 O     8.0000    0    15.999   31.603947   28.371287   30.737677
   3 C     6.0000    0    12.011   33.803937   29.710282   31.071279
   4 O     8.0000    0    15.999   35.809276   28.749624   30.485957
   5 C     6.0000    0    12.011   33.734835   31.852032   32.899306
   6 C     6.0000    0    12.011   32.752608   34.121395   32.257952
   7 C     6.0000    0    12.011   31.657065   34.856548   29.719001
   8 N     7.0000    0    14.007   32.922428   36.150900   33.935269
   9 C     6.0000    0    12.011   34.220316   36.103781   36.176392
  10 S    16.0000    0    32.060   34.400770   38.618481   38.022121
  11 N     7.0000    0    14.007   35.371335   33.865933   36.812775
  12 C     6.0000    0    12.011   35.185373   31.481617   35.373318
  13 C     6.0000    0    12.011   34.060733   29.354367   36.962939
  14 C     6.0000    0    12.011   34.937251   26.864239   36.644416
  15 C     6.0000    0    12.011   33.897063   24.870172   38.053913
  16 C     6.0000    0    12.011   31.959701   25.366129   39.800280
  17 C     6.0000    0    12.011   31.074766   27.840951   40.120737
  18 O     8.0000    0    15.999   29.187164   28.322762   41.786784
  19 C     6.0000    0    12.011   32.110042   29.823185   38.711801
  20 H     1.0000    0     1.008   27.849172   32.339971   32.052402
  21 H     1.0000    0     1.008   25.556155   29.932119   31.939129
  22 H     1.0000    0     1.008   27.468164   30.493725   29.244417
  23 H     1.0000    0     1.008   29.858331   28.900035   34.303440
  24 H     1.0000    0     1.008   28.478668   26.647136   32.282180
  25 H     1.0000    0     1.008   31.309884   33.218493   28.498571
  26 H     1.0000    0     1.008   32.969663   36.098251   28.700721
  27 H     1.0000    0     1.008   29.860988   35.869439   29.929818
  28 H     1.0000    0     1.008   32.141259   37.826561   33.476588
  29 H     1.0000    0     1.008   36.298733   33.883816   38.485934
  30 H     1.0000    0     1.008   37.120774   30.916417   34.864886
  31 H     1.0000    0     1.008   36.420002   26.469279   35.274559
  32 H     1.0000    0     1.008   34.590445   22.951821   37.782877
  33 H     1.0000    0     1.008   31.149857   23.829938   40.890864
  34 H     1.0000    0     1.008   28.798455   26.753877   42.648727
  35 H     1.0000    0     1.008   31.377185   31.719136   38.983743

--------------------------------
INTERNAL COORDINATES (ANGSTROEM)
--------------------------------
 C      0   0   0     0.000000000000     0.00000000     0.00000000
 C      1   0   0     1.539275837546     0.00000000     0.00000000
 O      2   1   0     1.444771316376   111.62315787     0.00000000
 C      3   2   1     1.374247245835   125.89745425    93.45314467
 O      4   3   2     1.216745384565   119.38740337   146.65598116
 C      4   3   2     1.490510087133   117.04211964   347.05342050
 C      6   4   3     1.351849307221   121.46481803   280.40856758
 C      7   6   4     1.514125586390   126.74323794   358.99874882
 N      7   6   4     1.396177682178   119.93203944   185.75115005
 C      9   7   6     1.370698193692   124.63221049     5.65165735
 S     10   9   7     1.653455991447   121.69468636   178.17597529
 N     10   9   7     1.373598748218   116.74318296   358.35066124
 C     12  10   9     1.477113717344   125.48183197   355.77510554
 C     13  12  10     1.526096449542   111.82675296   239.61676677
 C     14  13  12     1.407101701611   119.74859132   215.61048582
 C     15  14  13     1.404562034762   120.71429675   181.17266087
 C     16  15  14     1.404977238168   119.66464812     0.02504435
 C     17  16  15     1.401125620395   119.87368514     0.14098119
 O     18  17  16     1.356480007513   120.03037342   179.34022421
 C     18  17  16     1.398685203311   120.36798091   359.97672663
 H      1   2   3     1.093806920684   111.31081240   272.02419381
 H      1   2   3     1.097010851491   109.85053144   153.75968094
 H      1   2   3     1.097182090415   111.17808387    34.45028625
 H      2   1   3     1.094738713186   110.89859124   126.18764329
 H      2   1   3     1.097798179535   107.49512621   242.59625760
 H      8   7   6     1.096458116090   112.56244523    13.50781266
 H      8   7   6     1.097533834786   110.31379011   254.24226134
 H      8   7   6     1.096851222962   111.53571708   134.46674658
 H      9   7   6     1.008003234203   119.81427466   181.90549157
 H     12  10   9     1.012354491772   114.91807126   180.62801197
 H     13  12  10     1.100348980068   107.23329862   122.26241272
 H     15  14  13     1.088492154968   119.81553094     0.35985618
 H     16  15  14     1.088911337433   119.89319423   179.80871271
 H     17  16  15     1.085149095426   119.87123584   179.92203717
 H     19  18  17     0.969339687062   107.52404075     4.20307812
 H     20  18  17     1.085221205040   118.86074028   179.40707578

---------------------------
INTERNAL COORDINATES (A.U.)
---------------------------
 C      0   0   0     0.000000000000     0.00000000     0.00000000
 C      1   0   0     2.908809777524     0.00000000     0.00000000
 O      2   1   0     2.730222114095   111.62315787     0.00000000
 C      3   2   1     2.596950934923   125.89745425    93.45314467
 O      4   3   2     2.299315551540   119.38740337   146.65598116
 C      4   3   2     2.816655864529   117.04211964   347.05342050
 C      6   4   3     2.554624964978   121.46481803   280.40856758
 C      7   6   4     2.861282690640   126.74323794   358.99874882
 N      7   6   4     2.638393453610   119.93203944   185.75115005
 C      9   7   6     2.590244198339   124.63221049     5.65165735
 S     10   9   7     3.124578998325   121.69468636   178.17597529
 N     10   9   7     2.595725452028   116.74318296   358.35066124
 C     12  10   9     2.791340394438   125.48183197   355.77510554
 C     13  12  10     2.883904343584   111.82675296   239.61676677
 C     14  13  12     2.659036858619   119.74859132   215.61048582
 C     15  14  13     2.654237583803   120.71429675   181.17266087
 C     16  15  14     2.655022204531   119.66464812     0.02504435
 C     17  16  15     2.647743701766   119.87368514     0.14098119
 O     18  17  16     2.563375720339   120.03037342   179.34022421
 C     18  17  16     2.643131981825   120.36798091   359.97672663
 H      1   2   3     2.066995523481   111.31081240   272.02419381
 H      1   2   3     2.073050075258   109.85053144   153.75968094
 H      1   2   3     2.073373669927   111.17808387    34.45028625
 H      2   1   3     2.068756356124   110.89859124   126.18764329
 H      2   1   3     2.074537909638   107.49512621   242.59625760
 H      8   7   6     2.072005556725   112.56244523    13.50781266
 H      8   7   6     2.074038370458   110.31379011   254.24226134
 H      8   7   6     2.072748421055   111.53571708   134.46674658
 H      9   7   6     1.904850054750   119.81427466   181.90549157
 H     12  10   9     1.913072739895   114.91807126   180.62801197
 H     13  12  10     2.079358224068   107.23329862   122.26241272
 H     15  14  13     2.056952071811   119.81553094     0.35985618
 H     16  15  14     2.057744211870   119.89319423   179.80871271
 H     17  16  15     2.050634604827   119.87123584   179.92203717
 H     19  18  17     1.831786539288   107.52404075     4.20307812
 H     20  18  17     2.050770872250   118.86074028   179.40707578

---------------------
BASIS SET INFORMATION
---------------------
There are 5 groups of distinct atoms

 Group   1 Type C   : 18s5p2d1f contracted to 4s3p2d1f pattern {8811/311/11/1}
 Group   2 Type O   : 18s5p2d1f contracted to 4s3p2d1f pattern {8811/311/11/1}
 Group   3 Type N   : 18s5p2d1f contracted to 4s3p2d1f pattern {8811/311/11/1}
 Group   4 Type S   : 41s16p2d1f contracted to 5s4p2d1f pattern {13131311/7711/11/1}
 Group   5 Type H   : 5s2p1d contracted to 3s2p1d pattern {311/11/1}

Atom   0C    basis set group =>   1
Atom   1C    basis set group =>   1
Atom   2O    basis set group =>   2
Atom   3C    basis set group =>   1
Atom   4O    basis set group =>   2
Atom   5C    basis set group =>   1
Atom   6C    basis set group =>   1
Atom   7C    basis set group =>   1
Atom   8N    basis set group =>   3
Atom   9C    basis set group =>   1
Atom  10S    basis set group =>   4
Atom  11N    basis set group =>   3
Atom  12C    basis set group =>   1
Atom  13C    basis set group =>   1
Atom  14C    basis set group =>   1
Atom  15C    basis set group =>   1
Atom  16C    basis set group =>   1
Atom  17C    basis set group =>   1
Atom  18O    basis set group =>   2
Atom  19C    basis set group =>   1
Atom  20H    basis set group =>   5
Atom  21H    basis set group =>   5
Atom  22H    basis set group =>   5
Atom  23H    basis set group =>   5
Atom  24H    basis set group =>   5
Atom  25H    basis set group =>   5
Atom  26H    basis set group =>   5
Atom  27H    basis set group =>   5
Atom  28H    basis set group =>   5
Atom  29H    basis set group =>   5
Atom  30H    basis set group =>   5
Atom  31H    basis set group =>   5
Atom  32H    basis set group =>   5
Atom  33H    basis set group =>   5
Atom  34H    basis set group =>   5
Atom  35H    basis set group =>   5
---------------------------------
AUXILIARY/C BASIS SET INFORMATION
---------------------------------
There are 5 groups of distinct atoms

 Group   1 Type C   : 8s6p5d3f1g contracted to 8s6p5d3f1g pattern {11111111/111111/11111/111/1}
 Group   2 Type O   : 8s6p5d3f1g contracted to 8s6p5d3f1g pattern {11111111/111111/11111/111/1}
 Group   3 Type N   : 8s6p5d3f1g contracted to 8s6p5d3f1g pattern {11111111/111111/11111/111/1}
 Group   4 Type S   : 10s8p7d5f2g contracted to 10s8p7d5f2g pattern {1111111111/11111111/1111111/11111/11}
 Group   5 Type H   : 4s3p2d1f contracted to 4s3p2d1f pattern {1111/111/11/1}

Atom   0C    basis set group =>   1
Atom   1C    basis set group =>   1
Atom   2O    basis set group =>   2
Atom   3C    basis set group =>   1
Atom   4O    basis set group =>   2
Atom   5C    basis set group =>   1
Atom   6C    basis set group =>   1
Atom   7C    basis set group =>   1
Atom   8N    basis set group =>   3
Atom   9C    basis set group =>   1
Atom  10S    basis set group =>   4
Atom  11N    basis set group =>   3
Atom  12C    basis set group =>   1
Atom  13C    basis set group =>   1
Atom  14C    basis set group =>   1
Atom  15C    basis set group =>   1
Atom  16C    basis set group =>   1
Atom  17C    basis set group =>   1
Atom  18O    basis set group =>   2
Atom  19C    basis set group =>   1
Atom  20H    basis set group =>   5
Atom  21H    basis set group =>   5
Atom  22H    basis set group =>   5
Atom  23H    basis set group =>   5
Atom  24H    basis set group =>   5
Atom  25H    basis set group =>   5
Atom  26H    basis set group =>   5
Atom  27H    basis set group =>   5
Atom  28H    basis set group =>   5
Atom  29H    basis set group =>   5
Atom  30H    basis set group =>   5
Atom  31H    basis set group =>   5
Atom  32H    basis set group =>   5
Atom  33H    basis set group =>   5
Atom  34H    basis set group =>   5
Atom  35H    basis set group =>   5
------------------------------------------------------------------------------
                           ORCA GTO INTEGRAL CALCULATION
------------------------------------------------------------------------------
------------------------------------------------------------------------------
                   ___                                                        
                  /   \      - P O W E R E D   B Y -                         
                 /     \                                                     
                 |  |  |   _    _      __       _____    __    __             
                 |  |  |  | |  | |    /  \     |  _  \  |  |  /  |          
                  \  \/   | |  | |   /    \    | | | |  |  | /  /          
                 / \  \   | |__| |  /  /\  \   | |_| |  |  |/  /          
                |  |  |   |  __  | /  /__\  \  |    /   |      \           
                |  |  |   | |  | | |   __   |  |    \   |  |\   \          
                \     /   | |  | | |  |  |  |  | |\  \  |  | \   \       
                 \___/    |_|  |_| |__|  |__|  |_| \__\ |__|  \__/        
                                                                              
                      - O R C A' S   B I G   F R I E N D -                    
                                      &                                       
                       - I N T E G R A L  F E E D E R -                       
                                                                              
 v1 FN, 2020, v2 2021                                                         
------------------------------------------------------------------------------


Reading SHARK input file CONFS/Conf728.orca.SHARKINP.tmp ... ok
----------------------
SHARK INTEGRAL PACKAGE
----------------------

Number of atoms                             ...     36
Number of basis functions                   ...    828
Number of shells                            ...    298
Maximum angular momentum                    ...      3
Integral batch strategy                     ... SHARK/LIBINT Hybrid
RI-J (if used) integral strategy            ... SPLIT-RIJ (Revised 2003 algorithm where possible)
Printlevel                                  ...      1
Contraction scheme used                     ... SEGMENTED contraction
Coulomb Range Separation                    ... NOT USED
Exchange Range Separation                   ... NOT USED
Finite Nucleus Model                        ... NOT USED
Auxiliary Coulomb fitting basis             ... NOT available
Auxiliary J/K fitting basis                 ... NOT available
Auxiliary Correlation fitting basis         ... AVAILABLE
   # of basis functions in Aux-C            ...   2141
   # of shells in Aux-C                     ...    629
   Maximum angular momentum in Aux-C        ...      4
Auxiliary 'external' fitting basis          ... NOT available
Integral threshold                          ...     2.500000e-11
Primitive cut-off                           ...     2.500000e-12
Primitive pair pre-selection threshold      ...     2.500000e-12

Calculating pre-screening integrals         ... done (  0.9 sec) Dimension = 298
Organizing shell pair data                  ... done (  0.9 sec)
Shell pair information
Total number of shell pairs                 ...     44551
Shell pairs after pre-screening             ...     34526
Total number of primitive shell pairs       ...    234348
Primitive shell pairs kept                  ...     98671
          la=0 lb=0:   6866 shell pairs
          la=1 lb=0:   9579 shell pairs
          la=1 lb=1:   3387 shell pairs
          la=2 lb=0:   5505 shell pairs
          la=2 lb=1:   3796 shell pairs
          la=2 lb=2:   1088 shell pairs
          la=3 lb=0:   1993 shell pairs
          la=3 lb=1:   1371 shell pairs
          la=3 lb=2:    792 shell pairs
          la=3 lb=3:    149 shell pairs

Calculating one electron integrals          ... done (  0.3 sec)
Calculating RI/C V-Matrix + Cholesky decomp.... done (  0.6 sec)
Calculating Nuclear repulsion               ... done (  0.0 sec) ENN=   1729.494457990763 Eh

SHARK setup successfully completed in   3.4 seconds

Maximum memory used throughout the entire GTOINT-calculation: 514.9 MB
-------------------------------------------------------------------------------
                                 ORCA SCF
-------------------------------------------------------------------------------

------------
SCF SETTINGS
------------
Hamiltonian:
 Ab initio Hamiltonian  Method          .... Hartree-Fock(GTOs)


General Settings:
 Integral files         IntName         .... CONFS/Conf728.orca
 Hartree-Fock type      HFTyp           .... RHF
 Total Charge           Charge          ....    0
 Multiplicity           Mult            ....    1
 Number of Electrons    NEL             ....  154
 Basis Dimension        Dim             ....  828
 Nuclear Repulsion      ENuc            ....   1729.4944579908 Eh

Convergence Acceleration:
 DIIS                   CNVDIIS         .... on
   Start iteration      DIISMaxIt       ....    12
   Startup error        DIISStart       ....  0.200000
   # of expansion vecs  DIISMaxEq       ....     5
   Bias factor          DIISBfac        ....   1.050
   Max. coefficient     DIISMaxC        ....  10.000
 Trust-Rad. Augm. Hess. CNVTRAH         .... auto
   Auto Start mean grad. ratio tolernc. ....  1.125000
   Auto Start start iteration           ....    20
   Auto Start num. interpolation iter.  ....    10
   Max. Number of Micro iterations      ....    16
   Max. Number of Macro iterations      .... Maxiter - #DIIS iter
   Number of Davidson start vectors     ....     2
   Converg. threshold I  (grad. norm)   ....   1.000e-05
   Converg. threshold II (energy diff.) ....   1.000e-08
   Grad. Scal. Fac. for Micro threshold ....   0.100
   Minimum threshold for Micro iter.    ....   0.010
   NR start threshold (gradient norm)   ....   0.001
   Initial trust radius                 ....   0.400
   Minimum AH scaling param. (alpha)    ....   1.000
   Maximum AH scaling param. (alpha)    .... 1000.000
   Orbital update algorithm             .... Taylor
   White noise on init. David. guess    .... on
   Maximum white noise                  ....   0.010
   Quad. conv. algorithm                .... NR
 SOSCF                  CNVSOSCF        .... on
   Start iteration      SOSCFMaxIt      ....   150
   Startup grad/error   SOSCFStart      ....  0.003300
 Level Shifting         CNVShift        .... on
   Level shift para.    LevelShift      ....    0.2500
   Turn off err/grad.   ShiftErr        ....    0.0010
 Zerner damping         CNVZerner       .... off
 Static damping         CNVDamp         .... on
   Fraction old density DampFac         ....    0.7000
   Max. Damping (<1)    DampMax         ....    0.9800
   Min. Damping (>=0)   DampMin         ....    0.0000
   Turn off err/grad.   DampErr         ....    0.1000
 Fernandez-Rico         CNVRico         .... off

SCF Procedure:
 Maximum # iterations   MaxIter         ....   125
 SCF integral mode      SCFMode         .... Direct
   Integral package                     .... SHARK and LIBINT hybrid scheme
 Reset frequency        DirectResetFreq ....    20
 Integral Threshold     Thresh          ....  2.500e-11 Eh
 Primitive CutOff       TCut            ....  2.500e-12 Eh

Convergence Tolerance:
 Convergence Check Mode ConvCheckMode   .... Total+1el-Energy
 Convergence forced     ConvForced      .... 1
 Energy Change          TolE            ....  1.000e-08 Eh
 1-El. energy change                    ....  1.000e-05 Eh
 Orbital Gradient       TolG            ....  1.000e-05
 Orbital Rotation angle TolX            ....  1.000e-05
 DIIS Error             TolErr          ....  5.000e-07


Diagonalization of the overlap matrix:
Smallest eigenvalue                        ... 3.229e-05
Time for diagonalization                   ...    0.111 sec
Threshold for overlap eigenvalues          ... 1.000e-08
Number of eigenvalues below threshold      ... 0
Time for construction of square roots      ...    0.254 sec
Total time needed                          ...    0.366 sec

Time for model grid setup =    2.738 sec

------------------------------
INITIAL GUESS: MODEL POTENTIAL
------------------------------
Loading Hartree-Fock densities                     ... done
Calculating cut-offs                               ... done
Initializing the effective Hamiltonian             ... done
Setting up the integral package (SHARK)            ... done
Starting the Coulomb interaction                   ... done (   4.3 sec)
Reading the grid                                   ... done
Mapping shells                                     ... done
Starting the XC term evaluation                    ... done (   1.2 sec)
Transforming the Hamiltonian                       ... done (   0.1 sec)
Diagonalizing the Hamiltonian                      ... done (   0.1 sec)
Back transforming the eigenvectors                 ... done (   0.0 sec)
Now organizing SCF variables                       ... done
                      ------------------
                      INITIAL GUESS DONE (   9.2 sec)
                      ------------------
--------------
SCF ITERATIONS
--------------
ITER       Energy         Delta-E        Max-DP      RMS-DP      [F,P]     Damp
               ***  Starting incremental Fock matrix formation  ***
  0  -1269.9979163291   0.000000000000 0.04928864  0.00044788  0.3094362 0.7000
  1  -1270.2628507064  -0.264934377270 0.03608243  0.00036438  0.1832292 0.7000
                               ***Turning on DIIS***
  2  -1270.4282512603  -0.165400553920 0.02585432  0.00024242  0.1097782 0.7000
  3  -1272.5400523499  -2.111801089603 0.06325126  0.00051724  0.0829321 0.0000
  4  -1270.7381961274   1.801856222486 0.01292671  0.00010519  0.0064941 0.0000
  5  -1270.7932369234  -0.055040795927 0.00564940  0.00005373  0.0036503 0.0000
                      *** Initiating the SOSCF procedure ***
                           *** Shutting down DIIS ***
                      *** Re-Reading the Fockian *** 
                      *** Removing any level shift *** 
ITER      Energy       Delta-E        Grad      Rot      Max-DP    RMS-DP
  6  -1270.77254351   0.0206934130  0.001324  0.001324  0.002705  0.000027
               *** Restarting incremental Fock matrix formation ***
  7  -1270.78790842  -0.0153649108  0.000717  0.001755  0.001495  0.000018
  8  -1270.78795229  -0.0000438674  0.000361  0.002012  0.001610  0.000019
  9  -1270.78796935  -0.0000170622  0.000124  0.000231  0.000409  0.000005
 10  -1270.78797152  -0.0000021687  0.000029  0.000072  0.000125  0.000001
 11  -1270.78797171  -0.0000001899  0.000018  0.000071  0.000079  0.000001
 12  -1270.78797176  -0.0000000532  0.000008  0.000027  0.000028  0.000000
 13  -1270.78797177  -0.0000000085  0.000003  0.000008  0.000007  0.000000
                  ***Gradient check signals convergence***
              ***Rediagonalizing the Fockian in SOSCF/NRSCF***

               *****************************************************
               *                     SUCCESS                       *
               *           SCF CONVERGED AFTER  14 CYCLES          *
               *****************************************************


----------------
TOTAL SCF ENERGY
----------------

Total Energy       :        -1270.78797176 Eh          -34579.89872 eV

Components:
Nuclear Repulsion  :         1729.49445799 Eh           47061.93678 eV
Electronic Energy  :        -3000.28242975 Eh          -81641.83550 eV
One Electron Energy:        -5179.52190513 Eh         -140941.95639 eV
Two Electron Energy:         2179.23947538 Eh           59300.12088 eV

Virial components:
Potential Energy   :        -2539.78323144 Eh          -69111.01526 eV
Kinetic Energy     :         1268.99525968 Eh           34531.11654 eV
Virial Ratio       :            2.00141270


---------------
SCF CONVERGENCE
---------------

  Last Energy change         ...    1.0450e-08  Tolerance :   1.0000e-08
  Last MAX-Density change    ...    3.5233e-06  Tolerance :   1.0000e-07
  Last RMS-Density change    ...    3.7074e-08  Tolerance :   5.0000e-09
  Last Orbital Gradient      ...    1.5491e-06  Tolerance :   1.0000e-05
  Last Orbital Rotation      ...    3.7629e-06  Tolerance :   1.0000e-05

             **** THE GBW FILE WAS UPDATED (CONFS/Conf728.orca.gbw) ****
             **** DENSITY CONFS/Conf728.orca.scfp WAS UPDATED ****
             **** ENERGY FILE WAS UPDATED (CONFS/Conf728.orca.en.tmp) ****
             **** THE GBW FILE WAS UPDATED (CONFS/Conf728.orca.gbw) ****
             **** DENSITY CONFS/Conf728.orca.scfp WAS UPDATED ****
----------------
ORBITAL ENERGIES
----------------

  NO   OCC          E(Eh)            E(eV) 
   0   2.0000     -91.890253     -2500.4609 
   1   2.0000     -20.601765      -560.6025 
   2   2.0000     -20.596815      -560.4678 
   3   2.0000     -20.551792      -559.2427 
   4   2.0000     -15.626201      -425.2105 
   5   2.0000     -15.612475      -424.8371 
   6   2.0000     -11.398407      -310.1664 
   7   2.0000     -11.387153      -309.8602 
   8   2.0000     -11.328199      -308.2560 
   9   2.0000     -11.319409      -308.0168 
  10   2.0000     -11.317295      -307.9593 
  11   2.0000     -11.302242      -307.5496 
  12   2.0000     -11.266763      -306.5842 
  13   2.0000     -11.266632      -306.5806 
  14   2.0000     -11.264717      -306.5285 
  15   2.0000     -11.259729      -306.3928 
  16   2.0000     -11.248290      -306.0815 
  17   2.0000     -11.244112      -305.9679 
  18   2.0000     -11.241327      -305.8920 
  19   2.0000     -11.235290      -305.7278 
  20   2.0000      -8.895368      -242.0553 
  21   2.0000      -6.576958      -178.9681 
  22   2.0000      -6.574930      -178.9129 
  23   2.0000      -6.574356      -178.8973 
  24   2.0000      -1.446126       -39.3511 
  25   2.0000      -1.421580       -38.6832 
  26   2.0000      -1.358227       -36.9592 
  27   2.0000      -1.340203       -36.4688 
  28   2.0000      -1.240491       -33.7555 
  29   2.0000      -1.163419       -31.6582 
  30   2.0000      -1.126330       -30.6490 
  31   2.0000      -1.050289       -28.5798 
  32   2.0000      -1.039719       -28.2922 
  33   2.0000      -1.021309       -27.7912 
  34   2.0000      -1.005165       -27.3519 
  35   2.0000      -0.990582       -26.9551 
  36   2.0000      -0.928751       -25.2726 
  37   2.0000      -0.893151       -24.3039 
  38   2.0000      -0.853246       -23.2180 
  39   2.0000      -0.842607       -22.9285 
  40   2.0000      -0.838631       -22.8203 
  41   2.0000      -0.835529       -22.7359 
  42   2.0000      -0.755053       -20.5460 
  43   2.0000      -0.735393       -20.0111 
  44   2.0000      -0.731834       -19.9142 
  45   2.0000      -0.699216       -19.0266 
  46   2.0000      -0.690369       -18.7859 
  47   2.0000      -0.679928       -18.5018 
  48   2.0000      -0.676991       -18.4219 
  49   2.0000      -0.665546       -18.1104 
  50   2.0000      -0.654842       -17.8191 
  51   2.0000      -0.639922       -17.4132 
  52   2.0000      -0.634102       -17.2548 
  53   2.0000      -0.622171       -16.9301 
  54   2.0000      -0.610917       -16.6239 
  55   2.0000      -0.608365       -16.5545 
  56   2.0000      -0.605127       -16.4664 
  57   2.0000      -0.586992       -15.9729 
  58   2.0000      -0.579998       -15.7826 
  59   2.0000      -0.577287       -15.7088 
  60   2.0000      -0.567317       -15.4375 
  61   2.0000      -0.559173       -15.2159 
  62   2.0000      -0.539027       -14.6677 
  63   2.0000      -0.536026       -14.5860 
  64   2.0000      -0.523943       -14.2572 
  65   2.0000      -0.515694       -14.0328 
  66   2.0000      -0.503880       -13.7113 
  67   2.0000      -0.496500       -13.5104 
  68   2.0000      -0.489535       -13.3209 
  69   2.0000      -0.469239       -12.7686 
  70   2.0000      -0.453574       -12.3424 
  71   2.0000      -0.450119       -12.2484 
  72   2.0000      -0.357416        -9.7258 
  73   2.0000      -0.353324        -9.6144 
  74   2.0000      -0.330021        -8.9803 
  75   2.0000      -0.327209        -8.9038 
  76   2.0000      -0.319575        -8.6961 
  77   0.0000       0.089529         2.4362 
  78   0.0000       0.102646         2.7931 
  79   0.0000       0.116382         3.1669 
  80   0.0000       0.125598         3.4177 
  81   0.0000       0.128388         3.4936 
  82   0.0000       0.139970         3.8088 
  83   0.0000       0.149597         4.0707 
  84   0.0000       0.152781         4.1574 
  85   0.0000       0.157533         4.2867 
  86   0.0000       0.167759         4.5650 
  87   0.0000       0.174216         4.7407 
  88   0.0000       0.178881         4.8676 
  89   0.0000       0.190002         5.1702 
  90   0.0000       0.196060         5.3351 
  91   0.0000       0.200622         5.4592 
  92   0.0000       0.207983         5.6595 
  93   0.0000       0.219499         5.9729 
  94   0.0000       0.228533         6.2187 
  95   0.0000       0.234039         6.3685 
  96   0.0000       0.241809         6.5800 
  97   0.0000       0.246498         6.7076 
  98   0.0000       0.249189         6.7808 
  99   0.0000       0.285833         7.7779 
 100   0.0000       0.298557         8.1242 
 101   0.0000       0.306370         8.3367 
 102   0.0000       0.306540         8.3414 
 103   0.0000       0.319331         8.6894 
 104   0.0000       0.320733         8.7276 
 105   0.0000       0.337265         9.1774 
 106   0.0000       0.339500         9.2383 
 107   0.0000       0.344466         9.3734 
 108   0.0000       0.346453         9.4275 
 109   0.0000       0.357752         9.7349 
 110   0.0000       0.372553        10.1377 
 111   0.0000       0.374811        10.1991 
 112   0.0000       0.384287        10.4570 
 113   0.0000       0.390139        10.6162 
 114   0.0000       0.393904        10.7187 
 115   0.0000       0.399294        10.8654 
 116   0.0000       0.411529        11.1983 
 117   0.0000       0.414621        11.2824 
 118   0.0000       0.430332        11.7099 
 119   0.0000       0.435191        11.8421 
 120   0.0000       0.445691        12.1279 
 121   0.0000       0.449433        12.2297 
 122   0.0000       0.454761        12.3747 
 123   0.0000       0.458890        12.4870 
 124   0.0000       0.464984        12.6529 
 125   0.0000       0.477629        12.9969 
 126   0.0000       0.479593        13.0504 
 127   0.0000       0.489037        13.3074 
 128   0.0000       0.491147        13.3648 
 129   0.0000       0.493274        13.4227 
 130   0.0000       0.495833        13.4923 
 131   0.0000       0.506245        13.7756 
 132   0.0000       0.512211        13.9380 
 133   0.0000       0.516953        14.0670 
 134   0.0000       0.521569        14.1926 
 135   0.0000       0.528949        14.3934 
 136   0.0000       0.532799        14.4982 
 137   0.0000       0.536030        14.5861 
 138   0.0000       0.542599        14.7649 
 139   0.0000       0.549588        14.9550 
 140   0.0000       0.551792        15.0150 
 141   0.0000       0.557468        15.1695 
 142   0.0000       0.567963        15.4551 
 143   0.0000       0.571299        15.5458 
 144   0.0000       0.574711        15.6387 
 145   0.0000       0.578364        15.7381 
 146   0.0000       0.585253        15.9255 
 147   0.0000       0.588134        16.0039 
 148   0.0000       0.595761        16.2115 
 149   0.0000       0.601739        16.3741 
 150   0.0000       0.602427        16.3929 
 151   0.0000       0.604749        16.4560 
 152   0.0000       0.608039        16.5456 
 153   0.0000       0.615771        16.7560 
 154   0.0000       0.622633        16.9427 
 155   0.0000       0.625261        17.0142 
 156   0.0000       0.629408        17.1271 
 157   0.0000       0.637917        17.3586 
 158   0.0000       0.640337        17.4245 
 159   0.0000       0.643603        17.5133 
 160   0.0000       0.645295        17.5594 
 161   0.0000       0.651298        17.7227 
 162   0.0000       0.655702        17.8425 
 163   0.0000       0.666489        18.1361 
 164   0.0000       0.670156        18.2359 
 165   0.0000       0.678244        18.4560 
 166   0.0000       0.679618        18.4934 
 167   0.0000       0.684616        18.6293 
 168   0.0000       0.693975        18.8840 
 169   0.0000       0.699287        19.0286 
 170   0.0000       0.705870        19.2077 
 171   0.0000       0.709916        19.3178 
 172   0.0000       0.710459        19.3326 
 173   0.0000       0.717798        19.5323 
 174   0.0000       0.728751        19.8303 
 175   0.0000       0.733421        19.9574 
 176   0.0000       0.738840        20.1049 
 177   0.0000       0.745932        20.2978 
 178   0.0000       0.762449        20.7473 
 179   0.0000       0.766697        20.8629 
 180   0.0000       0.769889        20.9497 
 181   0.0000       0.778105        21.1733 
 182   0.0000       0.795672        21.6513 
 183   0.0000       0.801359        21.8061 
 184   0.0000       0.805001        21.9052 
 185   0.0000       0.812543        22.1104 
 186   0.0000       0.819919        22.3111 
 187   0.0000       0.824674        22.4405 
 188   0.0000       0.836343        22.7580 
 189   0.0000       0.844094        22.9690 
 190   0.0000       0.848419        23.0867 
 191   0.0000       0.852924        23.2092 
 192   0.0000       0.858641        23.3648 
 193   0.0000       0.866799        23.5868 
 194   0.0000       0.875285        23.8177 
 195   0.0000       0.882652        24.0182 
 196   0.0000       0.892792        24.2941 
 197   0.0000       0.897001        24.4086 
 198   0.0000       0.901909        24.5422 
 199   0.0000       0.910988        24.7893 
 200   0.0000       0.917463        24.9654 
 201   0.0000       0.919188        25.0124 
 202   0.0000       0.927535        25.2395 
 203   0.0000       0.939059        25.5531 
 204   0.0000       0.944257        25.6945 
 205   0.0000       0.951120        25.8813 
 206   0.0000       0.955290        25.9948 
 207   0.0000       0.961479        26.1632 
 208   0.0000       0.968874        26.3644 
 209   0.0000       0.974778        26.5251 
 210   0.0000       0.985520        26.8173 
 211   0.0000       0.993304        27.0292 
 212   0.0000       1.000772        27.2324 
 213   0.0000       1.007138        27.4056 
 214   0.0000       1.018358        27.7109 
 215   0.0000       1.019946        27.7541 
 216   0.0000       1.025535        27.9062 
 217   0.0000       1.033889        28.1335 
 218   0.0000       1.038943        28.2711 
 219   0.0000       1.046914        28.4880 
 220   0.0000       1.049534        28.5593 
 221   0.0000       1.061756        28.8918 
 222   0.0000       1.076637        29.2968 
 223   0.0000       1.082783        29.4640 
 224   0.0000       1.085585        29.5403 
 225   0.0000       1.089898        29.6576 
 226   0.0000       1.096363        29.8336 
 227   0.0000       1.097891        29.8751 
 228   0.0000       1.109736        30.1975 
 229   0.0000       1.115016        30.3411 
 230   0.0000       1.119527        30.4639 
 231   0.0000       1.131536        30.7907 
 232   0.0000       1.143558        31.1178 
 233   0.0000       1.148914        31.2636 
 234   0.0000       1.152411        31.3587 
 235   0.0000       1.161355        31.6021 
 236   0.0000       1.168950        31.8088 
 237   0.0000       1.181796        32.1583 
 238   0.0000       1.189416        32.3657 
 239   0.0000       1.194995        32.5175 
 240   0.0000       1.203682        32.7539 
 241   0.0000       1.210489        32.9391 
 242   0.0000       1.216863        33.1125 
 243   0.0000       1.220932        33.2233 
 244   0.0000       1.223764        33.3003 
 245   0.0000       1.232783        33.5457 
 246   0.0000       1.241375        33.7795 
 247   0.0000       1.251329        34.0504 
 248   0.0000       1.257613        34.2214 
 249   0.0000       1.261468        34.3263 
 250   0.0000       1.265410        34.4336 
 251   0.0000       1.273162        34.6445 
 252   0.0000       1.276365        34.7316 
 253   0.0000       1.281838        34.8806 
 254   0.0000       1.302034        35.4301 
 255   0.0000       1.314403        35.7667 
 256   0.0000       1.319647        35.9094 
 257   0.0000       1.332715        36.2650 
 258   0.0000       1.335499        36.3408 
 259   0.0000       1.346907        36.6512 
 260   0.0000       1.347733        36.6737 
 261   0.0000       1.363226        37.0953 
 262   0.0000       1.365974        37.1700 
 263   0.0000       1.370486        37.2928 
 264   0.0000       1.373390        37.3718 
 265   0.0000       1.390058        37.8254 
 266   0.0000       1.390648        37.8414 
 267   0.0000       1.395532        37.9743 
 268   0.0000       1.410660        38.3860 
 269   0.0000       1.417562        38.5738 
 270   0.0000       1.427039        38.8317 
 271   0.0000       1.441398        39.2224 
 272   0.0000       1.451785        39.5051 
 273   0.0000       1.459195        39.7067 
 274   0.0000       1.461962        39.7820 
 275   0.0000       1.469984        40.0003 
 276   0.0000       1.476428        40.1757 
 277   0.0000       1.483460        40.3670 
 278   0.0000       1.491399        40.5830 
 279   0.0000       1.494052        40.6552 
 280   0.0000       1.498745        40.7829 
 281   0.0000       1.508842        41.0577 
 282   0.0000       1.513056        41.1724 
 283   0.0000       1.517104        41.2825 
 284   0.0000       1.523991        41.4699 
 285   0.0000       1.533986        41.7419 
 286   0.0000       1.541005        41.9329 
 287   0.0000       1.544685        42.0330 
 288   0.0000       1.552232        42.2384 
 289   0.0000       1.555605        42.3302 
 290   0.0000       1.564588        42.5746 
 291   0.0000       1.570754        42.7424 
 292   0.0000       1.583573        43.0912 
 293   0.0000       1.598093        43.4863 
 294   0.0000       1.602790        43.6141 
 295   0.0000       1.610183        43.8153 
 296   0.0000       1.617893        44.0251 
 297   0.0000       1.622130        44.1404 
 298   0.0000       1.626514        44.2597 
 299   0.0000       1.636556        44.5329 
 300   0.0000       1.638270        44.5796 
 301   0.0000       1.648938        44.8699 
 302   0.0000       1.655403        45.0458 
 303   0.0000       1.663041        45.2536 
 304   0.0000       1.670554        45.4581 
 305   0.0000       1.680883        45.7392 
 306   0.0000       1.688160        45.9372 
 307   0.0000       1.695654        46.1411 
 308   0.0000       1.702313        46.3223 
 309   0.0000       1.707472        46.4627 
 310   0.0000       1.719212        46.7821 
 311   0.0000       1.738547        47.3083 
 312   0.0000       1.744755        47.4772 
 313   0.0000       1.752274        47.6818 
 314   0.0000       1.756925        47.8084 
 315   0.0000       1.767092        48.0850 
 316   0.0000       1.774541        48.2877 
 317   0.0000       1.785053        48.5737 
 318   0.0000       1.797343        48.9082 
 319   0.0000       1.811444        49.2919 
 320   0.0000       1.824963        49.6598 
 321   0.0000       1.832223        49.8573 
 322   0.0000       1.839858        50.0651 
 323   0.0000       1.854488        50.4632 
 324   0.0000       1.863477        50.7078 
 325   0.0000       1.875372        51.0315 
 326   0.0000       1.889936        51.4278 
 327   0.0000       1.895528        51.5799 
 328   0.0000       1.911437        52.0128 
 329   0.0000       1.915426        52.1214 
 330   0.0000       1.932524        52.5866 
 331   0.0000       1.938229        52.7419 
 332   0.0000       1.946429        52.9650 
 333   0.0000       1.952282        53.1243 
 334   0.0000       1.974247        53.7220 
 335   0.0000       1.986316        54.0504 
 336   0.0000       1.993442        54.2443 
 337   0.0000       2.001965        54.4762 
 338   0.0000       2.013665        54.7946 
 339   0.0000       2.025815        55.1252 
 340   0.0000       2.034554        55.3630 
 341   0.0000       2.044607        55.6366 
 342   0.0000       2.057419        55.9852 
 343   0.0000       2.078798        56.5670 
 344   0.0000       2.088451        56.8296 
 345   0.0000       2.096301        57.0433 
 346   0.0000       2.114256        57.5318 
 347   0.0000       2.144671        58.3595 
 348   0.0000       2.155531        58.6550 
 349   0.0000       2.177834        59.2619 
 350   0.0000       2.180219        59.3268 
 351   0.0000       2.197074        59.7854 
 352   0.0000       2.208291        60.0907 
 353   0.0000       2.214863        60.2695 
 354   0.0000       2.239991        60.9533 
 355   0.0000       2.265378        61.6441 
 356   0.0000       2.276696        61.9520 
 357   0.0000       2.288901        62.2842 
 358   0.0000       2.300030        62.5870 
 359   0.0000       2.302359        62.6504 
 360   0.0000       2.320762        63.1512 
 361   0.0000       2.331244        63.4364 
 362   0.0000       2.340353        63.6842 
 363   0.0000       2.350368        63.9568 
 364   0.0000       2.362510        64.2872 
 365   0.0000       2.370459        64.5035 
 366   0.0000       2.382818        64.8398 
 367   0.0000       2.394651        65.1618 
 368   0.0000       2.400462        65.3199 
 369   0.0000       2.428203        66.0748 
 370   0.0000       2.432920        66.2031 
 371   0.0000       2.450137        66.6716 
 372   0.0000       2.465715        67.0955 
 373   0.0000       2.475633        67.3654 
 374   0.0000       2.490166        67.7609 
 375   0.0000       2.502941        68.1085 
 376   0.0000       2.514217        68.4153 
 377   0.0000       2.535689        68.9996 
 378   0.0000       2.545079        69.2551 
 379   0.0000       2.558857        69.6300 
 380   0.0000       2.575072        70.0713 
 381   0.0000       2.580030        70.2062 
 382   0.0000       2.587341        70.4051 
 383   0.0000       2.605902        70.9102 
 384   0.0000       2.613317        71.1120 
 385   0.0000       2.627555        71.4994 
 386   0.0000       2.639906        71.8355 
 387   0.0000       2.651901        72.1619 
 388   0.0000       2.658884        72.3519 
 389   0.0000       2.672124        72.7122 
 390   0.0000       2.688634        73.1615 
 391   0.0000       2.703915        73.5773 
 392   0.0000       2.709206        73.7213 
 393   0.0000       2.715477        73.8919 
 394   0.0000       2.739616        74.5487 
 395   0.0000       2.745181        74.7002 
 396   0.0000       2.752403        74.8967 
 397   0.0000       2.759063        75.0779 
 398   0.0000       2.770233        75.3819 
 399   0.0000       2.776277        75.5463 
 400   0.0000       2.800101        76.1946 
 401   0.0000       2.807714        76.4018 
 402   0.0000       2.813581        76.5614 
 403   0.0000       2.823154        76.8219 
 404   0.0000       2.826063        76.9011 
 405   0.0000       2.842499        77.3483 
 406   0.0000       2.849122        77.5286 
 407   0.0000       2.855585        77.7044 
 408   0.0000       2.860435        77.8364 
 409   0.0000       2.877355        78.2968 
 410   0.0000       2.886763        78.5528 
 411   0.0000       2.889625        78.6307 
 412   0.0000       2.897226        78.8375 
 413   0.0000       2.901065        78.9420 
 414   0.0000       2.913521        79.2809 
 415   0.0000       2.925802        79.6151 
 416   0.0000       2.930888        79.7535 
 417   0.0000       2.947701        80.2110 
 418   0.0000       2.954077        80.3845 
 419   0.0000       2.958886        80.5154 
 420   0.0000       2.972521        80.8864 
 421   0.0000       2.982926        81.1696 
 422   0.0000       2.994761        81.4916 
 423   0.0000       3.002197        81.6939 
 424   0.0000       3.009184        81.8841 
 425   0.0000       3.016104        82.0724 
 426   0.0000       3.021983        82.2323 
 427   0.0000       3.028421        82.4075 
 428   0.0000       3.030454        82.4628 
 429   0.0000       3.041731        82.7697 
 430   0.0000       3.055508        83.1446 
 431   0.0000       3.059769        83.2606 
 432   0.0000       3.067270        83.4647 
 433   0.0000       3.068466        83.4972 
 434   0.0000       3.080855        83.8343 
 435   0.0000       3.086890        83.9985 
 436   0.0000       3.093538        84.1794 
 437   0.0000       3.101061        84.3842 
 438   0.0000       3.111137        84.6583 
 439   0.0000       3.112854        84.7051 
 440   0.0000       3.126564        85.0781 
 441   0.0000       3.127786        85.1114 
 442   0.0000       3.130317        85.1803 
 443   0.0000       3.135006        85.3079 
 444   0.0000       3.149755        85.7092 
 445   0.0000       3.156160        85.8835 
 446   0.0000       3.169023        86.2335 
 447   0.0000       3.171782        86.3086 
 448   0.0000       3.185224        86.6744 
 449   0.0000       3.190806        86.8262 
 450   0.0000       3.195212        86.9462 
 451   0.0000       3.204760        87.2060 
 452   0.0000       3.215416        87.4959 
 453   0.0000       3.220309        87.6291 
 454   0.0000       3.233725        87.9941 
 455   0.0000       3.238706        88.1297 
 456   0.0000       3.247106        88.3583 
 457   0.0000       3.248698        88.4016 
 458   0.0000       3.266542        88.8871 
 459   0.0000       3.269318        88.9627 
 460   0.0000       3.273282        89.0705 
 461   0.0000       3.275472        89.1301 
 462   0.0000       3.289653        89.5160 
 463   0.0000       3.303018        89.8797 
 464   0.0000       3.305354        89.9432 
 465   0.0000       3.311892        90.1212 
 466   0.0000       3.314947        90.2043 
 467   0.0000       3.324364        90.4606 
 468   0.0000       3.333970        90.7219 
 469   0.0000       3.335938        90.7755 
 470   0.0000       3.338301        90.8398 
 471   0.0000       3.342252        90.9473 
 472   0.0000       3.350240        91.1647 
 473   0.0000       3.359780        91.4243 
 474   0.0000       3.361626        91.4745 
 475   0.0000       3.367785        91.6421 
 476   0.0000       3.368910        91.6727 
 477   0.0000       3.374832        91.8338 
 478   0.0000       3.382005        92.0290 
 479   0.0000       3.390642        92.2640 
 480   0.0000       3.395141        92.3865 
 481   0.0000       3.396953        92.4358 
 482   0.0000       3.402896        92.5975 
 483   0.0000       3.405980        92.6814 
 484   0.0000       3.412959        92.8713 
 485   0.0000       3.417754        93.0018 
 486   0.0000       3.429232        93.3141 
 487   0.0000       3.430982        93.3618 
 488   0.0000       3.438496        93.5662 
 489   0.0000       3.440680        93.6257 
 490   0.0000       3.441863        93.6579 
 491   0.0000       3.456772        94.0635 
 492   0.0000       3.458579        94.1127 
 493   0.0000       3.462463        94.2184 
 494   0.0000       3.465760        94.3081 
 495   0.0000       3.480855        94.7189 
 496   0.0000       3.491709        95.0142 
 497   0.0000       3.496340        95.1402 
 498   0.0000       3.507300        95.4385 
 499   0.0000       3.513800        95.6154 
 500   0.0000       3.519680        95.7754 
 501   0.0000       3.521397        95.8221 
 502   0.0000       3.528346        96.0112 
 503   0.0000       3.540307        96.3366 
 504   0.0000       3.550052        96.6018 
 505   0.0000       3.557581        96.8067 
 506   0.0000       3.561156        96.9040 
 507   0.0000       3.570350        97.1542 
 508   0.0000       3.579254        97.3965 
 509   0.0000       3.583750        97.5188 
 510   0.0000       3.596231        97.8584 
 511   0.0000       3.601071        97.9901 
 512   0.0000       3.614854        98.3652 
 513   0.0000       3.616423        98.4079 
 514   0.0000       3.626072        98.6704 
 515   0.0000       3.629059        98.7517 
 516   0.0000       3.633116        98.8621 
 517   0.0000       3.635924        98.9385 
 518   0.0000       3.643356        99.1408 
 519   0.0000       3.657141        99.5159 
 520   0.0000       3.661076        99.6229 
 521   0.0000       3.665828        99.7522 
 522   0.0000       3.674904        99.9992 
 523   0.0000       3.676979       100.0557 
 524   0.0000       3.684171       100.2514 
 525   0.0000       3.686999       100.3283 
 526   0.0000       3.695594       100.5622 
 527   0.0000       3.698710       100.6470 
 528   0.0000       3.704069       100.7928 
 529   0.0000       3.706903       100.8700 
 530   0.0000       3.718213       101.1777 
 531   0.0000       3.722352       101.2904 
 532   0.0000       3.731263       101.5328 
 533   0.0000       3.733911       101.6049 
 534   0.0000       3.743084       101.8545 
 535   0.0000       3.749399       102.0263 
 536   0.0000       3.756556       102.2211 
 537   0.0000       3.762260       102.3763 
 538   0.0000       3.766040       102.4792 
 539   0.0000       3.769950       102.5855 
 540   0.0000       3.785705       103.0143 
 541   0.0000       3.799160       103.3804 
 542   0.0000       3.805271       103.5467 
 543   0.0000       3.812267       103.7371 
 544   0.0000       3.818387       103.9036 
 545   0.0000       3.828069       104.1670 
 546   0.0000       3.836786       104.4043 
 547   0.0000       3.842305       104.5544 
 548   0.0000       3.853260       104.8525 
 549   0.0000       3.857284       104.9620 
 550   0.0000       3.864026       105.1455 
 551   0.0000       3.871981       105.3619 
 552   0.0000       3.876528       105.4857 
 553   0.0000       3.886195       105.7487 
 554   0.0000       3.891458       105.8920 
 555   0.0000       3.898628       106.0870 
 556   0.0000       3.910574       106.4121 
 557   0.0000       3.914569       106.5208 
 558   0.0000       3.927447       106.8713 
 559   0.0000       3.933666       107.0405 
 560   0.0000       3.943450       107.3067 
 561   0.0000       3.956554       107.6633 
 562   0.0000       3.960579       107.7728 
 563   0.0000       3.972072       108.0856 
 564   0.0000       3.980527       108.3156 
 565   0.0000       3.987410       108.5029 
 566   0.0000       4.001342       108.8821 
 567   0.0000       4.006920       109.0338 
 568   0.0000       4.013709       109.2186 
 569   0.0000       4.020658       109.4077 
 570   0.0000       4.030928       109.6871 
 571   0.0000       4.031791       109.7106 
 572   0.0000       4.041053       109.9626 
 573   0.0000       4.050345       110.2155 
 574   0.0000       4.064608       110.6036 
 575   0.0000       4.070714       110.7698 
 576   0.0000       4.073829       110.8545 
 577   0.0000       4.082841       111.0998 
 578   0.0000       4.087743       111.2331 
 579   0.0000       4.095870       111.4543 
 580   0.0000       4.111844       111.8890 
 581   0.0000       4.116858       112.0254 
 582   0.0000       4.129259       112.3629 
 583   0.0000       4.135321       112.5278 
 584   0.0000       4.141686       112.7010 
 585   0.0000       4.151023       112.9551 
 586   0.0000       4.157742       113.1379 
 587   0.0000       4.163695       113.2999 
 588   0.0000       4.167935       113.4153 
 589   0.0000       4.177021       113.6625 
 590   0.0000       4.181882       113.7948 
 591   0.0000       4.191442       114.0549 
 592   0.0000       4.193122       114.1007 
 593   0.0000       4.207782       114.4996 
 594   0.0000       4.222489       114.8998 
 595   0.0000       4.225452       114.9804 
 596   0.0000       4.229476       115.0899 
 597   0.0000       4.234301       115.2212 
 598   0.0000       4.246803       115.5614 
 599   0.0000       4.250760       115.6691 
 600   0.0000       4.252542       115.7176 
 601   0.0000       4.259451       115.9056 
 602   0.0000       4.271751       116.2402 
 603   0.0000       4.284070       116.5755 
 604   0.0000       4.292805       116.8132 
 605   0.0000       4.300255       117.0159 
 606   0.0000       4.308987       117.2535 
 607   0.0000       4.320924       117.5783 
 608   0.0000       4.324619       117.6789 
 609   0.0000       4.328067       117.7727 
 610   0.0000       4.347028       118.2886 
 611   0.0000       4.353829       118.4737 
 612   0.0000       4.363437       118.7352 
 613   0.0000       4.367476       118.8451 
 614   0.0000       4.373363       119.0053 
 615   0.0000       4.379303       119.1669 
 616   0.0000       4.395809       119.6160 
 617   0.0000       4.403530       119.8262 
 618   0.0000       4.416301       120.1737 
 619   0.0000       4.425519       120.4245 
 620   0.0000       4.425931       120.4357 
 621   0.0000       4.435386       120.6930 
 622   0.0000       4.448062       121.0379 
 623   0.0000       4.450402       121.1016 
 624   0.0000       4.460695       121.3817 
 625   0.0000       4.466195       121.5313 
 626   0.0000       4.473975       121.7430 
 627   0.0000       4.497710       122.3889 
 628   0.0000       4.500316       122.4598 
 629   0.0000       4.507141       122.6456 
 630   0.0000       4.509929       122.7214 
 631   0.0000       4.521017       123.0231 
 632   0.0000       4.523203       123.0826 
 633   0.0000       4.535686       123.4223 
 634   0.0000       4.538578       123.5010 
 635   0.0000       4.550228       123.8180 
 636   0.0000       4.561441       124.1231 
 637   0.0000       4.565118       124.2232 
 638   0.0000       4.579711       124.6203 
 639   0.0000       4.583532       124.7242 
 640   0.0000       4.594981       125.0358 
 641   0.0000       4.599081       125.1474 
 642   0.0000       4.605645       125.3260 
 643   0.0000       4.612306       125.5072 
 644   0.0000       4.619094       125.6919 
 645   0.0000       4.629320       125.9702 
 646   0.0000       4.635192       126.1300 
 647   0.0000       4.636376       126.1622 
 648   0.0000       4.650340       126.5422 
 649   0.0000       4.654891       126.6660 
 650   0.0000       4.664027       126.9146 
 651   0.0000       4.675937       127.2387 
 652   0.0000       4.680959       127.3754 
 653   0.0000       4.690347       127.6308 
 654   0.0000       4.703457       127.9876 
 655   0.0000       4.713188       128.2524 
 656   0.0000       4.719744       128.4308 
 657   0.0000       4.731345       128.7465 
 658   0.0000       4.736752       128.8936 
 659   0.0000       4.746685       129.1639 
 660   0.0000       4.756080       129.4195 
 661   0.0000       4.769612       129.7877 
 662   0.0000       4.790665       130.3606 
 663   0.0000       4.799220       130.5934 
 664   0.0000       4.826891       131.3464 
 665   0.0000       4.838703       131.6678 
 666   0.0000       4.859163       132.2246 
 667   0.0000       4.864251       132.3630 
 668   0.0000       4.881654       132.8365 
 669   0.0000       4.896075       133.2290 
 670   0.0000       4.899199       133.3140 
 671   0.0000       4.922545       133.9493 
 672   0.0000       4.936718       134.3349 
 673   0.0000       4.947149       134.6188 
 674   0.0000       4.969661       135.2314 
 675   0.0000       4.991970       135.8384 
 676   0.0000       5.008561       136.2899 
 677   0.0000       5.018008       136.5469 
 678   0.0000       5.032567       136.9431 
 679   0.0000       5.046294       137.3166 
 680   0.0000       5.052069       137.4738 
 681   0.0000       5.067849       137.9032 
 682   0.0000       5.072804       138.0380 
 683   0.0000       5.088125       138.4549 
 684   0.0000       5.103909       138.8844 
 685   0.0000       5.117688       139.2594 
 686   0.0000       5.118968       139.2942 
 687   0.0000       5.128455       139.5523 
 688   0.0000       5.140072       139.8685 
 689   0.0000       5.152539       140.2077 
 690   0.0000       5.170452       140.6951 
 691   0.0000       5.183556       141.0517 
 692   0.0000       5.195688       141.3819 
 693   0.0000       5.204370       141.6181 
 694   0.0000       5.210527       141.7856 
 695   0.0000       5.218949       142.0148 
 696   0.0000       5.231628       142.3598 
 697   0.0000       5.248838       142.8282 
 698   0.0000       5.259364       143.1146 
 699   0.0000       5.261950       143.1849 
 700   0.0000       5.267173       143.3271 
 701   0.0000       5.278084       143.6240 
 702   0.0000       5.293138       144.0336 
 703   0.0000       5.307699       144.4298 
 704   0.0000       5.323812       144.8683 
 705   0.0000       5.339787       145.3030 
 706   0.0000       5.350336       145.5900 
 707   0.0000       5.357632       145.7886 
 708   0.0000       5.362377       145.9177 
 709   0.0000       5.379109       146.3730 
 710   0.0000       5.392948       146.7496 
 711   0.0000       5.418977       147.4579 
 712   0.0000       5.438190       147.9807 
 713   0.0000       5.459503       148.5606 
 714   0.0000       5.470466       148.8589 
 715   0.0000       5.479711       149.1105 
 716   0.0000       5.489360       149.3731 
 717   0.0000       5.501382       149.7002 
 718   0.0000       5.511183       149.9669 
 719   0.0000       5.516559       150.1132 
 720   0.0000       5.531307       150.5145 
 721   0.0000       5.540293       150.7590 
 722   0.0000       5.565364       151.4413 
 723   0.0000       5.566818       151.4808 
 724   0.0000       5.582966       151.9202 
 725   0.0000       5.600121       152.3870 
 726   0.0000       5.605599       152.5361 
 727   0.0000       5.621425       152.9667 
 728   0.0000       5.629898       153.1973 
 729   0.0000       5.640996       153.4993 
 730   0.0000       5.649812       153.7392 
 731   0.0000       5.664748       154.1456 
 732   0.0000       5.677798       154.5007 
 733   0.0000       5.686369       154.7340 
 734   0.0000       5.695734       154.9888 
 735   0.0000       5.701123       155.1355 
 736   0.0000       5.722273       155.7110 
 737   0.0000       5.735246       156.0640 
 738   0.0000       5.745741       156.3496 
 739   0.0000       5.751467       156.5054 
 740   0.0000       5.764000       156.8464 
 741   0.0000       5.778861       157.2508 
 742   0.0000       5.797012       157.7447 
 743   0.0000       5.811455       158.1377 
 744   0.0000       5.815942       158.2598 
 745   0.0000       5.839460       158.8998 
 746   0.0000       5.866107       159.6249 
 747   0.0000       5.870270       159.7382 
 748   0.0000       5.894501       160.3975 
 749   0.0000       5.906342       160.7197 
 750   0.0000       5.935456       161.5120 
 751   0.0000       5.959945       162.1784 
 752   0.0000       5.967850       162.3935 
 753   0.0000       5.994928       163.1303 
 754   0.0000       6.000686       163.2870 
 755   0.0000       6.019431       163.7970 
 756   0.0000       6.048826       164.5969 
 757   0.0000       6.057472       164.8322 
 758   0.0000       6.066579       165.0800 
 759   0.0000       6.075964       165.3354 
 760   0.0000       6.105498       166.1390 
 761   0.0000       6.155726       167.5058 
 762   0.0000       6.225575       169.4065 
 763   0.0000       6.238918       169.7696 
 764   0.0000       6.260247       170.3500 
 765   0.0000       6.287162       171.0824 
 766   0.0000       6.299770       171.4255 
 767   0.0000       6.341218       172.5533 
 768   0.0000       6.350554       172.8074 
 769   0.0000       6.377870       173.5507 
 770   0.0000       6.394002       173.9896 
 771   0.0000       6.402936       174.2328 
 772   0.0000       6.416634       174.6055 
 773   0.0000       6.440335       175.2504 
 774   0.0000       6.455389       175.6601 
 775   0.0000       6.489364       176.5846 
 776   0.0000       6.505296       177.0181 
 777   0.0000       6.549374       178.2175 
 778   0.0000       6.569371       178.7617 
 779   0.0000       6.624975       180.2747 
 780   0.0000       6.656632       181.1362 
 781   0.0000       6.687915       181.9874 
 782   0.0000       6.731798       183.1815 
 783   0.0000       6.769145       184.1978 
 784   0.0000       6.814610       185.4350 
 785   0.0000       6.843103       186.2103 
 786   0.0000       6.903514       187.8542 
 787   0.0000       6.917696       188.2401 
 788   0.0000       6.963531       189.4873 
 789   0.0000       6.983638       190.0345 
 790   0.0000       7.048129       191.7893 
 791   0.0000       7.068964       192.3563 
 792   0.0000       7.078974       192.6287 
 793   0.0000       7.137969       194.2340 
 794   0.0000       7.217090       196.3870 
 795   0.0000       7.239883       197.0072 
 796   0.0000       7.255282       197.4262 
 797   0.0000       7.278019       198.0450 
 798   0.0000       7.336892       199.6470 
 799   0.0000       7.348792       199.9708 
 800   0.0000       7.403193       201.4511 
 801   0.0000       7.488466       203.7715 
 802   0.0000       7.570029       205.9910 
 803   0.0000       7.583449       206.3561 
 804   0.0000       7.603343       206.8975 
 805   0.0000       7.762989       211.2417 
 806   0.0000       7.815920       212.6820 
 807   0.0000       7.929460       215.7716 
 808   0.0000       8.044252       218.8952 
 809   0.0000       9.443754       256.9776 
 810   0.0000       9.748130       265.2601 
 811   0.0000      10.804813       294.0139 
 812   0.0000      11.163500       303.7743 
 813   0.0000      12.103800       329.3611 
 814   0.0000      12.558802       341.7424 
 815   0.0000      12.906076       351.1922 
 816   0.0000      13.005920       353.9091 
 817   0.0000      13.075193       355.7941 
 818   0.0000      13.286713       361.5498 
 819   0.0000      13.424955       365.3116 
 820   0.0000      13.502208       367.4138 
 821   0.0000      13.745276       374.0280 
 822   0.0000      13.946756       379.5105 
 823   0.0000      14.039565       382.0360 
 824   0.0000      14.185310       386.0019 
 825   0.0000      14.528587       395.3430 
 826   0.0000      14.745985       401.2586 
 827   0.0000      15.955711       434.1770 

                    ********************************
                    * MULLIKEN POPULATION ANALYSIS *
                    ********************************

-----------------------
MULLIKEN ATOMIC CHARGES
-----------------------
   0 C :   -0.317883
   1 C :    0.034711
   2 O :   -0.325515
   3 C :    0.395954
   4 O :   -0.377072
   5 C :   -0.176482
   6 C :    0.119650
   7 C :   -0.326523
   8 N :   -0.138067
   9 C :    0.208220
  10 S :   -0.441803
  11 N :   -0.228941
  12 C :    0.092204
  13 C :    0.002648
  14 C :   -0.204459
  15 C :   -0.135677
  16 C :   -0.271979
  17 C :    0.315149
  18 O :   -0.355926
  19 C :   -0.264846
  20 H :    0.092769
  21 H :    0.118820
  22 H :    0.108548
  23 H :    0.105347
  24 H :    0.123789
  25 H :    0.121876
  26 H :    0.151163
  27 H :    0.115673
  28 H :    0.196335
  29 H :    0.203178
  30 H :    0.165355
  31 H :    0.172902
  32 H :    0.165495
  33 H :    0.133739
  34 H :    0.241617
  35 H :    0.180031
Sum of atomic charges:    0.0000000

--------------------------------
MULLIKEN REDUCED ORBITAL CHARGES
--------------------------------
  0 C s       :     3.267416  s :     3.267416
      pz      :     1.009857  p :     2.970666
      px      :     0.990252
      py      :     0.970557
      dz2     :     0.022805  d :     0.075351
      dxz     :     0.009184
      dyz     :     0.009102
      dx2y2   :     0.021220
      dxy     :     0.013040
      f0      :     0.001455  f :     0.004450
      f+1     :     0.000245
      f-1     :     0.000200
      f+2     :     0.000219
      f-2     :     0.000579
      f+3     :     0.000825
      f-3     :     0.000929
  1 C s       :     3.173977  s :     3.173977
      pz      :     0.874057  p :     2.624140
      px      :     0.734765
      py      :     1.015318
      dz2     :     0.036835  d :     0.155624
      dxz     :     0.032456
      dyz     :     0.014624
      dx2y2   :     0.034428
      dxy     :     0.037282
      f0      :     0.001357  f :     0.011548
      f+1     :     0.002605
      f-1     :     0.000640
      f+2     :     0.001649
      f-2     :     0.001997
      f+3     :     0.001780
      f-3     :     0.001520
  2 O s       :     3.721818  s :     3.721818
      pz      :     1.641421  p :     4.568690
      px      :     1.257413
      py      :     1.669857
      dz2     :     0.005295  d :     0.032725
      dxz     :     0.009520
      dyz     :     0.002939
      dx2y2   :     0.004518
      dxy     :     0.010453
      f0      :     0.000210  f :     0.002283
      f+1     :     0.000337
      f-1     :     0.000090
      f+2     :     0.000366
      f-2     :     0.000265
[...]
 15 C s       :     2.705831  s :     2.705831
      pz      :     0.904661  p :     2.790292
      px      :     0.909600
      py      :     0.976032
      dz2     :     0.097653  d :     0.416256
      dxz     :     0.062583
      dyz     :     0.071234
      dx2y2   :     0.097702
      dxy     :     0.087084
      f0      :     0.003684  f :     0.041103
      f+1     :     0.004923
      f-1     :     0.006794
      f+2     :     0.006134
      f-2     :     0.007427
      f+3     :     0.005729
      f-3     :     0.006413
 16 C s       :     2.701798  s :     2.701798
      pz      :     0.944768  p :     2.867683
      px      :     0.953214
      py      :     0.969701
      dz2     :     0.053604  d :     0.390211
      dxz     :     0.051800
      dyz     :     0.098061
      dx2y2   :     0.086916
      dxy     :     0.099831
      f0      :     0.005419  f :     0.040308
      f+1     :     0.004498
      f-1     :     0.003674
      f+2     :     0.005493
      f-2     :     0.006900
      f+3     :     0.007046
      f-3     :     0.007278
 17 C s       :     2.701740  s :     2.701740
      pz      :     0.825285  p :     2.682509
      px      :     0.816341
      py      :     1.040883
      dz2     :     0.139842  d :     0.709922
      dxz     :     0.109656
      dyz     :     0.149414
      dx2y2   :     0.156630
      dxy     :     0.154380
      f0      :     0.012212  f :     0.099364
      f+1     :     0.015258
      f-1     :     0.011062
      f+2     :     0.014079
      f-2     :     0.017684
      f+3     :     0.012585
      f-3     :     0.016484
 18 O s       :     3.177228  s :     3.177228
      pz      :     1.423998  p :     4.346082
      px      :     1.460147
      py      :     1.461937
      dz2     :     0.010831  d :     0.075538
      dxz     :     0.018302
      dyz     :     0.017618
      dx2y2   :     0.017214
      dxy     :     0.011572
      f0      :     0.000637  f :     0.005064
      f+1     :     0.000833
      f-1     :     0.000364
      f+2     :     0.000971
      f-2     :     0.000908
      f+3     :     0.000569
      f-3     :     0.000783
 19 C s       :     2.696527  s :     2.696527
      pz      :     0.939131  p :     2.850603
      px      :     0.940822
      py      :     0.970651
      dz2     :     0.078165  d :     0.387819
      dxz     :     0.060432
      dyz     :     0.074110
      dx2y2   :     0.086231
      dxy     :     0.088882
      f0      :     0.003685  f :     0.040629
      f+1     :     0.004997
      f-1     :     0.006195
      f+2     :     0.006345
      f-2     :     0.007819
      f+3     :     0.005823
      f-3     :     0.005765
 20 H s       :     0.850236  s :     0.850236
      pz      :     0.043999  p :     0.155809
      px      :     0.042299
      py      :     0.069511
      dz2     :     0.004595  d :     0.028092
      dxz     :     0.001043
      dyz     :     0.007624
      dx2y2   :     0.006738
      dxy     :     0.008092
 21 H s       :     0.843649  s :     0.843649
      pz      :     0.042627  p :     0.151024
      px      :     0.067791
      py      :     0.040606
      dz2     :     0.004050  d :     0.027509
      dxz     :     0.007514
      dyz     :     0.000976
      dx2y2   :     0.007079
      dxy     :     0.007889
 22 H s       :     0.847599  s :     0.847599
      pz      :     0.074107  p :     0.150465
      px      :     0.037668
      py      :     0.038690
      dz2     :     0.009193  d :     0.027685
      dxz     :     0.009203
      dyz     :     0.009140
      dx2y2   :     0.000066
      dxy     :     0.000083
 23 H s       :     0.848220  s :     0.848220
      pz      :     0.083651  p :     0.158554
      px      :     0.031866
      py      :     0.043037
      dz2     :     0.010191  d :     0.027433
      dxz     :     0.006789
      dyz     :     0.008630
      dx2y2   :     0.000687
      dxy     :     0.001136
 24 H s       :     0.848263  s :     0.848263
      pz      :     0.035141  p :     0.144757
      px      :     0.036975
      py      :     0.072641
      dz2     :     0.002686  d :     0.027153
      dxz     :     0.001874
      dyz     :     0.006906
      dx2y2   :     0.007641
      dxy     :     0.008046
 25 H s       :     0.832452  s :     0.832452
      pz      :     0.048462  p :     0.150037
      px      :     0.040240
      py      :     0.061334
      dz2     :     0.006125  d :     0.027648
      dxz     :     0.003245
      dyz     :     0.007167
      dx2y2   :     0.004528
      dxy     :     0.006583
 26 H s       :     0.829534  s :     0.829534
      pz      :     0.046064  p :     0.151202
      px      :     0.052378
      py      :     0.052760
      dz2     :     0.005092  d :     0.027584
      dxz     :     0.005034
      dyz     :     0.004946
      dx2y2   :     0.006951
      dxy     :     0.005560
 27 H s       :     0.838462  s :     0.838462
      pz      :     0.036632  p :     0.151489
      px      :     0.066277
      py      :     0.048579
      dz2     :     0.002354  d :     0.027726
      dxz     :     0.006536
      dyz     :     0.002491
      dx2y2   :     0.008632
      dxy     :     0.007714
 28 H s       :     0.742518  s :     0.742518
      pz      :     0.054717  p :     0.253695
      px      :     0.090672
      py      :     0.108306
      dz2     :     0.006791  d :     0.061664
      dxz     :     0.003500
      dyz     :     0.015330
      dx2y2   :     0.017661
      dxy     :     0.018382
 29 H s       :     0.747704  s :     0.747704
      pz      :     0.116468  p :     0.254841
      px      :     0.093634
      py      :     0.044739
      dz2     :     0.022070  d :     0.061454
      dxz     :     0.017643
      dyz     :     0.012349
      dx2y2   :     0.005642
      dxy     :     0.003750
 30 H s       :     0.824386  s :     0.824386
      pz      :     0.039237  p :     0.149589
      px      :     0.075652
      py      :     0.034701
      dz2     :     0.002956  d :     0.028460
      dxz     :     0.008542
      dyz     :     0.001610
      dx2y2   :     0.007910
      dxy     :     0.007442
 31 H s       :     0.836522  s :     0.836522
      pz      :     0.061417  p :     0.157264
      px      :     0.062842
      py      :     0.033005
      dz2     :     0.006504  d :     0.027403
      dxz     :     0.007275
      dyz     :     0.004224
      dx2y2   :     0.004564
      dxy     :     0.004836
 32 H s       :     0.840608  s :     0.840608
      pz      :     0.036683  p :     0.150549
      px      :     0.040841
      py      :     0.073025
      dz2     :     0.002769  d :     0.026385
      dxz     :     0.001113
      dyz     :     0.006996
      dx2y2   :     0.007825
      dxy     :     0.007682
 33 H s       :     0.847734  s :     0.847734
      pz      :     0.053081  p :     0.158735
      px      :     0.046551
      py      :     0.059103
      dz2     :     0.005381  d :     0.027722
      dxz     :     0.003598
      dyz     :     0.006633
      dx2y2   :     0.006215
      dxy     :     0.005896
 34 H s       :     0.705810  s :     0.705810
      pz      :     0.100417  p :     0.347297
      px      :     0.086299
      py      :     0.160581
      dz2     :     0.018946  d :     0.099436
      dxz     :     0.008102
      dyz     :     0.025801
      dx2y2   :     0.022671
      dxy     :     0.023917
 35 H s       :     0.836170  s :     0.836170
      pz      :     0.041064  p :     0.160108
      px      :     0.044267
      py      :     0.074777
      dz2     :     0.002802  d :     0.028073
      dxz     :     0.001268
      dyz     :     0.007606
      dx2y2   :     0.008050
      dxy     :     0.008345


                      *****************************
                      * MAYER POPULATION ANALYSIS *
                      *****************************

  NA   - Mulliken gross atomic population
  ZA   - Total nuclear charge
  QA   - Mulliken gross atomic charge
  VA   - Mayer's total valence
  BVA  - Mayer's bonded valence
  FA   - Mayer's free valence

  ATOM       NA         ZA         QA         VA         BVA        FA
  0 C      6.3179     6.0000    -0.3179     3.8704     3.8704    -0.0000
  1 C      5.9653     6.0000     0.0347     3.8461     3.8461    -0.0000
  2 O      8.3255     8.0000    -0.3255     2.0478     2.0478    -0.0000
  3 C      5.6040     6.0000     0.3960     4.2472     4.2472     0.0000
  4 O      8.3771     8.0000    -0.3771     2.1313     2.1313     0.0000
  5 C      6.1765     6.0000    -0.1765     3.5614     3.5614     0.0000
  6 C      5.8803     6.0000     0.1197     3.8127     3.8127    -0.0000
  7 C      6.3265     6.0000    -0.3265     3.8863     3.8863    -0.0000
  8 N      7.1381     7.0000    -0.1381     3.2582     3.2582     0.0000
  9 C      5.7918     6.0000     0.2082     4.1464     4.1464     0.0000
 10 S     16.4418    16.0000    -0.4418     1.7496     1.7496     0.0000
 11 N      7.2289     7.0000    -0.2289     3.2503     3.2503    -0.0000
 12 C      5.9078     6.0000     0.0922     3.9268     3.9268     0.0000
 13 C      5.9974     6.0000     0.0026     3.7322     3.7322    -0.0000
 14 C      6.2045     6.0000    -0.2045     3.8758     3.8758    -0.0000
 15 C      6.1357     6.0000    -0.1357     3.8173     3.8173    -0.0000
 16 C      6.2720     6.0000    -0.2720     3.7859     3.7859     0.0000
 17 C      5.6849     6.0000     0.3151     3.8694     3.8694     0.0000
 18 O      8.3559     8.0000    -0.3559     2.1191     2.1191    -0.0000
 19 C      6.2648     6.0000    -0.2648     3.8047     3.8047     0.0000
 20 H      0.9072     1.0000     0.0928     0.9715     0.9715    -0.0000
 21 H      0.8812     1.0000     0.1188     0.9819     0.9819     0.0000
 22 H      0.8915     1.0000     0.1085     0.9819     0.9819    -0.0000
 23 H      0.8947     1.0000     0.1053     0.9648     0.9648    -0.0000
 24 H      0.8762     1.0000     0.1238     0.9775     0.9775    -0.0000
 25 H      0.8781     1.0000     0.1219     0.9865     0.9865    -0.0000
 26 H      0.8488     1.0000     0.1512     0.9716     0.9716     0.0000
 27 H      0.8843     1.0000     0.1157     0.9736     0.9736     0.0000
 28 H      0.8037     1.0000     0.1963     1.0215     1.0215     0.0000
 29 H      0.7968     1.0000     0.2032     1.0126     1.0126    -0.0000
 30 H      0.8346     1.0000     0.1654     0.9898     0.9898     0.0000
 31 H      0.8271     1.0000     0.1729     0.9865     0.9865     0.0000
 32 H      0.8345     1.0000     0.1655     0.9762     0.9762    -0.0000
 33 H      0.8663     1.0000     0.1337     0.9905     0.9905     0.0000
 34 H      0.7584     1.0000     0.2416     1.0100     1.0100     0.0000
 35 H      0.8200     1.0000     0.1800     0.9859     0.9859     0.0000

  Mayer bond orders larger than 0.100000
B(  0-C ,  1-C ) :   0.9561 B(  0-C , 20-H ) :   0.9766 B(  0-C , 21-H ) :   0.9798 
B(  0-C , 22-H ) :   0.9747 B(  1-C ,  2-O ) :   0.8958 B(  1-C , 23-H ) :   0.9607 
B(  1-C , 24-H ) :   0.9877 B(  2-O ,  3-C ) :   1.1811 B(  3-C ,  4-O ) :   2.0990 
B(  3-C ,  5-C ) :   0.9022 B(  5-C ,  6-C ) :   1.7056 B(  5-C , 12-C ) :   0.9475 
B(  6-C ,  7-C ) :   0.9529 B(  6-C ,  8-N ) :   1.1018 B(  7-C , 25-H ) :   0.9792 
B(  7-C , 26-H ) :   0.9639 B(  7-C , 27-H ) :   0.9701 B(  8-N ,  9-C ) :   1.2017 
B(  8-N , 28-H ) :   0.9516 B(  9-C , 10-S ) :   1.6081 B(  9-C , 11-N ) :   1.2857 
B( 11-N , 12-C ) :   0.9907 B( 11-N , 29-H ) :   0.9462 B( 12-C , 13-C ) :   0.9548 
B( 12-C , 30-H ) :   0.9963 B( 13-C , 14-C ) :   1.3913 B( 13-C , 19-C ) :   1.3363 
B( 14-C , 15-C ) :   1.3996 B( 14-C , 31-H ) :   0.9600 B( 15-C , 16-C ) :   1.3615 
B( 15-C , 32-H ) :   0.9692 B( 16-C , 17-C ) :   1.3302 B( 16-C , 33-H ) :   0.9840 
B( 17-C , 18-O ) :   1.1106 B( 17-C , 19-C ) :   1.3658 B( 18-O , 34-H ) :   0.9789 
B( 19-C , 35-H ) :   0.9589 

-------
TIMINGS
-------

Total SCF time: 0 days 2 hours 11 min 34 sec 

Total time                  ....    7894.825 sec
Sum of individual times     ....    7885.221 sec  ( 99.9%)

Fock matrix formation       ....    7855.519 sec  ( 99.5%)
Diagonalization             ....       2.111 sec  (  0.0%)
Density matrix formation    ....       0.325 sec  (  0.0%)
Population analysis         ....       0.325 sec  (  0.0%)
Initial guess               ....       6.415 sec  (  0.1%)
Orbital Transformation      ....       0.000 sec  (  0.0%)
Orbital Orthonormalization  ....       0.000 sec  (  0.0%)
DIIS solution               ....      10.802 sec  (  0.1%)
SOSCF solution              ....       6.985 sec  (  0.1%)

Maximum memory used throughout the entire SCF-calculation: 757.3 MB

------------------------------------------------------------------------------
                                ORCA  MP2 
------------------------------------------------------------------------------

Freezing NCore=48 chemical core electrons

-------------
RI-MP2 ENERGY
-------------
Dimension of the basis                    ...  828
Memory devoted to MP2                     ...  256 MB   
Data format for buffers                   ... DOUBLE
Compression type for matrix containers    ... UNCOMPRESSED
Overall scaling of the MP2 energy         ...   1.000e+00
Calculating two index integrals           ... done (    0.061 sec)
Cholesky decomposition of V**-1           ... done (    1.618 sec)

-----------------
RI-TRANSFORMATION (AUX index driven)
-----------------

Dimension of the orbital-basis         ... 828
Dimension of the aux-basis             ... 2141
Transformation of internal/external MOs...   24-  76 to   77- 827
Number Format for Storage              ... Double (8 Byte)
Integral mode                          ... Direct

First Phase: integral generation and transformation of MO indices
  Aux angular momentum 0               ... done (    3.995 sec)
  Aux angular momentum 1               ... done (    6.152 sec)
  Aux angular momentum 2               ... done (    7.915 sec)
  Aux angular momentum 3               ... done (    6.359 sec)
  Aux angular momentum 4               ... done (    2.271 sec)
Closing buffer VIA ( 0.63 GB; CompressionRatio= 1.00)
  Phase 1 completed in    27.915 sec
Second Phase: sorting and transformation of aux index

IA-Transformation
Memory available                       ... 156 MB 
Max. # MO pairs treated in a batch     ... 11    
# of internal orbitals                 ... 53
# batches for internal orbitals        ... 5
Closing buffer IAV ( 0.63 GB; CompressionRatio= 1.00)
(ia|v) transformation done in   124.669 sec

  Phase 2 completed in   124.911 sec
RI-Integral transformation completed in   152.909 sec
Opening buffers                              ... done

Starting loop over batches of integrals:

Operator 0  - window                       ... ( 24- 76)x( 77-827)
Operator 0  - Memory available             ...   256 MB
Operator 0  - Memory needed per MO         ...  12.3 MB
Operator 0  - Number of orbitals per batch ... 13
Operator 0  - Number of batches            ... 5

OPERATOR  0   PASS   0:  MOs    24 ...   36
  Reading integrals       ... ok
  Internal MO  26
  Internal MO  29
  Internal MO  32
  Internal MO  35
OPERATOR  0   PASS   1:  MOs    37 ...   49
  Reading integrals       ... ok
  Internal MO  38
  Internal MO  41
  Internal MO  44
  Internal MO  47
OPERATOR  0   PASS   2:  MOs    50 ...   62
  Reading integrals       ... ok
  Internal MO  50
  Internal MO  53
  Internal MO  56
  Internal MO  59
  Internal MO  62
OPERATOR  0   PASS   3:  MOs    63 ...   75
  Reading integrals       ... ok
  Internal MO  65
  Internal MO  68
  Internal MO  71
  Internal MO  74
OPERATOR  0   PASS   4:  MOs    76 ...   76
  Reading integrals       ... ok
Time spent in pair loops =   216.011 sec
Deleting buffer (Ka|jb)[aa] ...done

-----------------------------------------------
 RI-MP2 CORRELATION ENERGY:     -3.540034167 Eh
-----------------------------------------------


-------
TIMINGS
-------

Total time                :  372.161 sec
Integral trafo            :  152.922 sec ( 41.1%)
I/O of integrals          :   21.072 sec (  5.7%)
K(i,j) Operators          :   90.649 sec ( 24.4%)
T(i,j) pair energies      :    3.265 sec (  0.9%)
V-calculation             :    0.061 sec (  0.0%)
V**(-1/2)                 :    1.618 sec (  0.4%)
Gamma(ia|P)               :    0.000 sec (  0.0%)
Gamma-Trafo               :    0.000 sec (  0.0%)
D(virtual)                :    0.000 sec (  0.0%)
D(internal)               :    0.000 sec (  0.0%)
W(virtual)                :    0.000 sec (  0.0%)
W(internal)               :    0.000 sec (  0.0%)
L(virtual)                :    0.000 sec (  0.0%)
L(internal)               :    0.000 sec (  0.0%)
G(D)                      :    0.000 sec (  0.0%)
G(Z)                      :    0.000 sec (  0.0%)
Z-Vector Solution         :    0.000 sec (  0.0%)
3-Index Derivative        :    0.000 sec (  0.0%)
2-Index Derivative        :    0.000 sec (  0.0%)
Separable Gradient        :    0.000 sec (  0.0%)


---------------------------------------
MP2 TOTAL ENERGY:    -1274.328005927 Eh
---------------------------------------

Maximum memory used throughout the entire MP2-calculation: 305.7 MB

-------------------------   --------------------
FINAL SINGLE POINT ENERGY     -1274.328005927357
-------------------------   --------------------


                            ***************************************
                            *     ORCA property calculations      *
                            ***************************************


  WARNING: The energy has been calculated at the MP2 level but the densities
           used in the property calculations are still SCF densities
           MP2 response densities have not been calculated 
           use %mp2 Density relaxed end
           or  %mp2 Density unrelaxed end

                                    ---------------------
                                    Active property flags
                                    ---------------------
   (+) Dipole Moment


------------------------------------------------------------------------------
                       ORCA ELECTRIC PROPERTIES CALCULATION
------------------------------------------------------------------------------

Dipole Moment Calculation                       ... on
Quadrupole Moment Calculation                   ... off
Polarizability Calculation                      ... off
GBWName                                         ... CONFS/Conf728.orca.gbw
Electron density file                           ... CONFS/Conf728.orca.scfp
The origin for moment calculation is the CENTER OF MASS  = (32.803617, 31.252159 35.280650)

-------------
DIPOLE MOMENT
-------------
                                X             Y             Z
Electronic contribution:     10.28983       4.99368       7.32162
Nuclear contribution   :    -11.75233      -6.20517      -7.57584
                        -----------------------------------------
Total Dipole Moment    :     -1.46251      -1.21148      -0.25422
                        -----------------------------------------
Magnitude (a.u.)       :      1.91605
Magnitude (Debye)      :      4.87021



--------------------
Rotational spectrum 
--------------------
 
Rotational constants in cm-1:     0.011801     0.009271     0.006784 
Rotational constants in MHz :   353.773623   277.932194   203.369622 

 Dipole components along the rotational axes: 
x,y,z [a.u.] :    -1.312540    -0.775722     1.160492 
x,y,z [Debye]:    -3.336211    -1.971729     2.949736 

 

Timings for individual modules:

Sum of individual times         ...     8273.110 sec (= 137.885 min)
GTO integral calculation        ...        3.913 sec (=   0.065 min)   0.0 %
SCF iterations                  ...     7894.995 sec (= 131.583 min)  95.4 %
MP2 module                      ...      374.202 sec (=   6.237 min)   4.5 %
                             ****ORCA TERMINATED NORMALLY****
TOTAL RUN TIME: 0 days 2 hours 17 minutes 56 seconds 268 msec
