
                                        *****************
                                        * O   R   C   A *
                                        *****************

                                            #,                                       
                                            ###                                      
                                            ####                                     
                                            #####                                    
                                            ######                                   
                                           ########,                                 
                                     ,,################,,,,,                         
                               ,,#################################,,                 
                          ,,##########################################,,             
                       ,#########################################, ''#####,          
                    ,#############################################,,   '####,        
                  ,##################################################,,,,####,       
                ,###########''''           ''''###############################       
              ,#####''   ,,,,##########,,,,          '''####'''          '####       
            ,##' ,,,,###########################,,,                        '##       
           ' ,,###''''                  '''############,,,                           
         ,,##''                                '''############,,,,        ,,,,,,###''
      ,#''                                            '''#######################'''  
     '                                                          ''''####''''         
             ,#######,   #######,   ,#######,      ##                                
            ,#'     '#,  ##    ##  ,#'     '#,    #''#        ######   ,####,        
            ##       ##  ##   ,#'  ##            #'  '#       #        #'  '#        
            ##       ##  #######   ##           ,######,      #####,   #    #        
            '#,     ,#'  ##    ##  '#,     ,#' ,#      #,         ##   #,  ,#        
             '#######'   ##     ##  '#######'  #'      '#     #####' # '####'        



                  #######################################################
                  #                        -***-                        #
                  #          Department of theory and spectroscopy      #
                  #    Directorship and core code : Frank Neese         #
                  #        Max Planck Institute fuer Kohlenforschung    #
                  #                Kaiser Wilhelm Platz 1               #
                  #                 D-45470 Muelheim/Ruhr               #
                  #                      Germany                        #
                  #                                                     #
                  #                  All rights reserved                #
                  #                        -***-                        #
                  #######################################################


                         Program Version 5.0.0 -  RELEASE  -
                                (SVN: $Rev: 19529$)
                ($Date: 2021-06-28 11:36:33 +0200 (Mo, 28 Jun 2021) $)


 With contributions from (in alphabetic order):
   Daniel Aravena         : Magnetic Suceptibility
   Michael Atanasov       : Ab Initio Ligand Field Theory (pilot matlab implementation)
   Alexander A. Auer      : GIAO ZORA, VPT2 properties, NMR spectrum
   Ute Becker             : Parallelization
   Giovanni Bistoni       : ED, misc. LED, open-shell LED, HFLD
   Martin Brehm           : Molecular dynamics
   Dmytro Bykov           : SCF Hessian
   Vijay G. Chilkuri      : MRCI spin determinant printing, contributions to CSF-ICE
   Dipayan Datta          : RHF DLPNO-CCSD density
   Achintya Kumar Dutta   : EOM-CC, STEOM-CC
   Dmitry Ganyushin       : Spin-Orbit,Spin-Spin,Magnetic field MRCI
   Miquel Garcia          : C-PCM Hessian, Gaussian charge scheme
   Yang Guo               : DLPNO-NEVPT2, F12-NEVPT2, CIM, IAO-localization
   Andreas Hansen         : Spin unrestricted coupled pair/coupled cluster methods
   Benjamin Helmich-Paris : MC-RPA, TRAH-SCF, COSX integrals
   Lee Huntington         : MR-EOM, pCC
   Robert Izsak           : Overlap fitted RIJCOSX, COSX-SCS-MP3, EOM
   Marcus Kettner         : VPT2
   Christian Kollmar      : KDIIS, OOCD, Brueckner-CCSD(T), CCSD density, CASPT2, CASPT2-K
   Simone Kossmann        : Meta GGA functionals, TD-DFT gradient, OOMP2, MP2 Hessian
   Martin Krupicka        : Initial AUTO-CI
   Lucas Lang             : DCDCAS
   Marvin Lechner         : AUTO-CI (C++ implementation), FIC-MRCC
   Dagmar Lenk            : GEPOL surface, SMD
   Dimitrios Liakos       : Extrapolation schemes; Compound Job, initial MDCI parallelization
   Dimitrios Manganas     : Further ROCIS development; embedding schemes
   Dimitrios Pantazis     : SARC Basis sets
   Anastasios Papadopoulos: AUTO-CI, single reference methods and gradients
   Taras Petrenko         : DFT Hessian,TD-DFT gradient, ASA, ECA, R-Raman, ABS, FL, XAS/XES, NRVS
   Peter Pinski           : DLPNO-MP2, DLPNO-MP2 Gradient
   Christoph Reimann      : Effective Core Potentials
   Marius Retegan         : Local ZFS, SOC
   Christoph Riplinger    : Optimizer, TS searches, QM/MM, DLPNO-CCSD(T), (RO)-DLPNO pert. Triples
   Tobias Risthaus        : Range-separated hybrids, TD-DFT gradient, RPA, STAB
   Michael Roemelt        : Original ROCIS implementation
   Masaaki Saitow         : Open-shell DLPNO-CCSD energy and density
   Barbara Sandhoefer     : DKH picture change effects
   Avijit Sen             : IP-ROCIS
   Kantharuban Sivalingam : CASSCF convergence, NEVPT2, FIC-MRCI
   Bernardo de Souza      : ESD, SOC TD-DFT
   Georgi Stoychev        : AutoAux, RI-MP2 NMR
   Willem Van den Heuvel  : Paramagnetic NMR
   Boris Wezisla          : Elementary symmetry handling
   Frank Wennmohs         : Technical directorship


 We gratefully acknowledge several colleagues who have allowed us to
 interface, adapt or use parts of their codes:
   Stefan Grimme, W. Hujo, H. Kruse, P. Pracht,  : VdW corrections, initial TS optimization,
                  C. Bannwarth, S. Ehlert          DFT functionals, gCP, sTDA/sTD-DF
   Ed Valeev, F. Pavosevic, A. Kumar             : LibInt (2-el integral package), F12 methods
   Garnet Chan, S. Sharma, J. Yang, R. Olivares  : DMRG
   Ulf Ekstrom                                   : XCFun DFT Library
   Mihaly Kallay                                 : mrcc  (arbitrary order and MRCC methods)
   Jiri Pittner, Ondrej Demel                    : Mk-CCSD
   Frank Weinhold                                : gennbo (NPA and NBO analysis)
   Christopher J. Cramer and Donald G. Truhlar   : smd solvation model
   Lars Goerigk                                  : TD-DFT with DH, B97 family of functionals
   V. Asgeirsson, H. Jonsson                     : NEB implementation
   FAccTs GmbH                                   : IRC, NEB, NEB-TS, DLPNO-Multilevel, CI-OPT
                                                   MM, QMMM, 2- and 3-layer-ONIOM, Crystal-QMMM,
                                                   LR-CPCM, SF, NACMEs, symmetry and pop. for TD-DFT,
                                                   nearIR, NL-DFT gradient (VV10), updates on ESD,
                                                   ML-optimized integration grids
   S Lehtola, MJT Oliveira, MAL Marques          : LibXC Library
   Liviu Ungur et al                             : ANISO software


 Your calculation uses the libint2 library for the computation of 2-el integrals
 For citations please refer to: http://libint.valeyev.net

 Your ORCA version has been built with support for libXC version: 5.1.0
 For citations please refer to: https://tddft.org/programs/libxc/

 This ORCA versions uses:
   CBLAS   interface :  Fast vector & matrix operations
   LAPACKE interface :  Fast linear algebra routines
   SCALAPACK package :  Parallel linear algebra routines
   Shared memory     :  Shared parallel matrices
   BLAS/LAPACK       :  OpenBLAS 0.3.15  USE64BITINT DYNAMIC_ARCH NO_AFFINITY SkylakeX SINGLE_THREADED
        Core in use  :  SkylakeX
   Copyright (c) 2011-2014, The OpenBLAS Project


================================================================================

----- Orbital basis set information -----
Your calculation utilizes the basis: cc-pVTZ 
       H, B-Ne : Obtained from the ccRepo (grant-hill.group.shef.ac.uk/ccrepo) Feb. 2017
                 T. H. Dunning, Jr., J. Chem. Phys. 90, 1007 (1989)
            He : Obtained from the ccRepo (grant-hill.group.shef.ac.uk/ccrepo) Feb. 2017
                 D. E. Woon, T. H. Dunning, Jr., J. Chem. Phys. 100, 2975 (1994)
  Li-Be, Na-Mg : Obtained from the ccRepo (grant-hill.group.shef.ac.uk/ccrepo) Feb. 2017
                 B. P. Prascher, D. E. Woon, K. A. Peterson, T. H. Dunning, Jr., A. K. Wilson, Theor. Chem. Acc. 128, 69 (2011)
         Al-Ar : Obtained from the ccRepo (grant-hill.group.shef.ac.uk/ccrepo) Feb. 2017
                 D. E. Woon, T. H. Dunning, Jr., J. Chem. Phys. 98, 1358 (1993)
            Ca : Obtained from the Peterson Research Group Website (tyr0.chem.wsu.edu/~kipeters) Feb. 2017
                 J. Koput, K. A. Peterson, J. Phys. Chem. 106, 9595 (2002)
         Sc-Zn : Obtained from the ccRepo (grant-hill.group.shef.ac.uk/ccrepo) Feb. 2017
                 N. B. Balabanov, K. A. Peterson, J. Chem. Phys. 123, 064107 (2005)
                 N. B. Balabanov, K. A. Peterson, J. Chem. Phys. 125, 074110 (2006)
         Ga-Kr : Obtained from the ccRepo (grant-hill.group.shef.ac.uk/ccrepo) Feb. 2017
                 A. K. Wilson, D. E. Woon, K. A. Peterson, T. H. Dunning, Jr., J. Chem. Phys. 110, 7667 (1999)
             Y : Obtained from the ccRepo (grant-hill.group.shef.ac.uk/ccrepo) Feb. 2017
                 K. A. Peterson, D. Figgen, M. Dolg, H. Stoll, J. Chem. Phys. 126, 124101 (2007)
        Ag, Au : Obtained from the Peterson Research Group Website (tyr0.chem.wsu.edu/~kipeters) Feb. 2017
                 K. A. Peterson, C. Puzzarini, Theor. Chem. Acc. 114, 283 (2005)

----- AuxC basis set information -----
Your calculation utilizes the auxiliary basis: cc-pVTZ/C 
  Obtained from the EMSL Basis Set Exchange (bse.pnl.gov) Feb. 2017
  H-He, B-F, Al-Ar, Ga-Kr : F. Weigend, A. Kohn, C. Hattig, J. Chem. Phys. 116, 3175 (2002)
             Li-Be, Na-Mg : C. Haettig, Phys. Chem. Chem. Phys. 7, 59 (2005)
                       Ne : C. Haettig, Phys. Chem. Chem. Phys. 7, 59 (2005)
                            F. Weigend, A. Kohn, C. Hattig, J. Chem. Phys. 116, 3175 (2002)
                    Sc-Zn : J. G. Hill, J. A. Platts, J. Chem. Phys. 128, 044104 (2008)

================================================================================
                                        WARNINGS
                       Please study these warnings very carefully!
================================================================================


WARNING: No MP2 level density has been requested!
         To caclulate MP2 level properties use
         %mp2 Density relaxed end
         or
         %mp2 Density unrelaxed end

WARNING: Post HF methods need fully converged wavefunctions
  ===> : Setting SCFConvForced true
         You can overwrite this default with %scf ConvForced false 


INFO   : the flag for use of the SHARK integral package has been found!

================================================================================
                                       INPUT FILE
================================================================================
NAME = CONFS/Conf355.orca
|  1> ! ri-mp2 cc-pvtz cc-pvtz/c TightSCF NoKeepInts
|  2> 
|  3> %scf
|  4>   MaxCore 4096
|  5> end
|  6> *xyz  0  1
|  7>     C       15.1963842   15.0487873   17.4539873
|  8>     C       15.5463434   15.4716565   16.0151638
|  9>     O       16.9423602   15.2339178   15.7210956
| 10>     C       18.0250817   15.6178320   16.4765055
| 11>     O       19.0024289   14.8941663   16.5309161
| 12>     C       17.9018605   16.8154042   17.3707737
| 13>     C       17.4042049   18.0097980   16.9630984
| 14>     C       16.9502462   18.4048104   15.5727154
| 15>     N       17.4256760   19.1060738   17.8287374
| 16>     C       18.0821811   19.1409528   19.0301102
| 17>     S       18.1473863   20.5160413   19.9459586
| 18>     N       18.6908646   17.9783457   19.4297969
| 19>     C       18.5623578   16.6740622   18.7503384
| 20>     C       17.8465681   15.6551633   19.6366961
| 21>     C       18.2554070   14.3083306   19.6303255
| 22>     C       17.6044390   13.3551341   20.4306805
| 23>     C       16.5345128   13.7498187   21.2508783
| 24>     C       16.1253700   15.0896116   21.2659838
| 25>     O       15.0874397   15.4731244   22.0508988
| 26>     C       16.7754346   16.0368917   20.4683997
| 27>     H       15.7360344   14.1378939   17.7445415
| 28>     H       14.1217069   14.8478320   17.5402446
| 29>     H       15.4345877   15.8465883   18.1632196
| 30>     H       14.9486405   14.8684237   15.3193879
| 31>     H       15.2582590   16.5143900   15.8604387
| 32>     H       17.1501641   17.6270714   14.8263882
| 33>     H       17.4891189   19.2982351   15.2314772
| 34>     H       15.8789553   18.6381041   15.5516633
| 35>     H       17.0081197   19.9772982   17.5414075
| 36>     H       19.1600912   18.0278866   20.3253976
| 37>     H       19.5828732   16.2979447   18.5841722
| 38>     H       19.0788872   13.9952839   18.9918045
| 39>     H       17.9296362   12.3162903   20.4097945
| 40>     H       16.0276552   13.0161281   21.8689525
| 41>     H       14.8025666   14.6966233   22.5559879
| 42>     H       16.4331571   17.0660838   20.4960620
| 43> *
| 44> 
| 45>                          ****END OF INPUT****
================================================================================

                       ****************************
                       * Single Point Calculation *
                       ****************************

---------------------------------
CARTESIAN COORDINATES (ANGSTROEM)
---------------------------------
  C     15.196384   15.048787   17.453987
  C     15.546343   15.471656   16.015164
  O     16.942360   15.233918   15.721096
  C     18.025082   15.617832   16.476505
  O     19.002429   14.894166   16.530916
  C     17.901861   16.815404   17.370774
  C     17.404205   18.009798   16.963098
  C     16.950246   18.404810   15.572715
  N     17.425676   19.106074   17.828737
  C     18.082181   19.140953   19.030110
  S     18.147386   20.516041   19.945959
  N     18.690865   17.978346   19.429797
  C     18.562358   16.674062   18.750338
  C     17.846568   15.655163   19.636696
  C     18.255407   14.308331   19.630325
  C     17.604439   13.355134   20.430681
  C     16.534513   13.749819   21.250878
  C     16.125370   15.089612   21.265984
  O     15.087440   15.473124   22.050899
  C     16.775435   16.036892   20.468400
  H     15.736034   14.137894   17.744542
  H     14.121707   14.847832   17.540245
  H     15.434588   15.846588   18.163220
  H     14.948640   14.868424   15.319388
  H     15.258259   16.514390   15.860439
  H     17.150164   17.627071   14.826388
  H     17.489119   19.298235   15.231477
  H     15.878955   18.638104   15.551663
  H     17.008120   19.977298   17.541407
  H     19.160091   18.027887   20.325398
  H     19.582873   16.297945   18.584172
  H     19.078887   13.995284   18.991805
  H     17.929636   12.316290   20.409794
  H     16.027655   13.016128   21.868952
  H     14.802567   14.696623   22.555988
  H     16.433157   17.066084   20.496062

----------------------------
CARTESIAN COORDINATES (A.U.)
----------------------------
  NO LB      ZA    FRAG     MASS         X           Y           Z
   0 C     6.0000    0    12.011   28.717004   28.438087   32.983256
   1 C     6.0000    0    12.011   29.378331   29.237194   30.264274
   2 O     8.0000    0    15.999   32.016421   28.787933   29.708565
   3 C     6.0000    0    12.011   34.062468   29.513425   31.136083
   4 O     8.0000    0    15.999   35.909387   28.145895   31.238904
   5 C     6.0000    0    12.011   33.829614   31.776509   32.826005
   6 C     6.0000    0    12.011   32.889181   34.033586   32.055610
   7 C     6.0000    0    12.011   32.031323   34.780051   29.428167
   8 N     7.0000    0    14.007   32.929755   36.105247   33.691431
   9 C     6.0000    0    12.011   34.170370   36.171159   35.961697
  10 S    16.0000    0    32.060   34.293590   38.769699   37.692399
  11 N     7.0000    0    14.007   35.320615   33.974150   36.716995
  12 C     6.0000    0    12.011   35.077773   31.509411   35.433004
  13 C     6.0000    0    12.011   33.725126   29.583971   37.107978
  14 C     6.0000    0    12.011   34.497720   27.038826   37.095939
  15 C     6.0000    0    12.011   33.267568   25.237546   38.608391
  16 C     6.0000    0    12.011   31.245701   25.983392   40.158340
  17 C     6.0000    0    12.011   30.472533   28.515233   40.186885
  18 O     8.0000    0    15.999   28.511129   29.239968   41.670160
  19 C     6.0000    0    12.011   31.700977   30.305333   38.679670
  20 H     1.0000    0     1.008   29.736795   26.716748   33.532324
  21 H     1.0000    0     1.008   26.686159   28.058336   33.146259
  22 H     1.0000    0     1.008   29.167144   29.945712   34.323511
  23 H     1.0000    0     1.008   28.248837   28.097249   28.949448
  24 H     1.0000    0     1.008   28.833931   31.207674   29.971886
  25 H     1.0000    0     1.008   32.409113   33.310337   28.017813
  26 H     1.0000    0     1.008   33.049645   36.468379   28.783321
  27 H     1.0000    0     1.008   30.006877   35.220912   29.388385
  28 H     1.0000    0     1.008   32.140688   37.751622   33.148456
  29 H     1.0000    0     1.008   36.207325   34.067768   38.409435
  30 H     1.0000    0     1.008   37.006267   30.798652   35.118996
  31 H     1.0000    0     1.008   36.053872   26.447254   35.889309
  32 H     1.0000    0     1.008   33.882102   23.274416   38.568922
  33 H     1.0000    0     1.008   30.287879   24.596917   41.326331
  34 H     1.0000    0     1.008   27.972797   27.772593   42.624640
  35 H     1.0000    0     1.008   31.054166   32.250225   38.731944

--------------------------------
INTERNAL COORDINATES (ANGSTROEM)
--------------------------------
 C      0   0   0     0.000000000000     0.00000000     0.00000000
 C      1   0   0     1.539968462705     0.00000000     0.00000000
 O      2   1   0     1.446325932012   111.35690655     0.00000000
 C      3   2   1     1.374889114271   127.04880013   309.93275331
 O      4   3   2     1.217316765717   119.39441940   144.74781682
 C      4   3   2     1.499692719151   119.07168157   333.55209227
 C      6   4   3     1.356626992183   123.64177647   310.99676113
 C      7   6   4     1.515017552423   127.97038856   356.79388364
 N      7   6   4     1.397001258454   119.93702214   185.25686960
 C      9   7   6     1.369493371852   124.81488115     9.37060330
 S     10   9   7     1.653450450640   121.73486641   175.54854616
 N     10   9   7     1.371823724208   116.53246677   355.99054694
 C     12  10   9     1.476256515393   125.17261633   352.64153817
 C     13  12  10     1.528443599024   111.27391052   245.39729673
 C     14  13  12     1.407532647041   119.94865371   217.44209170
 C     15  14  13     1.404603513687   120.80792010   180.44393123
 C     16  15  14     1.404721480596   119.67149388   359.82220970
 C     17  16  15     1.400953611585   119.83080464   359.94174900
 O     18  17  16     1.356640310711   120.00177176   179.61496206
 C     18  17  16     1.398593568054   120.38770391     0.04091535
 H      1   2   3     1.097893832600   111.30846130   322.60627158
 H      1   2   3     1.096701715845   110.27270210   202.77517496
 H      1   2   3     1.093726564721   110.85914020    84.18707706
 H      2   1   3     1.097835447909   108.51404947   118.54194259
 H      2   1   3     1.092806309515   109.53557619   234.93268467
 H      8   7   6     1.096288925567   112.65361969   354.27416571
 H      8   7   6     1.097740857632   110.51143725   235.86657849
 H      8   7   6     1.096600808771   111.45746383   116.41278309
 H      9   7   6     1.007940320782   119.68878326   183.44913295
 H     12  10   9     1.012288751672   114.95863978   180.64771855
 H     13  12  10     1.100239638200   106.90570606   128.77086089
 H     15  14  13     1.088038116802   119.85475559   359.83162593
 H     16  15  14     1.088754281132   119.87803417   179.65865053
 H     17  16  15     1.084998728069   119.89615371   179.86590676
 H     19  18  17     0.969134480010   107.45313774     3.31553159
 H     20  18  17     1.084967957384   118.77159166   179.64015802

---------------------------
INTERNAL COORDINATES (A.U.)
---------------------------
 C      0   0   0     0.000000000000     0.00000000     0.00000000
 C      1   0   0     2.910118649388     0.00000000     0.00000000
 O      2   1   0     2.733159911892   111.35690655     0.00000000
 C      3   2   1     2.598163890482   127.04880013   309.93275331
 O      4   3   2     2.300395305437   119.39441940   144.74781682
 C      4   3   2     2.834008524230   119.07168157   333.55209227
 C      6   4   3     2.563653481111   123.64177647   310.99676113
 C      7   6   4     2.862968262162   127.97038856   356.79388364
 N      7   6   4     2.639949787221   119.93702214   185.25686960
 C      9   7   6     2.587967415021   124.81488115     9.37060330
 S     10   9   7     3.124568527718   121.73486641   175.54854616
 N     10   9   7     2.592371142769   116.53246677   355.99054694
 C     12  10   9     2.789720517510   125.17261633   352.64153817
 C     13  12  10     2.888339813300   111.27391052   245.39729673
 C     14  13  12     2.659851227461   119.94865371   217.44209170
 C     15  14  13     2.654315967612   120.80792010   180.44393123
 C     16  15  14     2.654538892763   119.67149388   359.82220970
 C     17  16  15     2.647418652223   119.83080464   359.94174900
 O     18  17  16     2.563678649482   120.00177176   179.61496206
 C     18  17  16     2.642958816286   120.38770391     0.04091535
 H      1   2   3     2.074718667735   111.30846130   322.60627158
 H      1   2   3     2.072465893548   110.27270210   202.77517496
 H      1   2   3     2.066843672717   110.85914020    84.18707706
 H      2   1   3     2.074608336658   108.51404947   118.54194259
 H      2   1   3     2.065104642404   109.53557619   234.93268467
 H      8   7   6     2.071685832973   112.65361969   354.27416571
 H      8   7   6     2.074429586940   110.51143725   235.86657849
 H      8   7   6     2.072275206813   111.45746383   116.41278309
 H      9   7   6     1.904731165616   119.68878326   183.44913295
 H     12  10   9     1.912948509108   114.95863978   180.64771855
 H     13  12  10     2.079151597882   106.90570606   128.77086089
 H     15  14  13     2.056094064023   119.85475559   359.83162593
 H     16  15  14     2.057447418473   119.87803417   179.65865053
 H     17  16  15     2.050350451704   119.89615371   179.86590676
 H     19  18  17     1.831398754158   107.45313774     3.31553159
 H     20  18  17     2.050292303536   118.77159166   179.64015802

---------------------
BASIS SET INFORMATION
---------------------
There are 5 groups of distinct atoms

 Group   1 Type C   : 18s5p2d1f contracted to 4s3p2d1f pattern {8811/311/11/1}
 Group   2 Type O   : 18s5p2d1f contracted to 4s3p2d1f pattern {8811/311/11/1}
 Group   3 Type N   : 18s5p2d1f contracted to 4s3p2d1f pattern {8811/311/11/1}
 Group   4 Type S   : 41s16p2d1f contracted to 5s4p2d1f pattern {13131311/7711/11/1}
 Group   5 Type H   : 5s2p1d contracted to 3s2p1d pattern {311/11/1}

Atom   0C    basis set group =>   1
Atom   1C    basis set group =>   1
Atom   2O    basis set group =>   2
Atom   3C    basis set group =>   1
Atom   4O    basis set group =>   2
Atom   5C    basis set group =>   1
Atom   6C    basis set group =>   1
Atom   7C    basis set group =>   1
Atom   8N    basis set group =>   3
Atom   9C    basis set group =>   1
Atom  10S    basis set group =>   4
Atom  11N    basis set group =>   3
Atom  12C    basis set group =>   1
Atom  13C    basis set group =>   1
Atom  14C    basis set group =>   1
Atom  15C    basis set group =>   1
Atom  16C    basis set group =>   1
Atom  17C    basis set group =>   1
Atom  18O    basis set group =>   2
Atom  19C    basis set group =>   1
Atom  20H    basis set group =>   5
Atom  21H    basis set group =>   5
Atom  22H    basis set group =>   5
Atom  23H    basis set group =>   5
Atom  24H    basis set group =>   5
Atom  25H    basis set group =>   5
Atom  26H    basis set group =>   5
Atom  27H    basis set group =>   5
Atom  28H    basis set group =>   5
Atom  29H    basis set group =>   5
Atom  30H    basis set group =>   5
Atom  31H    basis set group =>   5
Atom  32H    basis set group =>   5
Atom  33H    basis set group =>   5
Atom  34H    basis set group =>   5
Atom  35H    basis set group =>   5
---------------------------------
AUXILIARY/C BASIS SET INFORMATION
---------------------------------
There are 5 groups of distinct atoms

 Group   1 Type C   : 8s6p5d3f1g contracted to 8s6p5d3f1g pattern {11111111/111111/11111/111/1}
 Group   2 Type O   : 8s6p5d3f1g contracted to 8s6p5d3f1g pattern {11111111/111111/11111/111/1}
 Group   3 Type N   : 8s6p5d3f1g contracted to 8s6p5d3f1g pattern {11111111/111111/11111/111/1}
 Group   4 Type S   : 10s8p7d5f2g contracted to 10s8p7d5f2g pattern {1111111111/11111111/1111111/11111/11}
 Group   5 Type H   : 4s3p2d1f contracted to 4s3p2d1f pattern {1111/111/11/1}

Atom   0C    basis set group =>   1
Atom   1C    basis set group =>   1
Atom   2O    basis set group =>   2
Atom   3C    basis set group =>   1
Atom   4O    basis set group =>   2
Atom   5C    basis set group =>   1
Atom   6C    basis set group =>   1
Atom   7C    basis set group =>   1
Atom   8N    basis set group =>   3
Atom   9C    basis set group =>   1
Atom  10S    basis set group =>   4
Atom  11N    basis set group =>   3
Atom  12C    basis set group =>   1
Atom  13C    basis set group =>   1
Atom  14C    basis set group =>   1
Atom  15C    basis set group =>   1
Atom  16C    basis set group =>   1
Atom  17C    basis set group =>   1
Atom  18O    basis set group =>   2
Atom  19C    basis set group =>   1
Atom  20H    basis set group =>   5
Atom  21H    basis set group =>   5
Atom  22H    basis set group =>   5
Atom  23H    basis set group =>   5
Atom  24H    basis set group =>   5
Atom  25H    basis set group =>   5
Atom  26H    basis set group =>   5
Atom  27H    basis set group =>   5
Atom  28H    basis set group =>   5
Atom  29H    basis set group =>   5
Atom  30H    basis set group =>   5
Atom  31H    basis set group =>   5
Atom  32H    basis set group =>   5
Atom  33H    basis set group =>   5
Atom  34H    basis set group =>   5
Atom  35H    basis set group =>   5
------------------------------------------------------------------------------
                           ORCA GTO INTEGRAL CALCULATION
------------------------------------------------------------------------------
------------------------------------------------------------------------------
                   ___                                                        
                  /   \      - P O W E R E D   B Y -                         
                 /     \                                                     
                 |  |  |   _    _      __       _____    __    __             
                 |  |  |  | |  | |    /  \     |  _  \  |  |  /  |          
                  \  \/   | |  | |   /    \    | | | |  |  | /  /          
                 / \  \   | |__| |  /  /\  \   | |_| |  |  |/  /          
                |  |  |   |  __  | /  /__\  \  |    /   |      \           
                |  |  |   | |  | | |   __   |  |    \   |  |\   \          
                \     /   | |  | | |  |  |  |  | |\  \  |  | \   \       
                 \___/    |_|  |_| |__|  |__|  |_| \__\ |__|  \__/        
                                                                              
                      - O R C A' S   B I G   F R I E N D -                    
                                      &                                       
                       - I N T E G R A L  F E E D E R -                       
                                                                              
 v1 FN, 2020, v2 2021                                                         
------------------------------------------------------------------------------


Reading SHARK input file CONFS/Conf355.orca.SHARKINP.tmp ... ok
----------------------
SHARK INTEGRAL PACKAGE
----------------------

Number of atoms                             ...     36
Number of basis functions                   ...    828
Number of shells                            ...    298
Maximum angular momentum                    ...      3
Integral batch strategy                     ... SHARK/LIBINT Hybrid
RI-J (if used) integral strategy            ... SPLIT-RIJ (Revised 2003 algorithm where possible)
Printlevel                                  ...      1
Contraction scheme used                     ... SEGMENTED contraction
Coulomb Range Separation                    ... NOT USED
Exchange Range Separation                   ... NOT USED
Finite Nucleus Model                        ... NOT USED
Auxiliary Coulomb fitting basis             ... NOT available
Auxiliary J/K fitting basis                 ... NOT available
Auxiliary Correlation fitting basis         ... AVAILABLE
   # of basis functions in Aux-C            ...   2141
   # of shells in Aux-C                     ...    629
   Maximum angular momentum in Aux-C        ...      4
Auxiliary 'external' fitting basis          ... NOT available
Integral threshold                          ...     2.500000e-11
Primitive cut-off                           ...     2.500000e-12
Primitive pair pre-selection threshold      ...     2.500000e-12

Calculating pre-screening integrals         ... done (  0.6 sec) Dimension = 298
Organizing shell pair data                  ... done (  1.2 sec)
Shell pair information
Total number of shell pairs                 ...     44551
Shell pairs after pre-screening             ...     34717
Total number of primitive shell pairs       ...    234348
Primitive shell pairs kept                  ...     99296
          la=0 lb=0:   6893 shell pairs
          la=1 lb=0:   9629 shell pairs
          la=1 lb=1:   3419 shell pairs
          la=2 lb=0:   5535 shell pairs
          la=2 lb=1:   3808 shell pairs
          la=2 lb=2:   1101 shell pairs
          la=3 lb=0:   2010 shell pairs
          la=3 lb=1:   1387 shell pairs
          la=3 lb=2:    785 shell pairs
          la=3 lb=3:    150 shell pairs

Calculating one electron integrals          ... done (  0.4 sec)
Calculating RI/C V-Matrix + Cholesky decomp.... done (  0.9 sec)
Calculating Nuclear repulsion               ... done (  0.0 sec) ENN=   1732.583270207675 Eh

SHARK setup successfully completed in   3.7 seconds

Maximum memory used throughout the entire GTOINT-calculation: 518.8 MB
-------------------------------------------------------------------------------
                                 ORCA SCF
-------------------------------------------------------------------------------

------------
SCF SETTINGS
------------
Hamiltonian:
 Ab initio Hamiltonian  Method          .... Hartree-Fock(GTOs)


General Settings:
 Integral files         IntName         .... CONFS/Conf355.orca
 Hartree-Fock type      HFTyp           .... RHF
 Total Charge           Charge          ....    0
 Multiplicity           Mult            ....    1
 Number of Electrons    NEL             ....  154
 Basis Dimension        Dim             ....  828
 Nuclear Repulsion      ENuc            ....   1732.5832702077 Eh

Convergence Acceleration:
 DIIS                   CNVDIIS         .... on
   Start iteration      DIISMaxIt       ....    12
   Startup error        DIISStart       ....  0.200000
   # of expansion vecs  DIISMaxEq       ....     5
   Bias factor          DIISBfac        ....   1.050
   Max. coefficient     DIISMaxC        ....  10.000
 Trust-Rad. Augm. Hess. CNVTRAH         .... auto
   Auto Start mean grad. ratio tolernc. ....  1.125000
   Auto Start start iteration           ....    20
   Auto Start num. interpolation iter.  ....    10
   Max. Number of Micro iterations      ....    16
   Max. Number of Macro iterations      .... Maxiter - #DIIS iter
   Number of Davidson start vectors     ....     2
   Converg. threshold I  (grad. norm)   ....   1.000e-05
   Converg. threshold II (energy diff.) ....   1.000e-08
   Grad. Scal. Fac. for Micro threshold ....   0.100
   Minimum threshold for Micro iter.    ....   0.010
   NR start threshold (gradient norm)   ....   0.001
   Initial trust radius                 ....   0.400
   Minimum AH scaling param. (alpha)    ....   1.000
   Maximum AH scaling param. (alpha)    .... 1000.000
   Orbital update algorithm             .... Taylor
   White noise on init. David. guess    .... on
   Maximum white noise                  ....   0.010
   Quad. conv. algorithm                .... NR
 SOSCF                  CNVSOSCF        .... on
   Start iteration      SOSCFMaxIt      ....   150
   Startup grad/error   SOSCFStart      ....  0.003300
 Level Shifting         CNVShift        .... on
   Level shift para.    LevelShift      ....    0.2500
   Turn off err/grad.   ShiftErr        ....    0.0010
 Zerner damping         CNVZerner       .... off
 Static damping         CNVDamp         .... on
   Fraction old density DampFac         ....    0.7000
   Max. Damping (<1)    DampMax         ....    0.9800
   Min. Damping (>=0)   DampMin         ....    0.0000
   Turn off err/grad.   DampErr         ....    0.1000
 Fernandez-Rico         CNVRico         .... off

SCF Procedure:
 Maximum # iterations   MaxIter         ....   125
 SCF integral mode      SCFMode         .... Direct
   Integral package                     .... SHARK and LIBINT hybrid scheme
 Reset frequency        DirectResetFreq ....    20
 Integral Threshold     Thresh          ....  2.500e-11 Eh
 Primitive CutOff       TCut            ....  2.500e-12 Eh

Convergence Tolerance:
 Convergence Check Mode ConvCheckMode   .... Total+1el-Energy
 Convergence forced     ConvForced      .... 1
 Energy Change          TolE            ....  1.000e-08 Eh
 1-El. energy change                    ....  1.000e-05 Eh
 Orbital Gradient       TolG            ....  1.000e-05
 Orbital Rotation angle TolX            ....  1.000e-05
 DIIS Error             TolErr          ....  5.000e-07


Diagonalization of the overlap matrix:
Smallest eigenvalue                        ... 3.165e-05
Time for diagonalization                   ...    0.127 sec
Threshold for overlap eigenvalues          ... 1.000e-08
Number of eigenvalues below threshold      ... 0
Time for construction of square roots      ...    0.073 sec
Total time needed                          ...    0.203 sec

Time for model grid setup =    1.627 sec

------------------------------
INITIAL GUESS: MODEL POTENTIAL
------------------------------
Loading Hartree-Fock densities                     ... done
Calculating cut-offs                               ... done
Initializing the effective Hamiltonian             ... done
Setting up the integral package (SHARK)            ... done
Starting the Coulomb interaction                   ... done (   4.8 sec)
Reading the grid                                   ... done
Mapping shells                                     ... done
Starting the XC term evaluation                    ... done (   1.6 sec)
Transforming the Hamiltonian                       ... done (   0.1 sec)
Diagonalizing the Hamiltonian                      ... done (   0.1 sec)
Back transforming the eigenvectors                 ... done (   0.0 sec)
Now organizing SCF variables                       ... done
                      ------------------
                      INITIAL GUESS DONE (   8.3 sec)
                      ------------------
--------------
SCF ITERATIONS
--------------
ITER       Energy         Delta-E        Max-DP      RMS-DP      [F,P]     Damp
               ***  Starting incremental Fock matrix formation  ***
  0  -1270.0025929738   0.000000000000 0.04933440  0.00044536  0.3121929 0.7000
  1  -1270.2672637622  -0.264670788367 0.03610506  0.00036316  0.1825032 0.7000
                               ***Turning on DIIS***
  2  -1270.4324285922  -0.165164829983 0.02586291  0.00024196  0.1098178 0.7000
  3  -1272.5486459989  -2.116217406694 0.06323710  0.00051662  0.0829943 0.0000
  4  -1270.7437346774   1.804911321422 0.01195725  0.00010277  0.0066469 0.0000
  5  -1270.7971191292  -0.053384451783 0.00630600  0.00005465  0.0037781 0.0000
                      *** Initiating the SOSCF procedure ***
                           *** Shutting down DIIS ***
                      *** Re-Reading the Fockian *** 
                      *** Removing any level shift *** 
ITER      Energy       Delta-E        Grad      Rot      Max-DP    RMS-DP
  6  -1270.77673181   0.0203873160  0.001519  0.001519  0.002903  0.000028
               *** Restarting incremental Fock matrix formation ***
  7  -1270.79191698  -0.0151851680  0.000745  0.001874  0.001613  0.000018
  8  -1270.79196461  -0.0000476267  0.000369  0.002189  0.001733  0.000019
  9  -1270.79198322  -0.0000186140  0.000169  0.000311  0.000385  0.000005
 10  -1270.79198562  -0.0000023937  0.000043  0.000117  0.000127  0.000001
 11  -1270.79198585  -0.0000002319  0.000022  0.000124  0.000104  0.000001
 12  -1270.79198591  -0.0000000628  0.000009  0.000030  0.000029  0.000000
 13  -1270.79198592  -0.0000000082  0.000003  0.000007  0.000006  0.000000
                  ***Gradient check signals convergence***
              ***Rediagonalizing the Fockian in SOSCF/NRSCF***

               *****************************************************
               *                     SUCCESS                       *
               *           SCF CONVERGED AFTER  14 CYCLES          *
               *****************************************************


----------------
TOTAL SCF ENERGY
----------------

Total Energy       :        -1270.79198591 Eh          -34580.00795 eV

Components:
Nuclear Repulsion  :         1732.58327021 Eh           47145.98764 eV
Electronic Energy  :        -3003.37525612 Eh          -81725.99559 eV
One Electron Energy:        -5185.89082829 Eh         -141115.26360 eV
Two Electron Energy:         2182.51557216 Eh           59389.26801 eV

Virial components:
Potential Energy   :        -2539.74416189 Eh          -69109.95213 eV
Kinetic Energy     :         1268.95217598 Eh           34529.94418 eV
Virial Ratio       :            2.00144987


---------------
SCF CONVERGENCE
---------------

  Last Energy change         ...    4.1250e-09  Tolerance :   1.0000e-08
  Last MAX-Density change    ...    3.2374e-06  Tolerance :   1.0000e-07
  Last RMS-Density change    ...    3.7810e-08  Tolerance :   5.0000e-09
  Last Orbital Gradient      ...    1.2656e-06  Tolerance :   1.0000e-05
  Last Orbital Rotation      ...    3.8221e-06  Tolerance :   1.0000e-05

             **** THE GBW FILE WAS UPDATED (CONFS/Conf355.orca.gbw) ****
             **** DENSITY CONFS/Conf355.orca.scfp WAS UPDATED ****
             **** ENERGY FILE WAS UPDATED (CONFS/Conf355.orca.en.tmp) ****
             **** THE GBW FILE WAS UPDATED (CONFS/Conf355.orca.gbw) ****
             **** DENSITY CONFS/Conf355.orca.scfp WAS UPDATED ****
----------------
ORBITAL ENERGIES
----------------

  NO   OCC          E(Eh)            E(eV) 
   0   2.0000     -91.891095     -2500.4838 
   1   2.0000     -20.598263      -560.5072 
   2   2.0000     -20.597474      -560.4858 
   3   2.0000     -20.549615      -559.1834 
   4   2.0000     -15.629340      -425.2960 
   5   2.0000     -15.611130      -424.8004 
   6   2.0000     -11.400409      -310.2209 
   7   2.0000     -11.387121      -309.8593 
   8   2.0000     -11.336256      -308.4752 
   9   2.0000     -11.314140      -307.8734 
  10   2.0000     -11.313234      -307.8487 
  11   2.0000     -11.308228      -307.7125 
  12   2.0000     -11.269029      -306.6459 
  13   2.0000     -11.269006      -306.6452 
  14   2.0000     -11.261548      -306.4423 
  15   2.0000     -11.254304      -306.2452 
  16   2.0000     -11.243634      -305.9548 
  17   2.0000     -11.239297      -305.8368 
  18   2.0000     -11.235494      -305.7333 
  19   2.0000     -11.227981      -305.5289 
  20   2.0000      -8.896191      -242.0777 
  21   2.0000      -6.577776      -178.9904 
  22   2.0000      -6.575753      -178.9353 
  23   2.0000      -6.575173      -178.9196 
  24   2.0000      -1.445831       -39.3431 
  25   2.0000      -1.417285       -38.5663 
  26   2.0000      -1.358387       -36.9636 
  27   2.0000      -1.342662       -36.5357 
  28   2.0000      -1.241209       -33.7750 
  29   2.0000      -1.158519       -31.5249 
  30   2.0000      -1.124810       -30.6076 
  31   2.0000      -1.047057       -28.4919 
  32   2.0000      -1.037664       -28.2363 
  33   2.0000      -1.017163       -27.6784 
  34   2.0000      -1.005811       -27.3695 
  35   2.0000      -0.989928       -26.9373 
  36   2.0000      -0.927834       -25.2476 
  37   2.0000      -0.896559       -24.3966 
  38   2.0000      -0.855487       -23.2790 
  39   2.0000      -0.841184       -22.8898 
  40   2.0000      -0.834175       -22.6991 
  41   2.0000      -0.829458       -22.5707 
  42   2.0000      -0.745903       -20.2971 
  43   2.0000      -0.739237       -20.1157 
  44   2.0000      -0.730198       -19.8697 
  45   2.0000      -0.695288       -18.9197 
  46   2.0000      -0.687050       -18.6956 
  47   2.0000      -0.681043       -18.5321 
  48   2.0000      -0.675433       -18.3795 
  49   2.0000      -0.660579       -17.9753 
  50   2.0000      -0.656115       -17.8538 
  51   2.0000      -0.650340       -17.6967 
  52   2.0000      -0.639352       -17.3977 
  53   2.0000      -0.623545       -16.9675 
  54   2.0000      -0.610186       -16.6040 
  55   2.0000      -0.605452       -16.4752 
  56   2.0000      -0.601420       -16.3655 
  57   2.0000      -0.588263       -16.0075 
  58   2.0000      -0.576273       -15.6812 
  59   2.0000      -0.565793       -15.3960 
  60   2.0000      -0.565565       -15.3898 
  61   2.0000      -0.551236       -14.9999 
  62   2.0000      -0.539877       -14.6908 
  63   2.0000      -0.535965       -14.5843 
  64   2.0000      -0.520479       -14.1630 
  65   2.0000      -0.512937       -13.9577 
  66   2.0000      -0.501261       -13.6400 
  67   2.0000      -0.498712       -13.5707 
  68   2.0000      -0.482519       -13.1300 
  69   2.0000      -0.469373       -12.7723 
  70   2.0000      -0.457322       -12.4444 
  71   2.0000      -0.449917       -12.2429 
  72   2.0000      -0.359293        -9.7769 
  73   2.0000      -0.348289        -9.4774 
  74   2.0000      -0.330603        -8.9962 
  75   2.0000      -0.322837        -8.7848 
  76   2.0000      -0.319647        -8.6980 
  77   0.0000       0.078723         2.1422 
  78   0.0000       0.106847         2.9075 
  79   0.0000       0.114653         3.1199 
  80   0.0000       0.130381         3.5478 
  81   0.0000       0.131324         3.5735 
  82   0.0000       0.144520         3.9326 
  83   0.0000       0.150641         4.0992 
  84   0.0000       0.155038         4.2188 
  85   0.0000       0.159324         4.3354 
  86   0.0000       0.172000         4.6804 
  87   0.0000       0.173511         4.7215 
  88   0.0000       0.189906         5.1676 
  89   0.0000       0.191903         5.2219 
  90   0.0000       0.201858         5.4928 
  91   0.0000       0.203046         5.5252 
  92   0.0000       0.209750         5.7076 
  93   0.0000       0.219848         5.9824 
  94   0.0000       0.226909         6.1745 
  95   0.0000       0.236400         6.4328 
  96   0.0000       0.243034         6.6133 
  97   0.0000       0.251594         6.8462 
  98   0.0000       0.265735         7.2310 
  99   0.0000       0.279137         7.5957 
 100   0.0000       0.284430         7.7397 
 101   0.0000       0.293253         7.9798 
 102   0.0000       0.309155         8.4125 
 103   0.0000       0.317071         8.6280 
 104   0.0000       0.327459         8.9106 
 105   0.0000       0.331961         9.0331 
 106   0.0000       0.341760         9.2998 
 107   0.0000       0.350174         9.5287 
 108   0.0000       0.354486         9.6461 
 109   0.0000       0.358840         9.7645 
 110   0.0000       0.369576        10.0567 
 111   0.0000       0.374449        10.1893 
 112   0.0000       0.380393        10.3510 
 113   0.0000       0.391186        10.6447 
 114   0.0000       0.402504        10.9527 
 115   0.0000       0.409075        11.1315 
 116   0.0000       0.420990        11.4557 
 117   0.0000       0.430171        11.7056 
 118   0.0000       0.435109        11.8399 
 119   0.0000       0.440608        11.9896 
 120   0.0000       0.446184        12.1413 
 121   0.0000       0.449335        12.2270 
 122   0.0000       0.452089        12.3020 
 123   0.0000       0.459365        12.5000 
 124   0.0000       0.467656        12.7256 
 125   0.0000       0.472850        12.8669 
 126   0.0000       0.479819        13.0565 
 127   0.0000       0.490842        13.3565 
 128   0.0000       0.493135        13.4189 
 129   0.0000       0.502028        13.6609 
 130   0.0000       0.508395        13.8341 
 131   0.0000       0.514347        13.9961 
 132   0.0000       0.515789        14.0353 
 133   0.0000       0.521420        14.1886 
 134   0.0000       0.524171        14.2634 
 135   0.0000       0.526838        14.3360 
 136   0.0000       0.531961        14.4754 
 137   0.0000       0.537840        14.6354 
 138   0.0000       0.542100        14.7513 
 139   0.0000       0.550127        14.9697 
 140   0.0000       0.553298        15.0560 
 141   0.0000       0.559804        15.2330 
 142   0.0000       0.561065        15.2674 
 143   0.0000       0.570780        15.5317 
 144   0.0000       0.578460        15.7407 
 145   0.0000       0.581951        15.8357 
 146   0.0000       0.590973        16.0812 
 147   0.0000       0.593024        16.1370 
 148   0.0000       0.596874        16.2418 
 149   0.0000       0.601688        16.3728 
 150   0.0000       0.603318        16.4171 
 151   0.0000       0.606213        16.4959 
 152   0.0000       0.612951        16.6792 
 153   0.0000       0.616000        16.7622 
 154   0.0000       0.620622        16.8880 
 155   0.0000       0.625980        17.0338 
 156   0.0000       0.629329        17.1249 
 157   0.0000       0.632233        17.2039 
 158   0.0000       0.635262        17.2863 
 159   0.0000       0.639793        17.4097 
 160   0.0000       0.651966        17.7409 
 161   0.0000       0.653154        17.7732 
 162   0.0000       0.658001        17.9051 
 163   0.0000       0.662649        18.0316 
 164   0.0000       0.671386        18.2693 
 165   0.0000       0.679447        18.4887 
 166   0.0000       0.683049        18.5867 
 167   0.0000       0.691601        18.8194 
 168   0.0000       0.699786        19.0422 
 169   0.0000       0.701834        19.0979 
 170   0.0000       0.703304        19.1379 
 171   0.0000       0.713211        19.4074 
 172   0.0000       0.716679        19.5018 
 173   0.0000       0.719738        19.5851 
 174   0.0000       0.733319        19.9546 
 175   0.0000       0.737572        20.0704 
 176   0.0000       0.748380        20.3645 
 177   0.0000       0.755815        20.5668 
 178   0.0000       0.759252        20.6603 
 179   0.0000       0.768331        20.9074 
 180   0.0000       0.769837        20.9483 
 181   0.0000       0.775333        21.0979 
 182   0.0000       0.781748        21.2724 
 183   0.0000       0.786497        21.4017 
 184   0.0000       0.802921        21.8486 
 185   0.0000       0.817377        22.2420 
 186   0.0000       0.818418        22.2703 
 187   0.0000       0.828848        22.5541 
 188   0.0000       0.837810        22.7980 
 189   0.0000       0.846848        23.0439 
 190   0.0000       0.850832        23.1523 
 191   0.0000       0.854147        23.2425 
 192   0.0000       0.857269        23.3275 
 193   0.0000       0.867674        23.6106 
 194   0.0000       0.877468        23.8771 
 195   0.0000       0.887665        24.1546 
 196   0.0000       0.895440        24.3661 
 197   0.0000       0.899597        24.4793 
 198   0.0000       0.903917        24.5968 
 199   0.0000       0.911709        24.8089 
 200   0.0000       0.923877        25.1400 
 201   0.0000       0.932584        25.3769 
 202   0.0000       0.939429        25.5632 
 203   0.0000       0.941672        25.6242 
 204   0.0000       0.949056        25.8251 
 205   0.0000       0.955578        26.0026 
 206   0.0000       0.962122        26.1807 
 207   0.0000       0.966144        26.2901 
 208   0.0000       0.972308        26.4578 
 209   0.0000       0.982014        26.7219 
 210   0.0000       0.988222        26.8909 
 211   0.0000       0.994145        27.0521 
 212   0.0000       1.003230        27.2993 
 213   0.0000       1.006553        27.3897 
 214   0.0000       1.016975        27.6733 
 215   0.0000       1.020106        27.7585 
 216   0.0000       1.027411        27.9573 
 217   0.0000       1.034086        28.1389 
 218   0.0000       1.040899        28.3243 
 219   0.0000       1.048128        28.5210 
 220   0.0000       1.059042        28.8180 
 221   0.0000       1.063267        28.9330 
 222   0.0000       1.069175        29.0937 
 223   0.0000       1.084770        29.5181 
 224   0.0000       1.091225        29.6937 
 225   0.0000       1.095659        29.8144 
 226   0.0000       1.103834        30.0369 
 227   0.0000       1.110270        30.2120 
 228   0.0000       1.116102        30.3707 
 229   0.0000       1.119751        30.4700 
 230   0.0000       1.131510        30.7900 
 231   0.0000       1.134662        30.8757 
 232   0.0000       1.142567        31.0908 
 233   0.0000       1.146726        31.2040 
 234   0.0000       1.157883        31.5076 
 235   0.0000       1.160994        31.5923 
 236   0.0000       1.172033        31.8926 
 237   0.0000       1.185688        32.2642 
 238   0.0000       1.194479        32.5034 
 239   0.0000       1.201940        32.7065 
 240   0.0000       1.206339        32.8262 
 241   0.0000       1.214205        33.0402 
 242   0.0000       1.217593        33.1324 
 243   0.0000       1.222548        33.2672 
 244   0.0000       1.226404        33.3722 
 245   0.0000       1.235211        33.6118 
 246   0.0000       1.251720        34.0610 
 247   0.0000       1.257587        34.2207 
 248   0.0000       1.266766        34.4705 
 249   0.0000       1.268672        34.5223 
 250   0.0000       1.272545        34.6277 
 251   0.0000       1.275391        34.7051 
 252   0.0000       1.279889        34.8276 
 253   0.0000       1.293404        35.1953 
 254   0.0000       1.299377        35.3579 
 255   0.0000       1.304848        35.5067 
 256   0.0000       1.315008        35.7832 
 257   0.0000       1.324746        36.0482 
 258   0.0000       1.336864        36.3779 
 259   0.0000       1.339785        36.4574 
 260   0.0000       1.347566        36.6691 
 261   0.0000       1.351770        36.7835 
 262   0.0000       1.355921        36.8965 
 263   0.0000       1.370344        37.2890 
 264   0.0000       1.375472        37.4285 
 265   0.0000       1.383939        37.6589 
 266   0.0000       1.396639        38.0045 
 267   0.0000       1.406941        38.2848 
 268   0.0000       1.409199        38.3463 
 269   0.0000       1.419457        38.6254 
 270   0.0000       1.421883        38.6914 
 271   0.0000       1.437645        39.1203 
 272   0.0000       1.442355        39.2485 
 273   0.0000       1.450446        39.4686 
 274   0.0000       1.456395        39.6305 
 275   0.0000       1.469186        39.9786 
 276   0.0000       1.477327        40.2001 
 277   0.0000       1.480266        40.2801 
 278   0.0000       1.490993        40.5720 
 279   0.0000       1.503326        40.9076 
 280   0.0000       1.504343        40.9352 
 281   0.0000       1.506551        40.9953 
 282   0.0000       1.518191        41.3121 
 283   0.0000       1.527895        41.5761 
 284   0.0000       1.528437        41.5909 
 285   0.0000       1.535555        41.7846 
 286   0.0000       1.543276        41.9947 
 287   0.0000       1.547804        42.1179 
 288   0.0000       1.549814        42.1726 
 289   0.0000       1.556949        42.3667 
 290   0.0000       1.563869        42.5550 
 291   0.0000       1.570402        42.7328 
 292   0.0000       1.585312        43.1385 
 293   0.0000       1.596417        43.4407 
 294   0.0000       1.600160        43.5426 
 295   0.0000       1.603093        43.6224 
 296   0.0000       1.616187        43.9787 
 297   0.0000       1.625460        44.2310 
 298   0.0000       1.633357        44.4459 
 299   0.0000       1.640905        44.6513 
 300   0.0000       1.645868        44.7863 
 301   0.0000       1.651020        44.9265 
 302   0.0000       1.656140        45.0659 
 303   0.0000       1.667893        45.3857 
 304   0.0000       1.680564        45.7305 
 305   0.0000       1.690458        45.9997 
 306   0.0000       1.702171        46.3184 
 307   0.0000       1.708346        46.4865 
 308   0.0000       1.712752        46.6064 
 309   0.0000       1.724573        46.9280 
 310   0.0000       1.735493        47.2252 
 311   0.0000       1.738494        47.3068 
 312   0.0000       1.742951        47.4281 
 313   0.0000       1.749067        47.5945 
 314   0.0000       1.762326        47.9553 
 315   0.0000       1.769190        48.1421 
 316   0.0000       1.782151        48.4948 
 317   0.0000       1.792108        48.7657 
 318   0.0000       1.794029        48.8180 
 319   0.0000       1.806485        49.1570 
 320   0.0000       1.822949        49.6050 
 321   0.0000       1.836771        49.9811 
 322   0.0000       1.843577        50.1663 
 323   0.0000       1.855820        50.4994 
 324   0.0000       1.861862        50.6638 
 325   0.0000       1.880610        51.1740 
 326   0.0000       1.903925        51.8084 
 327   0.0000       1.907368        51.9021 
 328   0.0000       1.909361        51.9563 
 329   0.0000       1.915388        52.1204 
 330   0.0000       1.929979        52.5174 
 331   0.0000       1.936411        52.6924 
 332   0.0000       1.942689        52.8633 
 333   0.0000       1.950223        53.0683 
 334   0.0000       1.982222        53.9390 
 335   0.0000       1.985594        54.0308 
 336   0.0000       1.987707        54.0883 
 337   0.0000       1.998871        54.3921 
 338   0.0000       2.012385        54.7598 
 339   0.0000       2.025300        55.1112 
 340   0.0000       2.031005        55.2665 
 341   0.0000       2.038851        55.4800 
 342   0.0000       2.055916        55.9443 
 343   0.0000       2.079086        56.5748 
 344   0.0000       2.094073        56.9826 
 345   0.0000       2.100653        57.1617 
 346   0.0000       2.119501        57.6745 
 347   0.0000       2.135454        58.1087 
 348   0.0000       2.148796        58.4717 
 349   0.0000       2.155809        58.6626 
 350   0.0000       2.186501        59.4977 
 351   0.0000       2.201029        59.8930 
 352   0.0000       2.210093        60.1397 
 353   0.0000       2.223691        60.5097 
 354   0.0000       2.240971        60.9799 
 355   0.0000       2.272765        61.8451 
 356   0.0000       2.276177        61.9379 
 357   0.0000       2.290540        62.3288 
 358   0.0000       2.302859        62.6640 
 359   0.0000       2.308393        62.8146 
 360   0.0000       2.319210        63.1089 
 361   0.0000       2.329891        63.3996 
 362   0.0000       2.356716        64.1295 
 363   0.0000       2.361428        64.2577 
 364   0.0000       2.373448        64.5848 
 365   0.0000       2.384003        64.8720 
 366   0.0000       2.391781        65.0837 
 367   0.0000       2.412029        65.6346 
 368   0.0000       2.419869        65.8480 
 369   0.0000       2.437772        66.3352 
 370   0.0000       2.456318        66.8398 
 371   0.0000       2.462272        67.0018 
 372   0.0000       2.471930        67.2646 
 373   0.0000       2.492362        67.8206 
 374   0.0000       2.503702        68.1292 
 375   0.0000       2.508064        68.2479 
 376   0.0000       2.527374        68.7733 
 377   0.0000       2.535212        68.9866 
 378   0.0000       2.545032        69.2539 
 379   0.0000       2.582231        70.2661 
 380   0.0000       2.587896        70.4202 
 381   0.0000       2.594909        70.6111 
 382   0.0000       2.598581        70.7110 
 383   0.0000       2.604944        70.8841 
 384   0.0000       2.623957        71.4015 
 385   0.0000       2.637397        71.7672 
 386   0.0000       2.641839        71.8881 
 387   0.0000       2.652382        72.1750 
 388   0.0000       2.664342        72.5004 
 389   0.0000       2.673641        72.7535 
 390   0.0000       2.678286        72.8799 
 391   0.0000       2.690275        73.2061 
 392   0.0000       2.709439        73.7276 
 393   0.0000       2.728159        74.2370 
 394   0.0000       2.734996        74.4230 
 395   0.0000       2.742986        74.6404 
 396   0.0000       2.752201        74.8912 
 397   0.0000       2.763964        75.2113 
 398   0.0000       2.775326        75.5205 
 399   0.0000       2.781200        75.6803 
 400   0.0000       2.789339        75.9018 
 401   0.0000       2.795076        76.0579 
 402   0.0000       2.811068        76.4931 
 403   0.0000       2.815138        76.6038 
 404   0.0000       2.828004        76.9539 
 405   0.0000       2.838185        77.2309 
 406   0.0000       2.851090        77.5821 
 407   0.0000       2.851585        77.5956 
 408   0.0000       2.860515        77.8386 
 409   0.0000       2.875037        78.2337 
 410   0.0000       2.883801        78.4722 
 411   0.0000       2.890791        78.6624 
 412   0.0000       2.903271        79.0020 
 413   0.0000       2.907507        79.1173 
 414   0.0000       2.917077        79.3777 
 415   0.0000       2.921980        79.5111 
 416   0.0000       2.926555        79.6356 
 417   0.0000       2.938196        79.9524 
 418   0.0000       2.946473        80.1776 
 419   0.0000       2.958775        80.5124 
 420   0.0000       2.965082        80.6840 
 421   0.0000       2.983392        81.1822 
 422   0.0000       2.986706        81.2724 
 423   0.0000       3.003154        81.7200 
 424   0.0000       3.010712        81.9256 
 425   0.0000       3.015219        82.0483 
 426   0.0000       3.017259        82.1038 
 427   0.0000       3.030845        82.4735 
 428   0.0000       3.037170        82.6456 
 429   0.0000       3.040496        82.7361 
 430   0.0000       3.045816        82.8809 
 431   0.0000       3.047876        82.9369 
 432   0.0000       3.060429        83.2785 
 433   0.0000       3.068181        83.4894 
 434   0.0000       3.081319        83.8470 
 435   0.0000       3.085994        83.9742 
 436   0.0000       3.091112        84.1134 
 437   0.0000       3.107107        84.5487 
 438   0.0000       3.109845        84.6232 
 439   0.0000       3.116358        84.8004 
 440   0.0000       3.124175        85.0131 
 441   0.0000       3.131357        85.2086 
 442   0.0000       3.139859        85.4399 
 443   0.0000       3.144395        85.5633 
 444   0.0000       3.148776        85.6826 
 445   0.0000       3.158893        85.9578 
 446   0.0000       3.163233        86.0759 
 447   0.0000       3.175911        86.4209 
 448   0.0000       3.180485        86.5454 
 449   0.0000       3.191354        86.8412 
 450   0.0000       3.199724        87.0689 
 451   0.0000       3.207466        87.2796 
 452   0.0000       3.217147        87.5430 
 453   0.0000       3.221164        87.6523 
 454   0.0000       3.230721        87.9124 
 455   0.0000       3.242354        88.2289 
 456   0.0000       3.245294        88.3090 
 457   0.0000       3.254053        88.5473 
 458   0.0000       3.265007        88.8453 
 459   0.0000       3.269617        88.9708 
 460   0.0000       3.276203        89.1500 
 461   0.0000       3.280237        89.2598 
 462   0.0000       3.294636        89.6516 
 463   0.0000       3.301206        89.8304 
 464   0.0000       3.307439        90.0000 
 465   0.0000       3.311586        90.1128 
 466   0.0000       3.318022        90.2880 
 467   0.0000       3.327355        90.5419 
 468   0.0000       3.332913        90.6932 
 469   0.0000       3.333992        90.7225 
 470   0.0000       3.337905        90.8290 
 471   0.0000       3.343226        90.9738 
 472   0.0000       3.354099        91.2697 
 473   0.0000       3.359467        91.4157 
 474   0.0000       3.362065        91.4864 
 475   0.0000       3.368757        91.6686 
 476   0.0000       3.377550        91.9078 
 477   0.0000       3.382291        92.0368 
 478   0.0000       3.384925        92.1085 
 479   0.0000       3.391404        92.2848 
 480   0.0000       3.393552        92.3432 
 481   0.0000       3.398127        92.4677 
 482   0.0000       3.406006        92.6821 
 483   0.0000       3.412535        92.8598 
 484   0.0000       3.415326        92.9357 
 485   0.0000       3.427420        93.2649 
 486   0.0000       3.438848        93.5758 
 487   0.0000       3.441097        93.6370 
 488   0.0000       3.444348        93.7255 
 489   0.0000       3.448831        93.8475 
 490   0.0000       3.453975        93.9874 
 491   0.0000       3.458794        94.1186 
 492   0.0000       3.466495        94.3281 
 493   0.0000       3.472659        94.4959 
 494   0.0000       3.482028        94.7508 
 495   0.0000       3.487495        94.8996 
 496   0.0000       3.490919        94.9927 
 497   0.0000       3.496246        95.1377 
 498   0.0000       3.508350        95.4671 
 499   0.0000       3.509583        95.5006 
 500   0.0000       3.517266        95.7097 
 501   0.0000       3.524634        95.9102 
 502   0.0000       3.533624        96.1548 
 503   0.0000       3.535991        96.2192 
 504   0.0000       3.544522        96.4514 
 505   0.0000       3.553138        96.6858 
 506   0.0000       3.564814        97.0035 
 507   0.0000       3.575988        97.3076 
 508   0.0000       3.582809        97.4932 
 509   0.0000       3.589388        97.6722 
 510   0.0000       3.604258        98.0769 
 511   0.0000       3.606001        98.1243 
 512   0.0000       3.614428        98.3536 
 513   0.0000       3.621876        98.5563 
 514   0.0000       3.625543        98.6560 
 515   0.0000       3.634406        98.8972 
 516   0.0000       3.640313        99.0580 
 517   0.0000       3.645786        99.2069 
 518   0.0000       3.648185        99.2722 
 519   0.0000       3.654114        99.4335 
 520   0.0000       3.660697        99.6126 
 521   0.0000       3.663854        99.6985 
 522   0.0000       3.671607        99.9095 
 523   0.0000       3.675088       100.0042 
 524   0.0000       3.681476       100.1781 
 525   0.0000       3.691510       100.4511 
 526   0.0000       3.697454       100.6128 
 527   0.0000       3.704688       100.8097 
 528   0.0000       3.715398       101.1011 
 529   0.0000       3.717173       101.1494 
 530   0.0000       3.719547       101.2140 
 531   0.0000       3.724323       101.3440 
 532   0.0000       3.732750       101.5733 
 533   0.0000       3.746013       101.9342 
 534   0.0000       3.757971       102.2596 
 535   0.0000       3.761656       102.3599 
 536   0.0000       3.766524       102.4923 
 537   0.0000       3.768468       102.5452 
 538   0.0000       3.773945       102.6943 
 539   0.0000       3.783374       102.9508 
 540   0.0000       3.789597       103.1202 
 541   0.0000       3.795104       103.2700 
 542   0.0000       3.800928       103.4285 
 543   0.0000       3.811412       103.7138 
 544   0.0000       3.819591       103.9364 
 545   0.0000       3.829505       104.2061 
 546   0.0000       3.840601       104.5081 
 547   0.0000       3.841558       104.5341 
 548   0.0000       3.843411       104.5845 
 549   0.0000       3.857857       104.9776 
 550   0.0000       3.860690       105.0547 
 551   0.0000       3.877185       105.5036 
 552   0.0000       3.884301       105.6972 
 553   0.0000       3.889493       105.8385 
 554   0.0000       3.895915       106.0132 
 555   0.0000       3.904739       106.2534 
 556   0.0000       3.913573       106.4937 
 557   0.0000       3.917917       106.6120 
 558   0.0000       3.928126       106.8897 
 559   0.0000       3.931994       106.9950 
 560   0.0000       3.944445       107.3338 
 561   0.0000       3.946016       107.3766 
 562   0.0000       3.955053       107.6225 
 563   0.0000       3.968255       107.9817 
 564   0.0000       3.972748       108.1040 
 565   0.0000       3.984459       108.4226 
 566   0.0000       3.994696       108.7012 
 567   0.0000       4.009260       109.0975 
 568   0.0000       4.015400       109.2646 
 569   0.0000       4.026057       109.5546 
 570   0.0000       4.027488       109.5935 
 571   0.0000       4.031205       109.6947 
 572   0.0000       4.037739       109.8725 
 573   0.0000       4.043427       110.0273 
 574   0.0000       4.060231       110.4845 
 575   0.0000       4.074031       110.8600 
 576   0.0000       4.079308       111.0036 
 577   0.0000       4.089541       111.2821 
 578   0.0000       4.093183       111.3812 
 579   0.0000       4.104503       111.6892 
 580   0.0000       4.107126       111.7606 
 581   0.0000       4.119803       112.1055 
 582   0.0000       4.132896       112.4618 
 583   0.0000       4.142116       112.7127 
 584   0.0000       4.143497       112.7503 
 585   0.0000       4.157880       113.1417 
 586   0.0000       4.160187       113.2045 
 587   0.0000       4.167165       113.3943 
 588   0.0000       4.170109       113.4744 
 589   0.0000       4.179598       113.7326 
 590   0.0000       4.181631       113.7880 
 591   0.0000       4.188616       113.9780 
 592   0.0000       4.194307       114.1329 
 593   0.0000       4.208976       114.5321 
 594   0.0000       4.222392       114.8971 
 595   0.0000       4.235022       115.2408 
 596   0.0000       4.240006       115.3764 
 597   0.0000       4.244597       115.5014 
 598   0.0000       4.256106       115.8145 
 599   0.0000       4.257434       115.8507 
 600   0.0000       4.265256       116.0635 
 601   0.0000       4.275051       116.3300 
 602   0.0000       4.283184       116.5514 
 603   0.0000       4.286212       116.6337 
 604   0.0000       4.291221       116.7701 
 605   0.0000       4.300267       117.0162 
 606   0.0000       4.310254       117.2880 
 607   0.0000       4.318127       117.5022 
 608   0.0000       4.321921       117.6055 
 609   0.0000       4.331364       117.8624 
 610   0.0000       4.344380       118.2166 
 611   0.0000       4.360421       118.6531 
 612   0.0000       4.368749       118.8797 
 613   0.0000       4.375321       119.0585 
 614   0.0000       4.382909       119.2650 
 615   0.0000       4.387071       119.3783 
 616   0.0000       4.402239       119.7910 
 617   0.0000       4.415473       120.1511 
 618   0.0000       4.416103       120.1683 
 619   0.0000       4.422820       120.3511 
 620   0.0000       4.424395       120.3939 
 621   0.0000       4.436540       120.7244 
 622   0.0000       4.446556       120.9969 
 623   0.0000       4.451668       121.1360 
 624   0.0000       4.452101       121.1478 
 625   0.0000       4.467148       121.5573 
 626   0.0000       4.471543       121.6769 
 627   0.0000       4.491022       122.2069 
 628   0.0000       4.502358       122.5154 
 629   0.0000       4.507012       122.6420 
 630   0.0000       4.515166       122.8639 
 631   0.0000       4.519664       122.9863 
 632   0.0000       4.527914       123.2108 
 633   0.0000       4.534049       123.3777 
 634   0.0000       4.546542       123.7177 
 635   0.0000       4.550436       123.8237 
 636   0.0000       4.558352       124.0391 
 637   0.0000       4.560718       124.1035 
 638   0.0000       4.572909       124.4352 
 639   0.0000       4.581205       124.6609 
 640   0.0000       4.594259       125.0162 
 641   0.0000       4.607542       125.3776 
 642   0.0000       4.609211       125.4230 
 643   0.0000       4.620977       125.7432 
 644   0.0000       4.623135       125.8019 
 645   0.0000       4.633985       126.0972 
 646   0.0000       4.638337       126.2156 
 647   0.0000       4.643978       126.3691 
 648   0.0000       4.654702       126.6609 
 649   0.0000       4.660092       126.8076 
 650   0.0000       4.670893       127.1014 
 651   0.0000       4.673684       127.1774 
 652   0.0000       4.678501       127.3085 
 653   0.0000       4.688581       127.5828 
 654   0.0000       4.698299       127.8472 
 655   0.0000       4.713761       128.2679 
 656   0.0000       4.717208       128.3618 
 657   0.0000       4.730487       128.7231 
 658   0.0000       4.744393       129.1015 
 659   0.0000       4.762015       129.5810 
 660   0.0000       4.766158       129.6938 
 661   0.0000       4.775375       129.9445 
 662   0.0000       4.783434       130.1638 
 663   0.0000       4.806114       130.7810 
 664   0.0000       4.824947       131.2935 
 665   0.0000       4.841351       131.7399 
 666   0.0000       4.850361       131.9850 
 667   0.0000       4.869663       132.5103 
 668   0.0000       4.896901       133.2514 
 669   0.0000       4.911307       133.6434 
 670   0.0000       4.918521       133.8398 
 671   0.0000       4.921429       133.9189 
 672   0.0000       4.930813       134.1742 
 673   0.0000       4.950715       134.7158 
 674   0.0000       4.963345       135.0595 
 675   0.0000       4.980380       135.5230 
 676   0.0000       4.999445       136.0418 
 677   0.0000       5.020062       136.6028 
 678   0.0000       5.032458       136.9401 
 679   0.0000       5.039042       137.1193 
 680   0.0000       5.051921       137.4698 
 681   0.0000       5.067921       137.9051 
 682   0.0000       5.084003       138.3428 
 683   0.0000       5.099493       138.7643 
 684   0.0000       5.104390       138.8975 
 685   0.0000       5.117168       139.2452 
 686   0.0000       5.125470       139.4711 
 687   0.0000       5.134163       139.7077 
 688   0.0000       5.145886       140.0267 
 689   0.0000       5.153450       140.2325 
 690   0.0000       5.160042       140.4119 
 691   0.0000       5.178850       140.9237 
 692   0.0000       5.197161       141.4219 
 693   0.0000       5.202760       141.5743 
 694   0.0000       5.211077       141.8006 
 695   0.0000       5.218430       142.0007 
 696   0.0000       5.225583       142.1953 
 697   0.0000       5.229373       142.2985 
 698   0.0000       5.245161       142.7281 
 699   0.0000       5.262807       143.2083 
 700   0.0000       5.269483       143.3899 
 701   0.0000       5.279573       143.6645 
 702   0.0000       5.291440       143.9874 
 703   0.0000       5.303587       144.3179 
 704   0.0000       5.319354       144.7470 
 705   0.0000       5.333409       145.1294 
 706   0.0000       5.337999       145.2543 
 707   0.0000       5.345818       145.4671 
 708   0.0000       5.358246       145.8053 
 709   0.0000       5.386901       146.5850 
 710   0.0000       5.396861       146.8561 
 711   0.0000       5.404033       147.0512 
 712   0.0000       5.448940       148.2732 
 713   0.0000       5.470244       148.8529 
 714   0.0000       5.484942       149.2529 
 715   0.0000       5.485926       149.2796 
 716   0.0000       5.491310       149.4261 
 717   0.0000       5.501604       149.7063 
 718   0.0000       5.511298       149.9701 
 719   0.0000       5.523443       150.3005 
 720   0.0000       5.541160       150.7826 
 721   0.0000       5.556691       151.2052 
 722   0.0000       5.562754       151.3702 
 723   0.0000       5.568809       151.5350 
 724   0.0000       5.582275       151.9014 
 725   0.0000       5.593566       152.2087 
 726   0.0000       5.615204       152.7975 
 727   0.0000       5.635072       153.3381 
 728   0.0000       5.646331       153.6445 
 729   0.0000       5.649765       153.7379 
 730   0.0000       5.657823       153.9572 
 731   0.0000       5.667893       154.2312 
 732   0.0000       5.673825       154.3926 
 733   0.0000       5.681574       154.6035 
 734   0.0000       5.702016       155.1597 
 735   0.0000       5.705121       155.2442 
 736   0.0000       5.720512       155.6630 
 737   0.0000       5.735817       156.0795 
 738   0.0000       5.745716       156.3489 
 739   0.0000       5.748967       156.4373 
 740   0.0000       5.754333       156.5834 
 741   0.0000       5.787612       157.4889 
 742   0.0000       5.805403       157.9731 
 743   0.0000       5.810669       158.1163 
 744   0.0000       5.822828       158.4472 
 745   0.0000       5.850275       159.1941 
 746   0.0000       5.869826       159.7261 
 747   0.0000       5.877807       159.9432 
 748   0.0000       5.881822       160.0525 
 749   0.0000       5.911773       160.8675 
 750   0.0000       5.939183       161.6134 
 751   0.0000       5.962112       162.2373 
 752   0.0000       5.972673       162.5247 
 753   0.0000       5.998655       163.2317 
 754   0.0000       6.001145       163.2995 
 755   0.0000       6.025022       163.9492 
 756   0.0000       6.043952       164.4643 
 757   0.0000       6.052687       164.7020 
 758   0.0000       6.067280       165.0991 
 759   0.0000       6.078541       165.4055 
 760   0.0000       6.097723       165.9275 
 761   0.0000       6.172437       167.9605 
 762   0.0000       6.234660       169.6537 
 763   0.0000       6.241409       169.8374 
 764   0.0000       6.258353       170.2984 
 765   0.0000       6.291886       171.2109 
 766   0.0000       6.313221       171.7915 
 767   0.0000       6.349495       172.7785 
 768   0.0000       6.362696       173.1377 
 769   0.0000       6.376332       173.5088 
 770   0.0000       6.389444       173.8656 
 771   0.0000       6.394539       174.0043 
 772   0.0000       6.409131       174.4013 
 773   0.0000       6.441863       175.2920 
 774   0.0000       6.457983       175.7306 
 775   0.0000       6.479720       176.3221 
 776   0.0000       6.503289       176.9635 
 777   0.0000       6.554666       178.3615 
 778   0.0000       6.571532       178.8205 
 779   0.0000       6.605766       179.7520 
 780   0.0000       6.641441       180.7228 
 781   0.0000       6.686425       181.9469 
 782   0.0000       6.719713       182.8527 
 783   0.0000       6.747198       183.6006 
 784   0.0000       6.832782       185.9295 
 785   0.0000       6.849141       186.3746 
 786   0.0000       6.909268       188.0107 
 787   0.0000       6.921650       188.3477 
 788   0.0000       6.956130       189.2859 
 789   0.0000       7.008927       190.7226 
 790   0.0000       7.051580       191.8832 
 791   0.0000       7.064188       192.2263 
 792   0.0000       7.082870       192.7347 
 793   0.0000       7.132004       194.0717 
 794   0.0000       7.198892       195.8918 
 795   0.0000       7.259649       197.5451 
 796   0.0000       7.260946       197.5804 
 797   0.0000       7.282170       198.1579 
 798   0.0000       7.344523       199.8546 
 799   0.0000       7.388566       201.0531 
 800   0.0000       7.401536       201.4060 
 801   0.0000       7.507711       204.2952 
 802   0.0000       7.582170       206.3213 
 803   0.0000       7.586496       206.4390 
 804   0.0000       7.611462       207.1184 
 805   0.0000       7.766736       211.3436 
 806   0.0000       7.820625       212.8100 
 807   0.0000       7.933816       215.8901 
 808   0.0000       8.031022       218.5352 
 809   0.0000       9.505738       258.6643 
 810   0.0000       9.683397       263.4986 
 811   0.0000      10.795398       293.7577 
 812   0.0000      11.069169       301.2074 
 813   0.0000      11.972307       325.7830 
 814   0.0000      12.572667       342.1196 
 815   0.0000      12.953016       352.4695 
 816   0.0000      12.959934       352.6577 
 817   0.0000      13.087602       356.1317 
 818   0.0000      13.276077       361.2604 
 819   0.0000      13.441061       365.7499 
 820   0.0000      13.476797       366.7223 
 821   0.0000      13.762399       374.4939 
 822   0.0000      13.963491       379.9659 
 823   0.0000      14.113290       384.0421 
 824   0.0000      14.158101       385.2615 
 825   0.0000      14.475092       393.8873 
 826   0.0000      14.670551       399.2060 
 827   0.0000      15.978271       434.7908 

                    ********************************
                    * MULLIKEN POPULATION ANALYSIS *
                    ********************************

-----------------------
MULLIKEN ATOMIC CHARGES
-----------------------
   0 C :   -0.328198
   1 C :    0.028482
   2 O :   -0.332367
   3 C :    0.438055
   4 O :   -0.386550
   5 C :   -0.252416
   6 C :    0.178868
   7 C :   -0.334621
   8 N :   -0.136855
   9 C :    0.198658
  10 S :   -0.438954
  11 N :   -0.222984
  12 C :    0.086477
  13 C :    0.023878
  14 C :   -0.219506
  15 C :   -0.136325
  16 C :   -0.275021
  17 C :    0.322143
  18 O :   -0.357187
  19 C :   -0.272583
  20 H :    0.125806
  21 H :    0.113061
  22 H :    0.109141
  23 H :    0.127208
  24 H :    0.085578
  25 H :    0.136190
  26 H :    0.139432
  27 H :    0.120594
  28 H :    0.196933
  29 H :    0.201790
  30 H :    0.166158
  31 H :    0.177928
  32 H :    0.164867
  33 H :    0.131722
  34 H :    0.240903
  35 H :    0.179693
Sum of atomic charges:    0.0000000

--------------------------------
MULLIKEN REDUCED ORBITAL CHARGES
--------------------------------
  0 C s       :     3.271646  s :     3.271646
      pz      :     0.916616  p :     2.978559
      px      :     1.039237
      py      :     1.022706
      dz2     :     0.020913  d :     0.073557
      dxz     :     0.005458
      dyz     :     0.022258
      dx2y2   :     0.015426
      dxy     :     0.009503
      f0      :     0.001129  f :     0.004436
      f+1     :     0.000655
      f-1     :     0.001007
      f+2     :     0.000393
      f-2     :     0.000201
      f+3     :     0.000897
      f-3     :     0.000154
  1 C s       :     3.168807  s :     3.168807
      pz      :     0.975972  p :     2.635609
      px      :     0.666746
      py      :     0.992891
      dz2     :     0.028708  d :     0.155649
      dxz     :     0.037315
      dyz     :     0.020995
      dx2y2   :     0.034595
      dxy     :     0.034037
      f0      :     0.001762  f :     0.011453
      f+1     :     0.001787
      f-1     :     0.001211
      f+2     :     0.001541
      f-2     :     0.000630
      f+3     :     0.002132
      f-3     :     0.002389
  2 O s       :     3.724200  s :     3.724200
      pz      :     1.641005  p :     4.573759
      px      :     1.172641
      py      :     1.760113
      dz2     :     0.004588  d :     0.032139
      dxz     :     0.011589
      dyz     :     0.003234
      dx2y2   :     0.004653
      dxy     :     0.008075
      f0      :     0.000169  f :     0.002269
      f+1     :     0.000388
      f-1     :     0.000056
      f+2     :     0.000442
      f-2     :     0.000284
[...]
 15 C s       :     2.705607  s :     2.705607
      pz      :     0.898932  p :     2.793937
      px      :     0.923350
      py      :     0.971655
      dz2     :     0.095309  d :     0.416623
      dxz     :     0.066913
      dyz     :     0.061088
      dx2y2   :     0.107240
      dxy     :     0.086073
      f0      :     0.003136  f :     0.041101
      f+1     :     0.005144
      f-1     :     0.006404
      f+2     :     0.006812
      f-2     :     0.006758
      f+3     :     0.006363
      f-3     :     0.006483
 16 C s       :     2.701644  s :     2.701644
      pz      :     0.938922  p :     2.868138
      px      :     0.957051
      py      :     0.972165
      dz2     :     0.047150  d :     0.391237
      dxz     :     0.053611
      dyz     :     0.092478
      dx2y2   :     0.091452
      dxy     :     0.106546
      f0      :     0.004847  f :     0.040401
      f+1     :     0.004549
      f-1     :     0.003526
      f+2     :     0.006014
      f-2     :     0.005832
      f+3     :     0.008286
      f-3     :     0.007346
 17 C s       :     2.701377  s :     2.701377
      pz      :     0.835162  p :     2.682808
      px      :     0.818726
      py      :     1.028921
      dz2     :     0.130239  d :     0.709186
      dxz     :     0.107259
      dyz     :     0.144551
      dx2y2   :     0.162279
      dxy     :     0.164858
      f0      :     0.010362  f :     0.099365
      f+1     :     0.015719
      f-1     :     0.009781
      f+2     :     0.015489
      f-2     :     0.015841
      f+3     :     0.015254
      f-3     :     0.016919
 18 O s       :     3.177133  s :     3.177133
      pz      :     1.434261  p :     4.346916
      px      :     1.428351
      py      :     1.484304
      dz2     :     0.009014  d :     0.075579
      dxz     :     0.017644
      dyz     :     0.017877
      dx2y2   :     0.016014
      dxy     :     0.015030
      f0      :     0.000613  f :     0.005072
      f+1     :     0.000767
      f-1     :     0.000352
      f+2     :     0.000828
      f-2     :     0.000971
      f+3     :     0.000687
      f-3     :     0.000854
 19 C s       :     2.696294  s :     2.696294
      pz      :     0.934256  p :     2.847224
      px      :     0.944701
      py      :     0.968267
      dz2     :     0.077251  d :     0.388481
      dxz     :     0.064565
      dyz     :     0.064109
      dx2y2   :     0.093547
      dxy     :     0.089010
      f0      :     0.003233  f :     0.040675
      f+1     :     0.005260
      f-1     :     0.005846
      f+2     :     0.006836
      f-2     :     0.007270
      f+3     :     0.006371
      f-3     :     0.005859
 20 H s       :     0.840155  s :     0.840155
      pz      :     0.040067  p :     0.151171
      px      :     0.047247
      py      :     0.063856
      dz2     :     0.003350  d :     0.027654
      dxz     :     0.002407
      dyz     :     0.006739
      dx2y2   :     0.008756
      dxy     :     0.006401
 21 H s       :     0.845046  s :     0.845046
      pz      :     0.038957  p :     0.152209
      px      :     0.070782
      py      :     0.042470
      dz2     :     0.002491  d :     0.027534
      dxz     :     0.008471
      dyz     :     0.000496
      dx2y2   :     0.006815
      dxy     :     0.009260
 22 H s       :     0.844652  s :     0.844652
      pz      :     0.058645  p :     0.161728
      px      :     0.044528
      py      :     0.058556
      dz2     :     0.007376  d :     0.028259
      dxz     :     0.003881
      dyz     :     0.006834
      dx2y2   :     0.005012
      dxy     :     0.005156
 23 H s       :     0.848914  s :     0.848914
      pz      :     0.056125  p :     0.143770
      px      :     0.036287
      py      :     0.051358
      dz2     :     0.007223  d :     0.026931
      dxz     :     0.005471
      dyz     :     0.004757
      dx2y2   :     0.005052
      dxy     :     0.004429
 24 H s       :     0.858879  s :     0.858879
      pz      :     0.042849  p :     0.152883
      px      :     0.029523
      py      :     0.080511
      dz2     :     0.003108  d :     0.027687
      dxz     :     0.000587
      dyz     :     0.009394
      dx2y2   :     0.007483
      dxy     :     0.007115
 25 H s       :     0.828771  s :     0.828771
      pz      :     0.052506  p :     0.151525
      px      :     0.039652
      py      :     0.059367
      dz2     :     0.007281  d :     0.027748
      dxz     :     0.004099
      dyz     :     0.006883
      dx2y2   :     0.004591
      dxy     :     0.004893
 26 H s       :     0.830794  s :     0.830794
      pz      :     0.039580  p :     0.150717
      px      :     0.047773
      py      :     0.063364
      dz2     :     0.003506  d :     0.027725
      dxz     :     0.002632
      dyz     :     0.006841
      dx2y2   :     0.008530
      dxy     :     0.006215
 27 H s       :     0.837893  s :     0.837893
      pz      :     0.037361  p :     0.153642
      px      :     0.073066
      py      :     0.043215
      dz2     :     0.002390  d :     0.027771
      dxz     :     0.008200
      dyz     :     0.000626
      dx2y2   :     0.007093
      dxy     :     0.009462
 28 H s       :     0.742002  s :     0.742002
      pz      :     0.054979  p :     0.253026
      px      :     0.091363
      py      :     0.106684
      dz2     :     0.007331  d :     0.061743
      dxz     :     0.003908
      dyz     :     0.015164
      dx2y2   :     0.017326
      dxy     :     0.018014
 29 H s       :     0.747506  s :     0.747506
      pz      :     0.117548  p :     0.254148
      px      :     0.092139
      py      :     0.044462
      dz2     :     0.022309  d :     0.061394
      dxz     :     0.017898
      dyz     :     0.012463
      dx2y2   :     0.005176
      dxy     :     0.003549
 30 H s       :     0.823075  s :     0.823075
      pz      :     0.037901  p :     0.150552
      px      :     0.075232
      py      :     0.037419
      dz2     :     0.002755  d :     0.028544
      dxz     :     0.008215
      dyz     :     0.001586
      dx2y2   :     0.008289
      dxy     :     0.007698
 31 H s       :     0.836783  s :     0.836783
      pz      :     0.058141  p :     0.158312
      px      :     0.064770
      py      :     0.035401
      dz2     :     0.005742  d :     0.027514
      dxz     :     0.006992
      dyz     :     0.003767
      dx2y2   :     0.005389
      dxy     :     0.005624
 32 H s       :     0.841654  s :     0.841654
      pz      :     0.036510  p :     0.150882
      px      :     0.039556
      py      :     0.074816
      dz2     :     0.002608  d :     0.026426
      dxz     :     0.000761
      dyz     :     0.007205
      dx2y2   :     0.007907
      dxy     :     0.007946
 33 H s       :     0.848494  s :     0.848494
      pz      :     0.055813  p :     0.158860
      px      :     0.048550
      py      :     0.054497
      dz2     :     0.005735  d :     0.027738
      dxz     :     0.004351
      dyz     :     0.006160
      dx2y2   :     0.005988
      dxy     :     0.005505
 34 H s       :     0.706364  s :     0.706364
      pz      :     0.107370  p :     0.347650
      px      :     0.086722
      py      :     0.153558
      dz2     :     0.021047  d :     0.099526
      dxz     :     0.010044
      dyz     :     0.024785
      dx2y2   :     0.021906
      dxy     :     0.021744
 35 H s       :     0.837531  s :     0.837531
      pz      :     0.040966  p :     0.159987
      px      :     0.042398
      py      :     0.076623
      dz2     :     0.002582  d :     0.028134
      dxz     :     0.000930
      dyz     :     0.007916
      dx2y2   :     0.008128
      dxy     :     0.008579


                      *****************************
                      * MAYER POPULATION ANALYSIS *
                      *****************************

  NA   - Mulliken gross atomic population
  ZA   - Total nuclear charge
  QA   - Mulliken gross atomic charge
  VA   - Mayer's total valence
  BVA  - Mayer's bonded valence
  FA   - Mayer's free valence

  ATOM       NA         ZA         QA         VA         BVA        FA
  0 C      6.3282     6.0000    -0.3282     3.8557     3.8557    -0.0000
  1 C      5.9715     6.0000     0.0285     3.8621     3.8621     0.0000
  2 O      8.3324     8.0000    -0.3324     2.0518     2.0518     0.0000
  3 C      5.5619     6.0000     0.4381     4.2452     4.2452     0.0000
  4 O      8.3866     8.0000    -0.3866     2.1258     2.1258    -0.0000
  5 C      6.2524     6.0000    -0.2524     3.5717     3.5717    -0.0000
  6 C      5.8211     6.0000     0.1789     3.7847     3.7847    -0.0000
  7 C      6.3346     6.0000    -0.3346     3.8727     3.8727     0.0000
  8 N      7.1369     7.0000    -0.1369     3.2651     3.2651     0.0000
  9 C      5.8013     6.0000     0.1987     4.1494     4.1494     0.0000
 10 S     16.4390    16.0000    -0.4390     1.7523     1.7523     0.0000
 11 N      7.2230     7.0000    -0.2230     3.2528     3.2528     0.0000
 12 C      5.9135     6.0000     0.0865     3.9269     3.9269    -0.0000
 13 C      5.9761     6.0000     0.0239     3.7275     3.7275     0.0000
 14 C      6.2195     6.0000    -0.2195     3.8696     3.8696     0.0000
 15 C      6.1363     6.0000    -0.1363     3.8120     3.8120     0.0000
 16 C      6.2750     6.0000    -0.2750     3.7868     3.7868    -0.0000
 17 C      5.6779     6.0000     0.3221     3.8655     3.8655     0.0000
 18 O      8.3572     8.0000    -0.3572     2.1183     2.1183    -0.0000
 19 C      6.2726     6.0000    -0.2726     3.8041     3.8041     0.0000
 20 H      0.8742     1.0000     0.1258     0.9802     0.9802    -0.0000
 21 H      0.8869     1.0000     0.1131     0.9824     0.9824    -0.0000
 22 H      0.8909     1.0000     0.1091     0.9780     0.9780     0.0000
 23 H      0.8728     1.0000     0.1272     0.9736     0.9736    -0.0000
 24 H      0.9144     1.0000     0.0856     0.9560     0.9560     0.0000
 25 H      0.8638     1.0000     0.1362     0.9850     0.9850     0.0000
 26 H      0.8606     1.0000     0.1394     0.9785     0.9785    -0.0000
 27 H      0.8794     1.0000     0.1206     0.9687     0.9687     0.0000
 28 H      0.8031     1.0000     0.1969     1.0216     1.0216     0.0000
 29 H      0.7982     1.0000     0.2018     1.0132     1.0132     0.0000
 30 H      0.8338     1.0000     0.1662     0.9917     0.9917    -0.0000
 31 H      0.8221     1.0000     0.1779     0.9854     0.9854     0.0000
 32 H      0.8351     1.0000     0.1649     0.9761     0.9761    -0.0000
 33 H      0.8683     1.0000     0.1317     0.9909     0.9909    -0.0000
 34 H      0.7591     1.0000     0.2409     1.0106     1.0106    -0.0000
 35 H      0.8203     1.0000     0.1797     0.9843     0.9843     0.0000

  Mayer bond orders larger than 0.100000
B(  0-C ,  1-C ) :   0.9556 B(  0-C , 20-H ) :   0.9680 B(  0-C , 21-H ) :   0.9778 
B(  0-C , 22-H ) :   0.9724 B(  1-C ,  2-O ) :   0.9018 B(  1-C , 23-H ) :   0.9831 
B(  1-C , 24-H ) :   0.9728 B(  2-O ,  3-C ) :   1.1730 B(  3-C ,  4-O ) :   2.0751 
B(  3-C ,  5-C ) :   0.9391 B(  5-C ,  6-C ) :   1.6750 B(  5-C , 12-C ) :   0.9482 
B(  6-C ,  7-C ) :   0.9428 B(  6-C ,  8-N ) :   1.1185 B(  7-C , 25-H ) :   0.9770 
B(  7-C , 26-H ) :   0.9700 B(  7-C , 27-H ) :   0.9663 B(  8-N ,  9-C ) :   1.1925 
B(  8-N , 28-H ) :   0.9521 B(  9-C , 10-S ) :   1.6106 B(  9-C , 11-N ) :   1.2918 
B( 11-N , 12-C ) :   0.9868 B( 11-N , 29-H ) :   0.9485 B( 12-C , 13-C ) :   0.9539 
B( 12-C , 30-H ) :   0.9953 B( 13-C , 14-C ) :   1.3870 B( 13-C , 19-C ) :   1.3374 
B( 14-C , 15-C ) :   1.4002 B( 14-C , 31-H ) :   0.9571 B( 15-C , 16-C ) :   1.3586 
B( 15-C , 32-H ) :   0.9698 B( 16-C , 17-C ) :   1.3313 B( 16-C , 33-H ) :   0.9847 
B( 17-C , 18-O ) :   1.1103 B( 17-C , 19-C ) :   1.3647 B( 18-O , 34-H ) :   0.9797 
B( 19-C , 35-H ) :   0.9582 

-------
TIMINGS
-------

Total SCF time: 0 days 2 hours 8 min 13 sec 

Total time                  ....    7693.425 sec
Sum of individual times     ....    7685.881 sec  ( 99.9%)

Fock matrix formation       ....    7669.974 sec  ( 99.7%)
Diagonalization             ....       1.466 sec  (  0.0%)
Density matrix formation    ....       0.226 sec  (  0.0%)
Population analysis         ....       0.237 sec  (  0.0%)
Initial guess               ....       6.717 sec  (  0.1%)
Orbital Transformation      ....       0.000 sec  (  0.0%)
Orbital Orthonormalization  ....       0.000 sec  (  0.0%)
DIIS solution               ....       2.806 sec  (  0.0%)
SOSCF solution              ....       2.829 sec  (  0.0%)

Maximum memory used throughout the entire SCF-calculation: 761.3 MB

------------------------------------------------------------------------------
                                ORCA  MP2 
------------------------------------------------------------------------------

Freezing NCore=48 chemical core electrons

-------------
RI-MP2 ENERGY
-------------
Dimension of the basis                    ...  828
Memory devoted to MP2                     ...  256 MB   
Data format for buffers                   ... DOUBLE
Compression type for matrix containers    ... UNCOMPRESSED
Overall scaling of the MP2 energy         ...   1.000e+00
Calculating two index integrals           ... done (    0.044 sec)
Cholesky decomposition of V**-1           ... done (    0.617 sec)

-----------------
RI-TRANSFORMATION (AUX index driven)
-----------------

Dimension of the orbital-basis         ... 828
Dimension of the aux-basis             ... 2141
Transformation of internal/external MOs...   24-  76 to   77- 827
Number Format for Storage              ... Double (8 Byte)
Integral mode                          ... Direct

First Phase: integral generation and transformation of MO indices
  Aux angular momentum 0               ... done (    5.515 sec)
  Aux angular momentum 1               ... done (    9.074 sec)
  Aux angular momentum 2               ... done (   11.254 sec)
  Aux angular momentum 3               ... done (    9.080 sec)
  Aux angular momentum 4               ... done (    3.105 sec)
Closing buffer VIA ( 0.63 GB; CompressionRatio= 1.00)
  Phase 1 completed in    38.526 sec
Second Phase: sorting and transformation of aux index

IA-Transformation
Memory available                       ... 156 MB 
Max. # MO pairs treated in a batch     ... 11    
# of internal orbitals                 ... 53
# batches for internal orbitals        ... 5
Closing buffer IAV ( 0.63 GB; CompressionRatio= 1.00)
(ia|v) transformation done in    32.949 sec

  Phase 2 completed in    32.960 sec
RI-Integral transformation completed in    71.510 sec
Opening buffers                              ... done

Starting loop over batches of integrals:

Operator 0  - window                       ... ( 24- 76)x( 77-827)
Operator 0  - Memory available             ...   256 MB
Operator 0  - Memory needed per MO         ...  12.3 MB
Operator 0  - Number of orbitals per batch ... 13
Operator 0  - Number of batches            ... 5

OPERATOR  0   PASS   0:  MOs    24 ...   36
  Reading integrals       ... ok
  Internal MO  26
  Internal MO  29
  Internal MO  32
  Internal MO  35
OPERATOR  0   PASS   1:  MOs    37 ...   49
  Reading integrals       ... ok
  Internal MO  38
  Internal MO  41
  Internal MO  44
  Internal MO  47
OPERATOR  0   PASS   2:  MOs    50 ...   62
  Reading integrals       ... ok
  Internal MO  50
  Internal MO  53
  Internal MO  56
  Internal MO  59
  Internal MO  62
OPERATOR  0   PASS   3:  MOs    63 ...   75
  Reading integrals       ... ok
  Internal MO  65
  Internal MO  68
  Internal MO  71
  Internal MO  74
OPERATOR  0   PASS   4:  MOs    76 ...   76
  Reading integrals       ... ok
Time spent in pair loops =   107.257 sec
Deleting buffer (Ka|jb)[aa] ...done

-----------------------------------------------
 RI-MP2 CORRELATION ENERGY:     -3.541023285 Eh
-----------------------------------------------


-------
TIMINGS
-------

Total time                :  179.570 sec
Integral trafo            :   71.537 sec ( 39.8%)
I/O of integrals          :    4.278 sec (  2.4%)
K(i,j) Operators          :   65.769 sec ( 36.6%)
T(i,j) pair energies      :    9.514 sec (  5.3%)
V-calculation             :    0.044 sec (  0.0%)
V**(-1/2)                 :    0.617 sec (  0.3%)
Gamma(ia|P)               :    0.000 sec (  0.0%)
Gamma-Trafo               :    0.000 sec (  0.0%)
D(virtual)                :    0.000 sec (  0.0%)
D(internal)               :    0.000 sec (  0.0%)
W(virtual)                :    0.000 sec (  0.0%)
W(internal)               :    0.000 sec (  0.0%)
L(virtual)                :    0.000 sec (  0.0%)
L(internal)               :    0.000 sec (  0.0%)
G(D)                      :    0.000 sec (  0.0%)
G(Z)                      :    0.000 sec (  0.0%)
Z-Vector Solution         :    0.000 sec (  0.0%)
3-Index Derivative        :    0.000 sec (  0.0%)
2-Index Derivative        :    0.000 sec (  0.0%)
Separable Gradient        :    0.000 sec (  0.0%)


---------------------------------------
MP2 TOTAL ENERGY:    -1274.333009199 Eh
---------------------------------------

Maximum memory used throughout the entire MP2-calculation: 306.0 MB

-------------------------   --------------------
FINAL SINGLE POINT ENERGY     -1274.333009199338
-------------------------   --------------------


                            ***************************************
                            *     ORCA property calculations      *
                            ***************************************


  WARNING: The energy has been calculated at the MP2 level but the densities
           used in the property calculations are still SCF densities
           MP2 response densities have not been calculated 
           use %mp2 Density relaxed end
           or  %mp2 Density unrelaxed end

                                    ---------------------
                                    Active property flags
                                    ---------------------
   (+) Dipole Moment


------------------------------------------------------------------------------
                       ORCA ELECTRIC PROPERTIES CALCULATION
------------------------------------------------------------------------------

Dipole Moment Calculation                       ... on
Quadrupole Moment Calculation                   ... off
Polarizability Calculation                      ... off
GBWName                                         ... CONFS/Conf355.orca.gbw
Electron density file                           ... CONFS/Conf355.orca.scfp
The origin for moment calculation is the CENTER OF MASS  = (32.737443, 31.343116 35.228829)

-------------
DIPOLE MOMENT
-------------
                                X             Y             Z
Electronic contribution:      8.94993       6.88588       6.27659
Nuclear contribution   :    -10.48288      -7.85137      -6.87846
                        -----------------------------------------
Total Dipole Moment    :     -1.53296      -0.96549      -0.60187
                        -----------------------------------------
Magnitude (a.u.)       :      1.90903
Magnitude (Debye)      :      4.85236



--------------------
Rotational spectrum 
--------------------
 
Rotational constants in cm-1:     0.011624     0.009659     0.006684 
Rotational constants in MHz :   348.471961   289.563332   200.389422 

 Dipole components along the rotational axes: 
x,y,z [a.u.] :    -1.005258    -0.965068     1.304794 
x,y,z [Debye]:    -2.555164    -2.453007     3.316522 

 

Timings for individual modules:

Sum of individual times         ...     7877.783 sec (= 131.296 min)
GTO integral calculation        ...        3.759 sec (=   0.063 min)   0.0 %
SCF iterations                  ...     7693.698 sec (= 128.228 min)  97.7 %
MP2 module                      ...      180.327 sec (=   3.005 min)   2.3 %
                             ****ORCA TERMINATED NORMALLY****
TOTAL RUN TIME: 0 days 2 hours 11 minutes 19 seconds 705 msec
