
                                        *****************
                                        * O   R   C   A *
                                        *****************

                                            #,                                       
                                            ###                                      
                                            ####                                     
                                            #####                                    
                                            ######                                   
                                           ########,                                 
                                     ,,################,,,,,                         
                               ,,#################################,,                 
                          ,,##########################################,,             
                       ,#########################################, ''#####,          
                    ,#############################################,,   '####,        
                  ,##################################################,,,,####,       
                ,###########''''           ''''###############################       
              ,#####''   ,,,,##########,,,,          '''####'''          '####       
            ,##' ,,,,###########################,,,                        '##       
           ' ,,###''''                  '''############,,,                           
         ,,##''                                '''############,,,,        ,,,,,,###''
      ,#''                                            '''#######################'''  
     '                                                          ''''####''''         
             ,#######,   #######,   ,#######,      ##                                
            ,#'     '#,  ##    ##  ,#'     '#,    #''#        ######   ,####,        
            ##       ##  ##   ,#'  ##            #'  '#       #        #'  '#        
            ##       ##  #######   ##           ,######,      #####,   #    #        
            '#,     ,#'  ##    ##  '#,     ,#' ,#      #,         ##   #,  ,#        
             '#######'   ##     ##  '#######'  #'      '#     #####' # '####'        



                  #######################################################
                  #                        -***-                        #
                  #          Department of theory and spectroscopy      #
                  #    Directorship and core code : Frank Neese         #
                  #        Max Planck Institute fuer Kohlenforschung    #
                  #                Kaiser Wilhelm Platz 1               #
                  #                 D-45470 Muelheim/Ruhr               #
                  #                      Germany                        #
                  #                                                     #
                  #                  All rights reserved                #
                  #                        -***-                        #
                  #######################################################


                         Program Version 5.0.0 -  RELEASE  -
                                (SVN: $Rev: 19529$)
                ($Date: 2021-06-28 11:36:33 +0200 (Mo, 28 Jun 2021) $)


 With contributions from (in alphabetic order):
   Daniel Aravena         : Magnetic Suceptibility
   Michael Atanasov       : Ab Initio Ligand Field Theory (pilot matlab implementation)
   Alexander A. Auer      : GIAO ZORA, VPT2 properties, NMR spectrum
   Ute Becker             : Parallelization
   Giovanni Bistoni       : ED, misc. LED, open-shell LED, HFLD
   Martin Brehm           : Molecular dynamics
   Dmytro Bykov           : SCF Hessian
   Vijay G. Chilkuri      : MRCI spin determinant printing, contributions to CSF-ICE
   Dipayan Datta          : RHF DLPNO-CCSD density
   Achintya Kumar Dutta   : EOM-CC, STEOM-CC
   Dmitry Ganyushin       : Spin-Orbit,Spin-Spin,Magnetic field MRCI
   Miquel Garcia          : C-PCM Hessian, Gaussian charge scheme
   Yang Guo               : DLPNO-NEVPT2, F12-NEVPT2, CIM, IAO-localization
   Andreas Hansen         : Spin unrestricted coupled pair/coupled cluster methods
   Benjamin Helmich-Paris : MC-RPA, TRAH-SCF, COSX integrals
   Lee Huntington         : MR-EOM, pCC
   Robert Izsak           : Overlap fitted RIJCOSX, COSX-SCS-MP3, EOM
   Marcus Kettner         : VPT2
   Christian Kollmar      : KDIIS, OOCD, Brueckner-CCSD(T), CCSD density, CASPT2, CASPT2-K
   Simone Kossmann        : Meta GGA functionals, TD-DFT gradient, OOMP2, MP2 Hessian
   Martin Krupicka        : Initial AUTO-CI
   Lucas Lang             : DCDCAS
   Marvin Lechner         : AUTO-CI (C++ implementation), FIC-MRCC
   Dagmar Lenk            : GEPOL surface, SMD
   Dimitrios Liakos       : Extrapolation schemes; Compound Job, initial MDCI parallelization
   Dimitrios Manganas     : Further ROCIS development; embedding schemes
   Dimitrios Pantazis     : SARC Basis sets
   Anastasios Papadopoulos: AUTO-CI, single reference methods and gradients
   Taras Petrenko         : DFT Hessian,TD-DFT gradient, ASA, ECA, R-Raman, ABS, FL, XAS/XES, NRVS
   Peter Pinski           : DLPNO-MP2, DLPNO-MP2 Gradient
   Christoph Reimann      : Effective Core Potentials
   Marius Retegan         : Local ZFS, SOC
   Christoph Riplinger    : Optimizer, TS searches, QM/MM, DLPNO-CCSD(T), (RO)-DLPNO pert. Triples
   Tobias Risthaus        : Range-separated hybrids, TD-DFT gradient, RPA, STAB
   Michael Roemelt        : Original ROCIS implementation
   Masaaki Saitow         : Open-shell DLPNO-CCSD energy and density
   Barbara Sandhoefer     : DKH picture change effects
   Avijit Sen             : IP-ROCIS
   Kantharuban Sivalingam : CASSCF convergence, NEVPT2, FIC-MRCI
   Bernardo de Souza      : ESD, SOC TD-DFT
   Georgi Stoychev        : AutoAux, RI-MP2 NMR
   Willem Van den Heuvel  : Paramagnetic NMR
   Boris Wezisla          : Elementary symmetry handling
   Frank Wennmohs         : Technical directorship


 We gratefully acknowledge several colleagues who have allowed us to
 interface, adapt or use parts of their codes:
   Stefan Grimme, W. Hujo, H. Kruse, P. Pracht,  : VdW corrections, initial TS optimization,
                  C. Bannwarth, S. Ehlert          DFT functionals, gCP, sTDA/sTD-DF
   Ed Valeev, F. Pavosevic, A. Kumar             : LibInt (2-el integral package), F12 methods
   Garnet Chan, S. Sharma, J. Yang, R. Olivares  : DMRG
   Ulf Ekstrom                                   : XCFun DFT Library
   Mihaly Kallay                                 : mrcc  (arbitrary order and MRCC methods)
   Jiri Pittner, Ondrej Demel                    : Mk-CCSD
   Frank Weinhold                                : gennbo (NPA and NBO analysis)
   Christopher J. Cramer and Donald G. Truhlar   : smd solvation model
   Lars Goerigk                                  : TD-DFT with DH, B97 family of functionals
   V. Asgeirsson, H. Jonsson                     : NEB implementation
   FAccTs GmbH                                   : IRC, NEB, NEB-TS, DLPNO-Multilevel, CI-OPT
                                                   MM, QMMM, 2- and 3-layer-ONIOM, Crystal-QMMM,
                                                   LR-CPCM, SF, NACMEs, symmetry and pop. for TD-DFT,
                                                   nearIR, NL-DFT gradient (VV10), updates on ESD,
                                                   ML-optimized integration grids
   S Lehtola, MJT Oliveira, MAL Marques          : LibXC Library
   Liviu Ungur et al                             : ANISO software


 Your calculation uses the libint2 library for the computation of 2-el integrals
 For citations please refer to: http://libint.valeyev.net

 Your ORCA version has been built with support for libXC version: 5.1.0
 For citations please refer to: https://tddft.org/programs/libxc/

 This ORCA versions uses:
   CBLAS   interface :  Fast vector & matrix operations
   LAPACKE interface :  Fast linear algebra routines
   SCALAPACK package :  Parallel linear algebra routines
   Shared memory     :  Shared parallel matrices
   BLAS/LAPACK       :  OpenBLAS 0.3.15  USE64BITINT DYNAMIC_ARCH NO_AFFINITY SkylakeX SINGLE_THREADED
        Core in use  :  SkylakeX
   Copyright (c) 2011-2014, The OpenBLAS Project


================================================================================

----- Orbital basis set information -----
Your calculation utilizes the basis: cc-pVTZ 
       H, B-Ne : Obtained from the ccRepo (grant-hill.group.shef.ac.uk/ccrepo) Feb. 2017
                 T. H. Dunning, Jr., J. Chem. Phys. 90, 1007 (1989)
            He : Obtained from the ccRepo (grant-hill.group.shef.ac.uk/ccrepo) Feb. 2017
                 D. E. Woon, T. H. Dunning, Jr., J. Chem. Phys. 100, 2975 (1994)
  Li-Be, Na-Mg : Obtained from the ccRepo (grant-hill.group.shef.ac.uk/ccrepo) Feb. 2017
                 B. P. Prascher, D. E. Woon, K. A. Peterson, T. H. Dunning, Jr., A. K. Wilson, Theor. Chem. Acc. 128, 69 (2011)
         Al-Ar : Obtained from the ccRepo (grant-hill.group.shef.ac.uk/ccrepo) Feb. 2017
                 D. E. Woon, T. H. Dunning, Jr., J. Chem. Phys. 98, 1358 (1993)
            Ca : Obtained from the Peterson Research Group Website (tyr0.chem.wsu.edu/~kipeters) Feb. 2017
                 J. Koput, K. A. Peterson, J. Phys. Chem. 106, 9595 (2002)
         Sc-Zn : Obtained from the ccRepo (grant-hill.group.shef.ac.uk/ccrepo) Feb. 2017
                 N. B. Balabanov, K. A. Peterson, J. Chem. Phys. 123, 064107 (2005)
                 N. B. Balabanov, K. A. Peterson, J. Chem. Phys. 125, 074110 (2006)
         Ga-Kr : Obtained from the ccRepo (grant-hill.group.shef.ac.uk/ccrepo) Feb. 2017
                 A. K. Wilson, D. E. Woon, K. A. Peterson, T. H. Dunning, Jr., J. Chem. Phys. 110, 7667 (1999)
             Y : Obtained from the ccRepo (grant-hill.group.shef.ac.uk/ccrepo) Feb. 2017
                 K. A. Peterson, D. Figgen, M. Dolg, H. Stoll, J. Chem. Phys. 126, 124101 (2007)
        Ag, Au : Obtained from the Peterson Research Group Website (tyr0.chem.wsu.edu/~kipeters) Feb. 2017
                 K. A. Peterson, C. Puzzarini, Theor. Chem. Acc. 114, 283 (2005)

----- AuxC basis set information -----
Your calculation utilizes the auxiliary basis: cc-pVTZ/C 
  Obtained from the EMSL Basis Set Exchange (bse.pnl.gov) Feb. 2017
  H-He, B-F, Al-Ar, Ga-Kr : F. Weigend, A. Kohn, C. Hattig, J. Chem. Phys. 116, 3175 (2002)
             Li-Be, Na-Mg : C. Haettig, Phys. Chem. Chem. Phys. 7, 59 (2005)
                       Ne : C. Haettig, Phys. Chem. Chem. Phys. 7, 59 (2005)
                            F. Weigend, A. Kohn, C. Hattig, J. Chem. Phys. 116, 3175 (2002)
                    Sc-Zn : J. G. Hill, J. A. Platts, J. Chem. Phys. 128, 044104 (2008)

================================================================================
                                        WARNINGS
                       Please study these warnings very carefully!
================================================================================


WARNING: No MP2 level density has been requested!
         To caclulate MP2 level properties use
         %mp2 Density relaxed end
         or
         %mp2 Density unrelaxed end

WARNING: Post HF methods need fully converged wavefunctions
  ===> : Setting SCFConvForced true
         You can overwrite this default with %scf ConvForced false 


INFO   : the flag for use of the SHARK integral package has been found!

================================================================================
                                       INPUT FILE
================================================================================
NAME = CONFS/Conf449.orca
|  1> ! ri-mp2 cc-pvtz cc-pvtz/c TightSCF NoKeepInts
|  2> 
|  3> %scf
|  4>   MaxCore 4096
|  5> end
|  6> *xyz  0  1
|  7>     C       15.1079434   15.6092817   17.4380715
|  8>     C       15.5294869   15.3113587   15.9831845
|  9>     O       16.9544782   15.1316532   15.7690182
| 10>     C       18.0489777   15.5775333   16.4765927
| 11>     O       19.0505095   14.8859453   16.5042633
| 12>     C       17.9228418   16.7604761   17.3862823
| 13>     C       17.3897076   17.9420024   16.9887854
| 14>     C       16.8362325   18.2931894   15.6241695
| 15>     N       17.4122822   19.0421111   17.8495168
| 16>     C       18.0992740   19.0918047   19.0336441
| 17>     S       18.1606195   20.4696477   19.9456932
| 18>     N       18.7371630   17.9403081   19.4218857
| 19>     C       18.6145768   16.6320072   18.7483849
| 20>     C       17.9094862   15.6127772   19.6401077
| 21>     C       18.3440603   14.2744915   19.6566789
| 22>     C       17.6980500   13.3196686   20.4592261
| 23>     C       16.6057483   13.7042475   21.2547521
| 24>     C       16.1673739   15.0349656   21.2412693
| 25>     O       15.1057125   15.4073488   21.9993957
| 26>     C       16.8119821   15.9837189   20.4411156
| 27>     H       15.6223314   14.9348612   18.1327157
| 28>     H       14.0320296   15.4293377   17.5521401
| 29>     H       15.2832874   16.6461512   17.7362585
| 30>     H       15.0265003   14.3905170   15.6600042
| 31>     H       15.1553051   16.1120089   15.3344112
| 32>     H       17.1387551   17.5720292   14.8554197
| 33>     H       17.2070669   19.2706079   15.2897761
| 34>     H       15.7410900   18.3408616   15.6417932
| 35>     H       16.9674864   19.9031418   17.5727012
| 36>     H       19.2256190   18.0000909   20.3064356
| 37>     H       19.6349024   16.2625555   18.5671320
| 38>     H       19.1820722   13.9700298   19.0328256
| 39>     H       18.0432933   12.2871160   20.4580575
| 40>     H       16.1027056   12.9690675   21.8741653
| 41>     H       14.8301338   14.6334132   22.5134925
| 42>     H       16.4479150   17.0056735   20.4446342
| 43> *
| 44> 
| 45>                          ****END OF INPUT****
================================================================================

                       ****************************
                       * Single Point Calculation *
                       ****************************

---------------------------------
CARTESIAN COORDINATES (ANGSTROEM)
---------------------------------
  C     15.107943   15.609282   17.438071
  C     15.529487   15.311359   15.983184
  O     16.954478   15.131653   15.769018
  C     18.048978   15.577533   16.476593
  O     19.050510   14.885945   16.504263
  C     17.922842   16.760476   17.386282
  C     17.389708   17.942002   16.988785
  C     16.836233   18.293189   15.624170
  N     17.412282   19.042111   17.849517
  C     18.099274   19.091805   19.033644
  S     18.160619   20.469648   19.945693
  N     18.737163   17.940308   19.421886
  C     18.614577   16.632007   18.748385
  C     17.909486   15.612777   19.640108
  C     18.344060   14.274491   19.656679
  C     17.698050   13.319669   20.459226
  C     16.605748   13.704247   21.254752
  C     16.167374   15.034966   21.241269
  O     15.105712   15.407349   21.999396
  C     16.811982   15.983719   20.441116
  H     15.622331   14.934861   18.132716
  H     14.032030   15.429338   17.552140
  H     15.283287   16.646151   17.736259
  H     15.026500   14.390517   15.660004
  H     15.155305   16.112009   15.334411
  H     17.138755   17.572029   14.855420
  H     17.207067   19.270608   15.289776
  H     15.741090   18.340862   15.641793
  H     16.967486   19.903142   17.572701
  H     19.225619   18.000091   20.306436
  H     19.634902   16.262556   18.567132
  H     19.182072   13.970030   19.032826
  H     18.043293   12.287116   20.458057
  H     16.102706   12.969067   21.874165
  H     14.830134   14.633413   22.513492
  H     16.447915   17.005674   20.444634

----------------------------
CARTESIAN COORDINATES (A.U.)
----------------------------
  NO LB      ZA    FRAG     MASS         X           Y           Z
   0 C     6.0000    0    12.011   28.549875   29.497268   32.953179
   1 C     6.0000    0    12.011   29.346477   28.934275   30.203841
   2 O     8.0000    0    15.999   32.039321   28.594681   29.799126
   3 C     6.0000    0    12.011   34.107625   29.437272   31.136248
   4 O     8.0000    0    15.999   36.000246   28.130360   31.188538
   5 C     6.0000    0    12.011   33.869263   31.672710   32.855312
   6 C     6.0000    0    12.011   32.861785   33.905471   32.104152
   7 C     6.0000    0    12.011   31.815869   34.569118   29.525401
   8 N     7.0000    0    14.007   32.904445   35.984375   33.730698
   9 C     6.0000    0    12.011   34.202671   36.078282   35.968375
  10 S    16.0000    0    32.060   34.318597   38.682028   37.691898
  11 N     7.0000    0    14.007   35.408107   33.902269   36.702045
  12 C     6.0000    0    12.011   35.176452   31.429939   35.429313
  13 C     6.0000    0    12.011   33.844024   29.503873   37.114425
  14 C     6.0000    0    12.011   34.665250   26.974880   37.145740
  15 C     6.0000    0    12.011   33.444468   25.170526   38.662334
  16 C     6.0000    0    12.011   31.380317   25.897275   40.165661
  17 C     6.0000    0    12.011   30.551909   28.411967   40.140182
  18 O     8.0000    0    15.999   28.545660   29.115670   41.572833
  19 C     6.0000    0    12.011   31.770042   30.204851   38.628110
  20 H     1.0000    0     1.008   29.521928   28.222798   34.265867
  21 H     1.0000    0     1.008   26.516693   29.157223   33.168738
  22 H     1.0000    0     1.008   28.881228   31.456667   33.516671
  23 H     1.0000    0     1.008   28.395970   27.194136   29.593119
  24 H     1.0000    0     1.008   28.639376   30.447284   28.977838
  25 H     1.0000    0     1.008   32.387553   33.206323   28.072675
  26 H     1.0000    0     1.008   32.516644   36.416171   28.893489
  27 H     1.0000    0     1.008   29.746349   34.659205   29.558705
  28 H     1.0000    0     1.008   32.063902   37.611487   33.207593
  29 H     1.0000    0     1.008   36.331155   34.015242   38.373602
  30 H     1.0000    0     1.008   37.104588   30.731776   35.086795
  31 H     1.0000    0     1.008   36.248863   26.399530   35.966828
  32 H     1.0000    0     1.008   34.096883   23.219284   38.660126
  33 H     1.0000    0     1.008   30.429704   24.507986   41.336182
  34 H     1.0000    0     1.008   28.024891   27.653143   42.544335
  35 H     1.0000    0     1.008   31.082055   32.136066   38.634760

--------------------------------
INTERNAL COORDINATES (ANGSTROEM)
--------------------------------
 C      0   0   0     0.000000000000     0.00000000     0.00000000
 C      1   0   0     1.543746487960     0.00000000     0.00000000
 O      2   1   0     1.452157524465   115.52033620     0.00000000
 C      3   2   1     1.377461394060   131.59773881   335.81728772
 O      4   3   2     1.217425796613   118.78087855   147.79157411
 C      4   3   2     1.497597777004   120.05218028   338.54903937
 C      6   4   3     1.355817192069   122.91437921   308.57463331
 C      7   6   4     1.513883598505   127.60319480     0.27928407
 N      7   6   4     1.396999394176   119.95097465   185.81433015
 C      9   7   6     1.369884903834   124.69803701     9.19464352
 S     10   9   7     1.653495740493   121.71043119   175.67455284
 N     10   9   7     1.372435184664   116.56278295   355.86034548
 C     12  10   9     1.476577782906   125.15442125   352.79432872
 C     13  12  10     1.526811088232   111.31048080   246.68957091
 C     14  13  12     1.407173716314   119.94272588   218.67378613
 C     15  14  13     1.404670098741   120.74177575   180.72466944
 C     16  15  14     1.404950373082   119.66982189     0.00000000
 C     17  16  15     1.401129744934   119.85284902     0.08350403
 O     18  17  16     1.356668645716   120.00996096   179.43169182
 C     18  17  16     1.398534411229   120.37099761   359.93283699
 H      1   2   3     1.096343281075   110.50538166   314.64858137
 H      1   2   3     1.096805358153   109.52490415   196.93747183
 H      1   2   3     1.093050486179   113.35102455    78.12016716
 H      2   1   3     1.097902756416   108.31137171   120.72457425
 H      2   1   3     1.096339161484   108.87872503   236.00552957
 H      8   7   6     1.096616711789   112.24007644   344.60016668
 H      8   7   6     1.097580986684   110.95789592   225.96576079
 H      8   7   6     1.096321270778   111.14954267   106.17381349
 H      9   7   6     1.007890890148   119.76116343   183.58260620
 H     12  10   9     1.012221207396   114.95702223   180.85860190
 H     13  12  10     1.100187030648   107.19885294   129.41780441
 H     15  14  13     1.088188316069   119.81275080     0.00000000
 H     16  15  14     1.088742014247   119.88216770   179.73823790
 H     17  16  15     1.084995070384   119.88361676   179.85399249
 H     19  18  17     0.969131287603   107.44316817     3.56708831
 H     20  18  17     1.084872544730   118.84977873   179.60188028

---------------------------
INTERNAL COORDINATES (A.U.)
---------------------------
 C      0   0   0     0.000000000000     0.00000000     0.00000000
 C      1   0   0     2.917258082448     0.00000000     0.00000000
 O      2   1   0     2.744180024553   115.52033620     0.00000000
 C      3   2   1     2.603024794823   131.59773881   335.81728772
 O      4   3   2     2.300601343970   118.78087855   147.79157411
 C      4   3   2     2.830049657308   120.05218028   338.54903937
 C      6   4   3     2.562123180673   122.91437921   308.57463331
 C      7   6   4     2.860825399809   127.60319480     0.27928407
 N      7   6   4     2.639946264246   119.95097465   185.81433015
 C      9   7   6     2.588707303240   124.69803701     9.19464352
 S     10   9   7     3.124654113138   121.71043119   175.67455284
 N     10   9   7     2.593526635572   116.56278295   355.86034548
 C     12  10   9     2.790327625125   125.15442125   352.79432872
 C     13  12  10     2.885254814993   111.31048080   246.68957091
 C     14  13  12     2.659172946686   119.94272588   218.67378613
 C     15  14  13     2.654441795129   120.74177575   180.72466944
 C     16  15  14     2.654971436876   119.66982189     0.00000000
 C     17  16  15     2.647751496016   119.85284902     0.08350403
 O     18  17  16     2.563732194881   120.00996096   179.43169182
 C     18  17  16     2.642847026088   120.37099761   359.93283699
 H      1   2   3     2.071788549996   110.50538166   314.64858137
 H      1   2   3     2.072661749126   109.52490415   196.93747183
 H      1   2   3     2.065566069427   113.35102455    78.12016716
 H      2   1   3     2.074735531304   108.31137171   120.72457425
 H      2   1   3     2.071780765098   108.87872503   236.00552957
 H      8   7   6     2.072305259162   112.24007644   344.60016668
 H      8   7   6     2.074127474631   110.95789592   225.96576079
 H      8   7   6     2.071746956563   111.14954267   106.17381349
 H      9   7   6     1.904637755254   119.76116343   183.58260620
 H     12  10   9     1.912820868925   114.95702223   180.85860190
 H     13  12  10     2.079052184017   107.19885294   129.41780441
 H     15  14  13     2.056377899504   119.81275080     0.00000000
 H     16  15  14     2.057424237421   119.88216770   179.73823790
 H     17  16  15     2.050343539680   119.88361676   179.85399249
 H     19  18  17     1.831392721384   107.44316817     3.56708831
 H     20  18  17     2.050111999750   118.84977873   179.60188028

---------------------
BASIS SET INFORMATION
---------------------
There are 5 groups of distinct atoms

 Group   1 Type C   : 18s5p2d1f contracted to 4s3p2d1f pattern {8811/311/11/1}
 Group   2 Type O   : 18s5p2d1f contracted to 4s3p2d1f pattern {8811/311/11/1}
 Group   3 Type N   : 18s5p2d1f contracted to 4s3p2d1f pattern {8811/311/11/1}
 Group   4 Type S   : 41s16p2d1f contracted to 5s4p2d1f pattern {13131311/7711/11/1}
 Group   5 Type H   : 5s2p1d contracted to 3s2p1d pattern {311/11/1}

Atom   0C    basis set group =>   1
Atom   1C    basis set group =>   1
Atom   2O    basis set group =>   2
Atom   3C    basis set group =>   1
Atom   4O    basis set group =>   2
Atom   5C    basis set group =>   1
Atom   6C    basis set group =>   1
Atom   7C    basis set group =>   1
Atom   8N    basis set group =>   3
Atom   9C    basis set group =>   1
Atom  10S    basis set group =>   4
Atom  11N    basis set group =>   3
Atom  12C    basis set group =>   1
Atom  13C    basis set group =>   1
Atom  14C    basis set group =>   1
Atom  15C    basis set group =>   1
Atom  16C    basis set group =>   1
Atom  17C    basis set group =>   1
Atom  18O    basis set group =>   2
Atom  19C    basis set group =>   1
Atom  20H    basis set group =>   5
Atom  21H    basis set group =>   5
Atom  22H    basis set group =>   5
Atom  23H    basis set group =>   5
Atom  24H    basis set group =>   5
Atom  25H    basis set group =>   5
Atom  26H    basis set group =>   5
Atom  27H    basis set group =>   5
Atom  28H    basis set group =>   5
Atom  29H    basis set group =>   5
Atom  30H    basis set group =>   5
Atom  31H    basis set group =>   5
Atom  32H    basis set group =>   5
Atom  33H    basis set group =>   5
Atom  34H    basis set group =>   5
Atom  35H    basis set group =>   5
---------------------------------
AUXILIARY/C BASIS SET INFORMATION
---------------------------------
There are 5 groups of distinct atoms

 Group   1 Type C   : 8s6p5d3f1g contracted to 8s6p5d3f1g pattern {11111111/111111/11111/111/1}
 Group   2 Type O   : 8s6p5d3f1g contracted to 8s6p5d3f1g pattern {11111111/111111/11111/111/1}
 Group   3 Type N   : 8s6p5d3f1g contracted to 8s6p5d3f1g pattern {11111111/111111/11111/111/1}
 Group   4 Type S   : 10s8p7d5f2g contracted to 10s8p7d5f2g pattern {1111111111/11111111/1111111/11111/11}
 Group   5 Type H   : 4s3p2d1f contracted to 4s3p2d1f pattern {1111/111/11/1}

Atom   0C    basis set group =>   1
Atom   1C    basis set group =>   1
Atom   2O    basis set group =>   2
Atom   3C    basis set group =>   1
Atom   4O    basis set group =>   2
Atom   5C    basis set group =>   1
Atom   6C    basis set group =>   1
Atom   7C    basis set group =>   1
Atom   8N    basis set group =>   3
Atom   9C    basis set group =>   1
Atom  10S    basis set group =>   4
Atom  11N    basis set group =>   3
Atom  12C    basis set group =>   1
Atom  13C    basis set group =>   1
Atom  14C    basis set group =>   1
Atom  15C    basis set group =>   1
Atom  16C    basis set group =>   1
Atom  17C    basis set group =>   1
Atom  18O    basis set group =>   2
Atom  19C    basis set group =>   1
Atom  20H    basis set group =>   5
Atom  21H    basis set group =>   5
Atom  22H    basis set group =>   5
Atom  23H    basis set group =>   5
Atom  24H    basis set group =>   5
Atom  25H    basis set group =>   5
Atom  26H    basis set group =>   5
Atom  27H    basis set group =>   5
Atom  28H    basis set group =>   5
Atom  29H    basis set group =>   5
Atom  30H    basis set group =>   5
Atom  31H    basis set group =>   5
Atom  32H    basis set group =>   5
Atom  33H    basis set group =>   5
Atom  34H    basis set group =>   5
Atom  35H    basis set group =>   5
------------------------------------------------------------------------------
                           ORCA GTO INTEGRAL CALCULATION
------------------------------------------------------------------------------
------------------------------------------------------------------------------
                   ___                                                        
                  /   \      - P O W E R E D   B Y -                         
                 /     \                                                     
                 |  |  |   _    _      __       _____    __    __             
                 |  |  |  | |  | |    /  \     |  _  \  |  |  /  |          
                  \  \/   | |  | |   /    \    | | | |  |  | /  /          
                 / \  \   | |__| |  /  /\  \   | |_| |  |  |/  /          
                |  |  |   |  __  | /  /__\  \  |    /   |      \           
                |  |  |   | |  | | |   __   |  |    \   |  |\   \          
                \     /   | |  | | |  |  |  |  | |\  \  |  | \   \       
                 \___/    |_|  |_| |__|  |__|  |_| \__\ |__|  \__/        
                                                                              
                      - O R C A' S   B I G   F R I E N D -                    
                                      &                                       
                       - I N T E G R A L  F E E D E R -                       
                                                                              
 v1 FN, 2020, v2 2021                                                         
------------------------------------------------------------------------------


Reading SHARK input file CONFS/Conf449.orca.SHARKINP.tmp ... ok
----------------------
SHARK INTEGRAL PACKAGE
----------------------

Number of atoms                             ...     36
Number of basis functions                   ...    828
Number of shells                            ...    298
Maximum angular momentum                    ...      3
Integral batch strategy                     ... SHARK/LIBINT Hybrid
RI-J (if used) integral strategy            ... SPLIT-RIJ (Revised 2003 algorithm where possible)
Printlevel                                  ...      1
Contraction scheme used                     ... SEGMENTED contraction
Coulomb Range Separation                    ... NOT USED
Exchange Range Separation                   ... NOT USED
Finite Nucleus Model                        ... NOT USED
Auxiliary Coulomb fitting basis             ... NOT available
Auxiliary J/K fitting basis                 ... NOT available
Auxiliary Correlation fitting basis         ... AVAILABLE
   # of basis functions in Aux-C            ...   2141
   # of shells in Aux-C                     ...    629
   Maximum angular momentum in Aux-C        ...      4
Auxiliary 'external' fitting basis          ... NOT available
Integral threshold                          ...     2.500000e-11
Primitive cut-off                           ...     2.500000e-12
Primitive pair pre-selection threshold      ...     2.500000e-12

Calculating pre-screening integrals         ... done (  0.6 sec) Dimension = 298
Organizing shell pair data                  ... done (  1.5 sec)
Shell pair information
Total number of shell pairs                 ...     44551
Shell pairs after pre-screening             ...     34817
Total number of primitive shell pairs       ...    234348
Primitive shell pairs kept                  ...     99407
          la=0 lb=0:   6902 shell pairs
          la=1 lb=0:   9641 shell pairs
          la=1 lb=1:   3429 shell pairs
          la=2 lb=0:   5570 shell pairs
          la=2 lb=1:   3851 shell pairs
          la=2 lb=2:   1103 shell pairs
          la=3 lb=0:   2008 shell pairs
          la=3 lb=1:   1381 shell pairs
          la=3 lb=2:    780 shell pairs
          la=3 lb=3:    152 shell pairs

Calculating one electron integrals          ... done (  0.4 sec)
Calculating RI/C V-Matrix + Cholesky decomp.... done (  1.0 sec)
Calculating Nuclear repulsion               ... done (  0.1 sec) ENN=   1734.851685959612 Eh

SHARK setup successfully completed in   4.0 seconds

Maximum memory used throughout the entire GTOINT-calculation: 520.4 MB
-------------------------------------------------------------------------------
                                 ORCA SCF
-------------------------------------------------------------------------------

------------
SCF SETTINGS
------------
Hamiltonian:
 Ab initio Hamiltonian  Method          .... Hartree-Fock(GTOs)


General Settings:
 Integral files         IntName         .... CONFS/Conf449.orca
 Hartree-Fock type      HFTyp           .... RHF
 Total Charge           Charge          ....    0
 Multiplicity           Mult            ....    1
 Number of Electrons    NEL             ....  154
 Basis Dimension        Dim             ....  828
 Nuclear Repulsion      ENuc            ....   1734.8516859596 Eh

Convergence Acceleration:
 DIIS                   CNVDIIS         .... on
   Start iteration      DIISMaxIt       ....    12
   Startup error        DIISStart       ....  0.200000
   # of expansion vecs  DIISMaxEq       ....     5
   Bias factor          DIISBfac        ....   1.050
   Max. coefficient     DIISMaxC        ....  10.000
 Trust-Rad. Augm. Hess. CNVTRAH         .... auto
   Auto Start mean grad. ratio tolernc. ....  1.125000
   Auto Start start iteration           ....    20
   Auto Start num. interpolation iter.  ....    10
   Max. Number of Micro iterations      ....    16
   Max. Number of Macro iterations      .... Maxiter - #DIIS iter
   Number of Davidson start vectors     ....     2
   Converg. threshold I  (grad. norm)   ....   1.000e-05
   Converg. threshold II (energy diff.) ....   1.000e-08
   Grad. Scal. Fac. for Micro threshold ....   0.100
   Minimum threshold for Micro iter.    ....   0.010
   NR start threshold (gradient norm)   ....   0.001
   Initial trust radius                 ....   0.400
   Minimum AH scaling param. (alpha)    ....   1.000
   Maximum AH scaling param. (alpha)    .... 1000.000
   Orbital update algorithm             .... Taylor
   White noise on init. David. guess    .... on
   Maximum white noise                  ....   0.010
   Quad. conv. algorithm                .... NR
 SOSCF                  CNVSOSCF        .... on
   Start iteration      SOSCFMaxIt      ....   150
   Startup grad/error   SOSCFStart      ....  0.003300
 Level Shifting         CNVShift        .... on
   Level shift para.    LevelShift      ....    0.2500
   Turn off err/grad.   ShiftErr        ....    0.0010
 Zerner damping         CNVZerner       .... off
 Static damping         CNVDamp         .... on
   Fraction old density DampFac         ....    0.7000
   Max. Damping (<1)    DampMax         ....    0.9800
   Min. Damping (>=0)   DampMin         ....    0.0000
   Turn off err/grad.   DampErr         ....    0.1000
 Fernandez-Rico         CNVRico         .... off

SCF Procedure:
 Maximum # iterations   MaxIter         ....   125
 SCF integral mode      SCFMode         .... Direct
   Integral package                     .... SHARK and LIBINT hybrid scheme
 Reset frequency        DirectResetFreq ....    20
 Integral Threshold     Thresh          ....  2.500e-11 Eh
 Primitive CutOff       TCut            ....  2.500e-12 Eh

Convergence Tolerance:
 Convergence Check Mode ConvCheckMode   .... Total+1el-Energy
 Convergence forced     ConvForced      .... 1
 Energy Change          TolE            ....  1.000e-08 Eh
 1-El. energy change                    ....  1.000e-05 Eh
 Orbital Gradient       TolG            ....  1.000e-05
 Orbital Rotation angle TolX            ....  1.000e-05
 DIIS Error             TolErr          ....  5.000e-07


Diagonalization of the overlap matrix:
Smallest eigenvalue                        ... 3.267e-05
Time for diagonalization                   ...    0.136 sec
Threshold for overlap eigenvalues          ... 1.000e-08
Number of eigenvalues below threshold      ... 0
Time for construction of square roots      ...    0.062 sec
Total time needed                          ...    0.201 sec

Time for model grid setup =    1.510 sec

------------------------------
INITIAL GUESS: MODEL POTENTIAL
------------------------------
Loading Hartree-Fock densities                     ... done
Calculating cut-offs                               ... done
Initializing the effective Hamiltonian             ... done
Setting up the integral package (SHARK)            ... done
Starting the Coulomb interaction                   ... done (   4.8 sec)
Reading the grid                                   ... done
Mapping shells                                     ... done
Starting the XC term evaluation                    ... done (   1.5 sec)
Transforming the Hamiltonian                       ... done (   0.1 sec)
Diagonalizing the Hamiltonian                      ... done (   0.1 sec)
Back transforming the eigenvectors                 ... done (   0.0 sec)
Now organizing SCF variables                       ... done
                      ------------------
                      INITIAL GUESS DONE (   8.1 sec)
                      ------------------
--------------
SCF ITERATIONS
--------------
ITER       Energy         Delta-E        Max-DP      RMS-DP      [F,P]     Damp
               ***  Starting incremental Fock matrix formation  ***
  0  -1269.9957351948   0.000000000000 0.04935538  0.00044904  0.3152756 0.7000
  1  -1270.2606640226  -0.264928827758 0.03611780  0.00036556  0.1844606 0.7000
                               ***Turning on DIIS***
  2  -1270.4259736071  -0.165309584483 0.02587063  0.00024278  0.1098283 0.7000
  3  -1272.5482453160  -2.122271708962 0.06325156  0.00051829  0.0830468 0.0000
  4  -1270.7368918893   1.811353426796 0.01268775  0.00010656  0.0070894 0.0000
  5  -1270.7906811047  -0.053789215406 0.00625069  0.00005593  0.0036695 0.0000
                      *** Initiating the SOSCF procedure ***
                           *** Shutting down DIIS ***
                      *** Re-Reading the Fockian *** 
                      *** Removing any level shift *** 
ITER      Energy       Delta-E        Grad      Rot      Max-DP    RMS-DP
  6  -1270.77041130   0.0202698002  0.001687  0.001687  0.002897  0.000028
               *** Restarting incremental Fock matrix formation ***
  7  -1270.78579305  -0.0153817423  0.000851  0.002139  0.001529  0.000018
  8  -1270.78584174  -0.0000486978  0.000411  0.002532  0.001704  0.000020
  9  -1270.78586081  -0.0000190613  0.000185  0.000338  0.000387  0.000005
 10  -1270.78586328  -0.0000024739  0.000043  0.000117  0.000127  0.000001
 11  -1270.78586351  -0.0000002342  0.000022  0.000120  0.000098  0.000001
 12  -1270.78586358  -0.0000000645  0.000009  0.000034  0.000029  0.000000
 13  -1270.78586359  -0.0000000084  0.000003  0.000008  0.000006  0.000000
                  ***Gradient check signals convergence***
              ***Rediagonalizing the Fockian in SOSCF/NRSCF***

               *****************************************************
               *                     SUCCESS                       *
               *           SCF CONVERGED AFTER  14 CYCLES          *
               *****************************************************


----------------
TOTAL SCF ENERGY
----------------

Total Energy       :        -1270.78586358 Eh          -34579.84135 eV

Components:
Nuclear Repulsion  :         1734.85168596 Eh           47207.71437 eV
Electronic Energy  :        -3005.63754954 Eh          -81787.55572 eV
One Electron Energy:        -5190.43199951 Eh         -141238.83515 eV
Two Electron Energy:         2184.79444997 Eh           59451.27943 eV

Virial components:
Potential Energy   :        -2539.71680112 Eh          -69109.20760 eV
Kinetic Energy     :         1268.93093753 Eh           34529.36625 eV
Virial Ratio       :            2.00146180


---------------
SCF CONVERGENCE
---------------

  Last Energy change         ...    3.6157e-09  Tolerance :   1.0000e-08
  Last MAX-Density change    ...    3.3058e-06  Tolerance :   1.0000e-07
  Last RMS-Density change    ...    3.7992e-08  Tolerance :   5.0000e-09
  Last Orbital Gradient      ...    1.2606e-06  Tolerance :   1.0000e-05
  Last Orbital Rotation      ...    3.2817e-06  Tolerance :   1.0000e-05

             **** THE GBW FILE WAS UPDATED (CONFS/Conf449.orca.gbw) ****
             **** DENSITY CONFS/Conf449.orca.scfp WAS UPDATED ****
             **** ENERGY FILE WAS UPDATED (CONFS/Conf449.orca.en.tmp) ****
             **** THE GBW FILE WAS UPDATED (CONFS/Conf449.orca.gbw) ****
             **** DENSITY CONFS/Conf449.orca.scfp WAS UPDATED ****
----------------
ORBITAL ENERGIES
----------------

  NO   OCC          E(Eh)            E(eV) 
   0   2.0000     -91.891015     -2500.4817 
   1   2.0000     -20.597655      -560.4907 
   2   2.0000     -20.596289      -560.4535 
   3   2.0000     -20.546485      -559.0983 
   4   2.0000     -15.629695      -425.3056 
   5   2.0000     -15.610969      -424.7961 
   6   2.0000     -11.400163      -310.2142 
   7   2.0000     -11.387065      -309.8578 
   8   2.0000     -11.333903      -308.4112 
   9   2.0000     -11.314230      -307.8758 
  10   2.0000     -11.312435      -307.8270 
  11   2.0000     -11.312325      -307.8240 
  12   2.0000     -11.269178      -306.6499 
  13   2.0000     -11.266040      -306.5645 
  14   2.0000     -11.261145      -306.4313 
  15   2.0000     -11.254698      -306.2559 
  16   2.0000     -11.243985      -305.9644 
  17   2.0000     -11.239366      -305.8387 
  18   2.0000     -11.236214      -305.7529 
  19   2.0000     -11.234167      -305.6972 
  20   2.0000      -8.896103      -242.0753 
  21   2.0000      -6.577687      -178.9880 
  22   2.0000      -6.575667      -178.9330 
  23   2.0000      -6.575086      -178.9172 
  24   2.0000      -1.441696       -39.2306 
  25   2.0000      -1.417469       -38.5713 
  26   2.0000      -1.354313       -36.8527 
  27   2.0000      -1.342269       -36.5250 
  28   2.0000      -1.240762       -33.7629 
  29   2.0000      -1.158935       -31.5362 
  30   2.0000      -1.124856       -30.6089 
  31   2.0000      -1.047314       -28.4989 
  32   2.0000      -1.040387       -28.3104 
  33   2.0000      -1.017051       -27.6754 
  34   2.0000      -1.005700       -27.3665 
  35   2.0000      -0.990265       -26.9465 
  36   2.0000      -0.928083       -25.2544 
  37   2.0000      -0.900646       -24.5078 
  38   2.0000      -0.854791       -23.2601 
  39   2.0000      -0.841065       -22.8865 
  40   2.0000      -0.834503       -22.7080 
  41   2.0000      -0.827436       -22.5157 
  42   2.0000      -0.745026       -20.2732 
  43   2.0000      -0.735146       -20.0043 
  44   2.0000      -0.730590       -19.8804 
  45   2.0000      -0.695112       -18.9150 
  46   2.0000      -0.686832       -18.6897 
  47   2.0000      -0.679335       -18.4857 
  48   2.0000      -0.674482       -18.3536 
  49   2.0000      -0.659652       -17.9500 
  50   2.0000      -0.658841       -17.9280 
  51   2.0000      -0.651960       -17.7407 
  52   2.0000      -0.641655       -17.4603 
  53   2.0000      -0.617900       -16.8139 
  54   2.0000      -0.608577       -16.5602 
  55   2.0000      -0.605436       -16.4748 
  56   2.0000      -0.602170       -16.3859 
  57   2.0000      -0.589700       -16.0465 
  58   2.0000      -0.576803       -15.6956 
  59   2.0000      -0.569765       -15.5041 
  60   2.0000      -0.565498       -15.3880 
  61   2.0000      -0.555599       -15.1186 
  62   2.0000      -0.543631       -14.7930 
  63   2.0000      -0.531019       -14.4498 
  64   2.0000      -0.522180       -14.2092 
  65   2.0000      -0.513679       -13.9779 
  66   2.0000      -0.501185       -13.6379 
  67   2.0000      -0.496140       -13.5007 
  68   2.0000      -0.483123       -13.1464 
  69   2.0000      -0.469132       -12.7657 
  70   2.0000      -0.455766       -12.4020 
  71   2.0000      -0.448168       -12.1953 
  72   2.0000      -0.356890        -9.7115 
  73   2.0000      -0.348817        -9.4918 
  74   2.0000      -0.330474        -8.9927 
  75   2.0000      -0.322987        -8.7889 
  76   2.0000      -0.319146        -8.6844 
  77   0.0000       0.079568         2.1651 
  78   0.0000       0.107798         2.9333 
  79   0.0000       0.114784         3.1234 
  80   0.0000       0.130928         3.5627 
  81   0.0000       0.131220         3.5707 
  82   0.0000       0.142174         3.8688 
  83   0.0000       0.150511         4.0956 
  84   0.0000       0.156581         4.2608 
  85   0.0000       0.159681         4.3451 
  86   0.0000       0.167487         4.5575 
  87   0.0000       0.170974         4.6524 
  88   0.0000       0.192346         5.2340 
  89   0.0000       0.194512         5.2929 
  90   0.0000       0.201338         5.4787 
  91   0.0000       0.205091         5.5808 
  92   0.0000       0.209856         5.7105 
  93   0.0000       0.215992         5.8774 
  94   0.0000       0.222527         6.0553 
  95   0.0000       0.234463         6.3801 
  96   0.0000       0.243720         6.6320 
  97   0.0000       0.249651         6.7934 
  98   0.0000       0.261210         7.1079 
  99   0.0000       0.271703         7.3934 
 100   0.0000       0.286337         7.7916 
 101   0.0000       0.302182         8.2228 
 102   0.0000       0.312889         8.5141 
 103   0.0000       0.317122         8.6293 
 104   0.0000       0.322949         8.7879 
 105   0.0000       0.336037         9.1440 
 106   0.0000       0.345511         9.4018 
 107   0.0000       0.349703         9.5159 
 108   0.0000       0.354068         9.6347 
 109   0.0000       0.359941         9.7945 
 110   0.0000       0.371400        10.1063 
 111   0.0000       0.377125        10.2621 
 112   0.0000       0.379874        10.3369 
 113   0.0000       0.389020        10.5858 
 114   0.0000       0.397802        10.8247 
 115   0.0000       0.409495        11.1429 
 116   0.0000       0.421911        11.4808 
 117   0.0000       0.425594        11.5810 
 118   0.0000       0.436247        11.8709 
 119   0.0000       0.441547        12.0151 
 120   0.0000       0.444385        12.0923 
 121   0.0000       0.445109        12.1120 
 122   0.0000       0.454510        12.3679 
 123   0.0000       0.459576        12.5057 
 124   0.0000       0.469185        12.7672 
 125   0.0000       0.472323        12.8526 
 126   0.0000       0.484103        13.1731 
 127   0.0000       0.484431        13.1821 
 128   0.0000       0.491369        13.3708 
 129   0.0000       0.492160        13.3923 
 130   0.0000       0.506703        13.7881 
 131   0.0000       0.507271        13.8035 
 132   0.0000       0.515665        14.0320 
 133   0.0000       0.518788        14.1170 
 134   0.0000       0.525292        14.2939 
 135   0.0000       0.527911        14.3652 
 136   0.0000       0.533166        14.5082 
 137   0.0000       0.536518        14.5994 
 138   0.0000       0.543897        14.8002 
 139   0.0000       0.551314        15.0020 
 140   0.0000       0.554241        15.0817 
 141   0.0000       0.560499        15.2519 
 142   0.0000       0.566851        15.4248 
 143   0.0000       0.576577        15.6894 
 144   0.0000       0.579661        15.7734 
 145   0.0000       0.584459        15.9039 
 146   0.0000       0.585029        15.9195 
 147   0.0000       0.589457        16.0400 
 148   0.0000       0.594579        16.1793 
 149   0.0000       0.599446        16.3117 
 150   0.0000       0.604628        16.4528 
 151   0.0000       0.607269        16.5246 
 152   0.0000       0.611224        16.6323 
 153   0.0000       0.612890        16.6776 
 154   0.0000       0.617855        16.8127 
 155   0.0000       0.626796        17.0560 
 156   0.0000       0.627510        17.0754 
 157   0.0000       0.633952        17.2507 
 158   0.0000       0.636186        17.3115 
 159   0.0000       0.646125        17.5820 
 160   0.0000       0.652412        17.7530 
 161   0.0000       0.656608        17.8672 
 162   0.0000       0.658985        17.9319 
 163   0.0000       0.665209        18.1013 
 164   0.0000       0.677208        18.4278 
 165   0.0000       0.679062        18.4782 
 166   0.0000       0.681629        18.5481 
 167   0.0000       0.686622        18.6839 
 168   0.0000       0.687041        18.6953 
 169   0.0000       0.694420        18.8961 
 170   0.0000       0.704947        19.1826 
 171   0.0000       0.715098        19.4588 
 172   0.0000       0.722054        19.6481 
 173   0.0000       0.726803        19.7773 
 174   0.0000       0.729649        19.8548 
 175   0.0000       0.740915        20.1613 
 176   0.0000       0.749193        20.3866 
 177   0.0000       0.755212        20.5504 
 178   0.0000       0.758430        20.6379 
 179   0.0000       0.766424        20.8555 
 180   0.0000       0.768188        20.9035 
 181   0.0000       0.772896        21.0316 
 182   0.0000       0.781551        21.2671 
 183   0.0000       0.799096        21.7445 
 184   0.0000       0.806595        21.9486 
 185   0.0000       0.809734        22.0340 
 186   0.0000       0.814636        22.1674 
 187   0.0000       0.827950        22.5297 
 188   0.0000       0.837363        22.7858 
 189   0.0000       0.854300        23.2467 
 190   0.0000       0.854757        23.2591 
 191   0.0000       0.861261        23.4361 
 192   0.0000       0.864385        23.5211 
 193   0.0000       0.867771        23.6133 
 194   0.0000       0.872387        23.7389 
 195   0.0000       0.885408        24.0932 
 196   0.0000       0.891846        24.2684 
 197   0.0000       0.895604        24.3706 
 198   0.0000       0.903171        24.5765 
 199   0.0000       0.909717        24.7547 
 200   0.0000       0.920858        25.0578 
 201   0.0000       0.930812        25.3287 
 202   0.0000       0.933544        25.4030 
 203   0.0000       0.939336        25.5606 
 204   0.0000       0.947156        25.7734 
 205   0.0000       0.954467        25.9724 
 206   0.0000       0.959521        26.1099 
 207   0.0000       0.965893        26.2833 
 208   0.0000       0.977834        26.6082 
 209   0.0000       0.987768        26.8785 
 210   0.0000       0.991780        26.9877 
 211   0.0000       0.993981        27.0476 
 212   0.0000       1.003749        27.3134 
 213   0.0000       1.006978        27.4013 
 214   0.0000       1.013465        27.5778 
 215   0.0000       1.020561        27.7709 
 216   0.0000       1.024973        27.8909 
 217   0.0000       1.031455        28.0673 
 218   0.0000       1.042356        28.3640 
 219   0.0000       1.054212        28.6866 
 220   0.0000       1.062798        28.9202 
 221   0.0000       1.065967        29.0064 
 222   0.0000       1.066673        29.0257 
 223   0.0000       1.078670        29.3521 
 224   0.0000       1.085978        29.5510 
 225   0.0000       1.098429        29.8898 
 226   0.0000       1.102859        30.0103 
 227   0.0000       1.113705        30.3055 
 228   0.0000       1.115664        30.3587 
 229   0.0000       1.121544        30.5188 
 230   0.0000       1.129485        30.7348 
 231   0.0000       1.142031        31.0762 
 232   0.0000       1.149473        31.2787 
 233   0.0000       1.152739        31.3676 
 234   0.0000       1.165815        31.7234 
 235   0.0000       1.174878        31.9701 
 236   0.0000       1.182915        32.1888 
 237   0.0000       1.184970        32.2447 
 238   0.0000       1.190667        32.3997 
 239   0.0000       1.201117        32.6841 
 240   0.0000       1.204891        32.7867 
 241   0.0000       1.212147        32.9842 
 242   0.0000       1.217411        33.1274 
 243   0.0000       1.223746        33.2998 
 244   0.0000       1.228020        33.4161 
 245   0.0000       1.232528        33.5388 
 246   0.0000       1.245075        33.8802 
 247   0.0000       1.261366        34.3235 
 248   0.0000       1.262452        34.3531 
 249   0.0000       1.267587        34.4928 
 250   0.0000       1.274826        34.6898 
 251   0.0000       1.283056        34.9137 
 252   0.0000       1.290808        35.1247 
 253   0.0000       1.298280        35.3280 
 254   0.0000       1.303849        35.4795 
 255   0.0000       1.309708        35.6390 
 256   0.0000       1.321207        35.9519 
 257   0.0000       1.327758        36.1301 
 258   0.0000       1.331844        36.2413 
 259   0.0000       1.337665        36.3997 
 260   0.0000       1.346727        36.6463 
 261   0.0000       1.358038        36.9541 
 262   0.0000       1.368862        37.2486 
 263   0.0000       1.378276        37.5048 
 264   0.0000       1.383380        37.6437 
 265   0.0000       1.391679        37.8695 
 266   0.0000       1.399010        38.0690 
 267   0.0000       1.411247        38.4020 
 268   0.0000       1.416997        38.5585 
 269   0.0000       1.424225        38.7551 
 270   0.0000       1.433891        39.0182 
 271   0.0000       1.438961        39.1561 
 272   0.0000       1.447646        39.3924 
 273   0.0000       1.453494        39.5516 
 274   0.0000       1.467201        39.9246 
 275   0.0000       1.469581        39.9893 
 276   0.0000       1.471687        40.0466 
 277   0.0000       1.485720        40.4285 
 278   0.0000       1.487758        40.4839 
 279   0.0000       1.494646        40.6714 
 280   0.0000       1.503261        40.9058 
 281   0.0000       1.509333        41.0710 
 282   0.0000       1.516894        41.2768 
 283   0.0000       1.526041        41.5257 
 284   0.0000       1.528933        41.6044 
 285   0.0000       1.536336        41.8058 
 286   0.0000       1.540206        41.9111 
 287   0.0000       1.544823        42.0368 
 288   0.0000       1.550421        42.1891 
 289   0.0000       1.559502        42.4362 
 290   0.0000       1.561698        42.4960 
 291   0.0000       1.573843        42.8264 
 292   0.0000       1.590505        43.2798 
 293   0.0000       1.595484        43.4153 
 294   0.0000       1.604027        43.6478 
 295   0.0000       1.606769        43.7224 
 296   0.0000       1.614965        43.9454 
 297   0.0000       1.623853        44.1873 
 298   0.0000       1.626120        44.2490 
 299   0.0000       1.641865        44.6774 
 300   0.0000       1.645971        44.7892 
 301   0.0000       1.650037        44.8998 
 302   0.0000       1.659272        45.1511 
 303   0.0000       1.667174        45.3661 
 304   0.0000       1.674649        45.5695 
 305   0.0000       1.682577        45.7853 
 306   0.0000       1.684948        45.8498 
 307   0.0000       1.694294        46.1041 
 308   0.0000       1.709523        46.5185 
 309   0.0000       1.714850        46.6634 
 310   0.0000       1.717564        46.7373 
 311   0.0000       1.734599        47.2008 
 312   0.0000       1.738059        47.2950 
 313   0.0000       1.746553        47.5261 
 314   0.0000       1.755761        47.7767 
 315   0.0000       1.766355        48.0650 
 316   0.0000       1.772997        48.2457 
 317   0.0000       1.792908        48.7875 
 318   0.0000       1.793379        48.8003 
 319   0.0000       1.806791        49.1653 
 320   0.0000       1.828547        49.7573 
 321   0.0000       1.843164        50.1550 
 322   0.0000       1.844824        50.2002 
 323   0.0000       1.862641        50.6850 
 324   0.0000       1.863436        50.7067 
 325   0.0000       1.875233        51.0277 
 326   0.0000       1.890217        51.4354 
 327   0.0000       1.906992        51.8919 
 328   0.0000       1.909309        51.9549 
 329   0.0000       1.917086        52.1666 
 330   0.0000       1.932064        52.5741 
 331   0.0000       1.938666        52.7538 
 332   0.0000       1.954322        53.1798 
 333   0.0000       1.965587        53.4864 
 334   0.0000       1.977745        53.8172 
 335   0.0000       1.989928        54.1487 
 336   0.0000       1.996982        54.3406 
 337   0.0000       2.003088        54.5068 
 338   0.0000       2.018165        54.9170 
 339   0.0000       2.021385        55.0047 
 340   0.0000       2.036548        55.4173 
 341   0.0000       2.046732        55.6944 
 342   0.0000       2.057688        55.9925 
 343   0.0000       2.075004        56.4637 
 344   0.0000       2.096260        57.0421 
 345   0.0000       2.100926        57.1691 
 346   0.0000       2.129022        57.9336 
 347   0.0000       2.135215        58.1021 
 348   0.0000       2.149146        58.4812 
 349   0.0000       2.163945        58.8839 
 350   0.0000       2.183901        59.4270 
 351   0.0000       2.199566        59.8532 
 352   0.0000       2.210033        60.1381 
 353   0.0000       2.220144        60.4132 
 354   0.0000       2.235164        60.8219 
 355   0.0000       2.273364        61.8614 
 356   0.0000       2.286741        62.2254 
 357   0.0000       2.290129        62.3176 
 358   0.0000       2.305404        62.7332 
 359   0.0000       2.317447        63.0609 
 360   0.0000       2.328571        63.3636 
 361   0.0000       2.329529        63.3897 
 362   0.0000       2.350107        63.9497 
 363   0.0000       2.365213        64.3607 
 364   0.0000       2.373678        64.5911 
 365   0.0000       2.383912        64.8696 
 366   0.0000       2.387330        64.9625 
 367   0.0000       2.402354        65.3714 
 368   0.0000       2.410427        65.5911 
 369   0.0000       2.432492        66.1915 
 370   0.0000       2.451517        66.7092 
 371   0.0000       2.462744        67.0147 
 372   0.0000       2.471476        67.2523 
 373   0.0000       2.479160        67.4614 
 374   0.0000       2.498715        67.9935 
 375   0.0000       2.505746        68.1848 
 376   0.0000       2.537778        69.0565 
 377   0.0000       2.538783        69.0838 
 378   0.0000       2.549566        69.3772 
 379   0.0000       2.572439        69.9996 
 380   0.0000       2.578351        70.1605 
 381   0.0000       2.590163        70.4819 
 382   0.0000       2.604196        70.8638 
 383   0.0000       2.610285        71.0295 
 384   0.0000       2.616788        71.2064 
 385   0.0000       2.631212        71.5989 
 386   0.0000       2.636462        71.7418 
 387   0.0000       2.650154        72.1144 
 388   0.0000       2.668156        72.6042 
 389   0.0000       2.675791        72.8120 
 390   0.0000       2.684260        73.0424 
 391   0.0000       2.695165        73.3392 
 392   0.0000       2.713399        73.8354 
 393   0.0000       2.719418        73.9991 
 394   0.0000       2.732241        74.3481 
 395   0.0000       2.741118        74.5896 
 396   0.0000       2.743755        74.6614 
 397   0.0000       2.763763        75.2058 
 398   0.0000       2.775580        75.5274 
 399   0.0000       2.782430        75.7138 
 400   0.0000       2.784715        75.7759 
 401   0.0000       2.797667        76.1284 
 402   0.0000       2.818921        76.7067 
 403   0.0000       2.823423        76.8292 
 404   0.0000       2.836353        77.1811 
 405   0.0000       2.845380        77.4267 
 406   0.0000       2.852742        77.6271 
 407   0.0000       2.858618        77.7869 
 408   0.0000       2.870328        78.1056 
 409   0.0000       2.874126        78.2089 
 410   0.0000       2.882078        78.4253 
 411   0.0000       2.901160        78.9446 
 412   0.0000       2.908574        79.1463 
 413   0.0000       2.915349        79.3307 
 414   0.0000       2.920375        79.4674 
 415   0.0000       2.934749        79.8586 
 416   0.0000       2.943271        80.0905 
 417   0.0000       2.951895        80.3251 
 418   0.0000       2.952910        80.3528 
 419   0.0000       2.960687        80.5644 
 420   0.0000       2.965711        80.7011 
 421   0.0000       2.984541        81.2135 
 422   0.0000       2.998246        81.5864 
 423   0.0000       3.000979        81.6608 
 424   0.0000       3.013369        81.9979 
 425   0.0000       3.014516        82.0291 
 426   0.0000       3.015962        82.0685 
 427   0.0000       3.024568        82.3027 
 428   0.0000       3.033104        82.5350 
 429   0.0000       3.042676        82.7954 
 430   0.0000       3.047131        82.9167 
 431   0.0000       3.050371        83.0048 
 432   0.0000       3.058265        83.2196 
 433   0.0000       3.071629        83.5833 
 434   0.0000       3.076594        83.7184 
 435   0.0000       3.083494        83.9061 
 436   0.0000       3.087376        84.0118 
 437   0.0000       3.101062        84.3842 
 438   0.0000       3.111937        84.6801 
 439   0.0000       3.117764        84.8387 
 440   0.0000       3.127081        85.0922 
 441   0.0000       3.132076        85.2281 
 442   0.0000       3.135603        85.3241 
 443   0.0000       3.143260        85.5325 
 444   0.0000       3.148974        85.6879 
 445   0.0000       3.159529        85.9752 
 446   0.0000       3.170067        86.2619 
 447   0.0000       3.177553        86.4656 
 448   0.0000       3.187824        86.7451 
 449   0.0000       3.191056        86.8330 
 450   0.0000       3.204821        87.2076 
 451   0.0000       3.212316        87.4116 
 452   0.0000       3.220290        87.6285 
 453   0.0000       3.225817        87.7790 
 454   0.0000       3.235556        88.0440 
 455   0.0000       3.241984        88.2189 
 456   0.0000       3.249068        88.4116 
 457   0.0000       3.257780        88.6487 
 458   0.0000       3.264656        88.8358 
 459   0.0000       3.269875        88.9778 
 460   0.0000       3.276901        89.1690 
 461   0.0000       3.288981        89.4977 
 462   0.0000       3.290170        89.5301 
 463   0.0000       3.295574        89.6771 
 464   0.0000       3.300561        89.8128 
 465   0.0000       3.309097        90.0451 
 466   0.0000       3.316425        90.2445 
 467   0.0000       3.319569        90.3301 
 468   0.0000       3.324622        90.4676 
 469   0.0000       3.333565        90.7109 
 470   0.0000       3.337025        90.8051 
 471   0.0000       3.345028        91.0228 
 472   0.0000       3.353621        91.2567 
 473   0.0000       3.360703        91.4494 
 474   0.0000       3.368586        91.6639 
 475   0.0000       3.374657        91.8291 
 476   0.0000       3.379013        91.9476 
 477   0.0000       3.381493        92.0151 
 478   0.0000       3.384439        92.0953 
 479   0.0000       3.393939        92.3538 
 480   0.0000       3.398376        92.4745 
 481   0.0000       3.402933        92.5985 
 482   0.0000       3.404290        92.6354 
 483   0.0000       3.411833        92.8407 
 484   0.0000       3.416629        92.9712 
 485   0.0000       3.425209        93.2047 
 486   0.0000       3.432205        93.3950 
 487   0.0000       3.440031        93.6080 
 488   0.0000       3.441839        93.6572 
 489   0.0000       3.447586        93.8136 
 490   0.0000       3.452176        93.9385 
 491   0.0000       3.459107        94.1271 
 492   0.0000       3.467068        94.3437 
 493   0.0000       3.469799        94.4180 
 494   0.0000       3.475945        94.5853 
 495   0.0000       3.482992        94.7770 
 496   0.0000       3.490264        94.9749 
 497   0.0000       3.496642        95.1485 
 498   0.0000       3.506342        95.4124 
 499   0.0000       3.512487        95.5796 
 500   0.0000       3.517287        95.7103 
 501   0.0000       3.529467        96.0417 
 502   0.0000       3.530735        96.0762 
 503   0.0000       3.534783        96.1863 
 504   0.0000       3.548421        96.5574 
 505   0.0000       3.567712        97.0824 
 506   0.0000       3.570072        97.1466 
 507   0.0000       3.573988        97.2532 
 508   0.0000       3.582411        97.4823 
 509   0.0000       3.596739        97.8722 
 510   0.0000       3.598070        97.9084 
 511   0.0000       3.604779        98.0910 
 512   0.0000       3.612116        98.2907 
 513   0.0000       3.617308        98.4319 
 514   0.0000       3.625014        98.6416 
 515   0.0000       3.627651        98.7134 
 516   0.0000       3.633525        98.8732 
 517   0.0000       3.638655        99.0128 
 518   0.0000       3.647438        99.2518 
 519   0.0000       3.653300        99.4113 
 520   0.0000       3.657227        99.5182 
 521   0.0000       3.664978        99.7291 
 522   0.0000       3.671726        99.9127 
 523   0.0000       3.681264       100.1723 
 524   0.0000       3.687775       100.3495 
 525   0.0000       3.695768       100.5669 
 526   0.0000       3.701614       100.7260 
 527   0.0000       3.704102       100.7937 
 528   0.0000       3.714486       101.0763 
 529   0.0000       3.719708       101.2184 
 530   0.0000       3.726898       101.4141 
 531   0.0000       3.731485       101.5389 
 532   0.0000       3.739240       101.7499 
 533   0.0000       3.741649       101.8154 
 534   0.0000       3.748667       102.0064 
 535   0.0000       3.758652       102.2781 
 536   0.0000       3.765118       102.4541 
 537   0.0000       3.769521       102.5739 
 538   0.0000       3.770916       102.6118 
 539   0.0000       3.776983       102.7769 
 540   0.0000       3.787852       103.0727 
 541   0.0000       3.797807       103.3436 
 542   0.0000       3.802910       103.4824 
 543   0.0000       3.805841       103.5622 
 544   0.0000       3.821000       103.9747 
 545   0.0000       3.828791       104.1867 
 546   0.0000       3.836981       104.4096 
 547   0.0000       3.843600       104.5897 
 548   0.0000       3.852789       104.8397 
 549   0.0000       3.862906       105.1150 
 550   0.0000       3.866410       105.2104 
 551   0.0000       3.870299       105.3162 
 552   0.0000       3.877784       105.5199 
 553   0.0000       3.882430       105.6463 
 554   0.0000       3.896829       106.0381 
 555   0.0000       3.901823       106.1740 
 556   0.0000       3.913256       106.4851 
 557   0.0000       3.918625       106.6312 
 558   0.0000       3.925670       106.8229 
 559   0.0000       3.930790       106.9622 
 560   0.0000       3.950546       107.4998 
 561   0.0000       3.955155       107.6252 
 562   0.0000       3.961751       107.8047 
 563   0.0000       3.964494       107.8794 
 564   0.0000       3.985042       108.4385 
 565   0.0000       3.992444       108.6399 
 566   0.0000       3.997671       108.7822 
 567   0.0000       4.006481       109.0219 
 568   0.0000       4.013155       109.2035 
 569   0.0000       4.021125       109.4204 
 570   0.0000       4.026751       109.5735 
 571   0.0000       4.038190       109.8847 
 572   0.0000       4.052041       110.2616 
 573   0.0000       4.064745       110.6073 
 574   0.0000       4.066802       110.6633 
 575   0.0000       4.079756       111.0158 
 576   0.0000       4.091353       111.3314 
 577   0.0000       4.093103       111.3790 
 578   0.0000       4.102022       111.6217 
 579   0.0000       4.107630       111.7743 
 580   0.0000       4.118887       112.0806 
 581   0.0000       4.122321       112.1741 
 582   0.0000       4.127577       112.3171 
 583   0.0000       4.141381       112.6927 
 584   0.0000       4.146306       112.8267 
 585   0.0000       4.153029       113.0097 
 586   0.0000       4.161843       113.2495 
 587   0.0000       4.170133       113.4751 
 588   0.0000       4.173170       113.5577 
 589   0.0000       4.176744       113.6550 
 590   0.0000       4.180959       113.7697 
 591   0.0000       4.190054       114.0172 
 592   0.0000       4.199262       114.2677 
 593   0.0000       4.202680       114.3607 
 594   0.0000       4.220856       114.8553 
 595   0.0000       4.235307       115.2486 
 596   0.0000       4.243633       115.4751 
 597   0.0000       4.246788       115.5610 
 598   0.0000       4.252967       115.7291 
 599   0.0000       4.255295       115.7925 
 600   0.0000       4.264322       116.0381 
 601   0.0000       4.266772       116.1048 
 602   0.0000       4.277294       116.3911 
 603   0.0000       4.286918       116.6530 
 604   0.0000       4.292962       116.8174 
 605   0.0000       4.309738       117.2739 
 606   0.0000       4.314848       117.4130 
 607   0.0000       4.319718       117.5455 
 608   0.0000       4.325704       117.7084 
 609   0.0000       4.328644       117.7884 
 610   0.0000       4.334780       117.9554 
 611   0.0000       4.349496       118.3558 
 612   0.0000       4.367284       118.8398 
 613   0.0000       4.374661       119.0406 
 614   0.0000       4.381395       119.2238 
 615   0.0000       4.388589       119.4196 
 616   0.0000       4.398972       119.7021 
 617   0.0000       4.412879       120.0805 
 618   0.0000       4.417387       120.2032 
 619   0.0000       4.424916       120.4081 
 620   0.0000       4.430524       120.5607 
 621   0.0000       4.435874       120.7063 
 622   0.0000       4.444788       120.9488 
 623   0.0000       4.450328       121.0996 
 624   0.0000       4.461113       121.3931 
 625   0.0000       4.465176       121.5036 
 626   0.0000       4.477278       121.8329 
 627   0.0000       4.485138       122.0468 
 628   0.0000       4.499620       122.4409 
 629   0.0000       4.506055       122.6160 
 630   0.0000       4.514343       122.8415 
 631   0.0000       4.518399       122.9519 
 632   0.0000       4.527779       123.2071 
 633   0.0000       4.531352       123.3044 
 634   0.0000       4.538625       123.5023 
 635   0.0000       4.549883       123.8086 
 636   0.0000       4.552483       123.8794 
 637   0.0000       4.565392       124.2306 
 638   0.0000       4.569217       124.3347 
 639   0.0000       4.579556       124.6161 
 640   0.0000       4.594439       125.0210 
 641   0.0000       4.604467       125.2939 
 642   0.0000       4.612710       125.5182 
 643   0.0000       4.622630       125.7882 
 644   0.0000       4.633039       126.0714 
 645   0.0000       4.633723       126.0900 
 646   0.0000       4.639929       126.2589 
 647   0.0000       4.654154       126.6460 
 648   0.0000       4.662281       126.8671 
 649   0.0000       4.666696       126.9873 
 650   0.0000       4.673340       127.1680 
 651   0.0000       4.677747       127.2880 
 652   0.0000       4.680269       127.3566 
 653   0.0000       4.682663       127.4217 
 654   0.0000       4.700917       127.9185 
 655   0.0000       4.710562       128.1809 
 656   0.0000       4.715126       128.3051 
 657   0.0000       4.730946       128.7356 
 658   0.0000       4.747417       129.1838 
 659   0.0000       4.757905       129.4692 
 660   0.0000       4.764764       129.6558 
 661   0.0000       4.776481       129.9746 
 662   0.0000       4.784469       130.1920 
 663   0.0000       4.804287       130.7313 
 664   0.0000       4.822953       131.2392 
 665   0.0000       4.827208       131.3550 
 666   0.0000       4.842633       131.7747 
 667   0.0000       4.873326       132.6099 
 668   0.0000       4.888490       133.0226 
 669   0.0000       4.909992       133.6077 
 670   0.0000       4.912902       133.6869 
 671   0.0000       4.914855       133.7400 
 672   0.0000       4.935937       134.3137 
 673   0.0000       4.955392       134.8431 
 674   0.0000       4.988025       135.7311 
 675   0.0000       4.992096       135.8418 
 676   0.0000       5.013136       136.4144 
 677   0.0000       5.021546       136.6432 
 678   0.0000       5.028704       136.8380 
 679   0.0000       5.036721       137.0562 
 680   0.0000       5.038178       137.0958 
 681   0.0000       5.051658       137.4626 
 682   0.0000       5.072036       138.0171 
 683   0.0000       5.095797       138.6637 
 684   0.0000       5.118781       139.2891 
 685   0.0000       5.121216       139.3554 
 686   0.0000       5.125155       139.4625 
 687   0.0000       5.129408       139.5783 
 688   0.0000       5.147474       140.0699 
 689   0.0000       5.156198       140.3073 
 690   0.0000       5.168644       140.6460 
 691   0.0000       5.174039       140.7928 
 692   0.0000       5.186395       141.1290 
 693   0.0000       5.201447       141.5386 
 694   0.0000       5.204344       141.6174 
 695   0.0000       5.221087       142.0730 
 696   0.0000       5.230627       142.3326 
 697   0.0000       5.233834       142.4199 
 698   0.0000       5.240937       142.6132 
 699   0.0000       5.252758       142.9348 
 700   0.0000       5.268748       143.3699 
 701   0.0000       5.282209       143.7362 
 702   0.0000       5.295166       144.0888 
 703   0.0000       5.298147       144.1699 
 704   0.0000       5.324819       144.8957 
 705   0.0000       5.329598       145.0257 
 706   0.0000       5.336079       145.2021 
 707   0.0000       5.343594       145.4066 
 708   0.0000       5.355379       145.7273 
 709   0.0000       5.381484       146.4376 
 710   0.0000       5.389607       146.6587 
 711   0.0000       5.404795       147.0719 
 712   0.0000       5.447217       148.2263 
 713   0.0000       5.468434       148.8037 
 714   0.0000       5.474736       148.9751 
 715   0.0000       5.481931       149.1709 
 716   0.0000       5.495705       149.5457 
 717   0.0000       5.501269       149.6971 
 718   0.0000       5.514493       150.0570 
 719   0.0000       5.523207       150.2941 
 720   0.0000       5.539573       150.7395 
 721   0.0000       5.549412       151.0072 
 722   0.0000       5.562355       151.3594 
 723   0.0000       5.572975       151.6484 
 724   0.0000       5.580865       151.8630 
 725   0.0000       5.593834       152.2160 
 726   0.0000       5.612758       152.7309 
 727   0.0000       5.631465       153.2399 
 728   0.0000       5.634706       153.3281 
 729   0.0000       5.649754       153.7376 
 730   0.0000       5.656905       153.9322 
 731   0.0000       5.664657       154.1432 
 732   0.0000       5.673171       154.3748 
 733   0.0000       5.688698       154.7973 
 734   0.0000       5.715189       155.5182 
 735   0.0000       5.722276       155.7110 
 736   0.0000       5.730370       155.9313 
 737   0.0000       5.736042       156.0856 
 738   0.0000       5.749517       156.4523 
 739   0.0000       5.752936       156.5453 
 740   0.0000       5.764197       156.8518 
 741   0.0000       5.775777       157.1669 
 742   0.0000       5.793338       157.6447 
 743   0.0000       5.803109       157.9106 
 744   0.0000       5.811319       158.1340 
 745   0.0000       5.822087       158.4270 
 746   0.0000       5.849184       159.1644 
 747   0.0000       5.857541       159.3918 
 748   0.0000       5.880201       160.0084 
 749   0.0000       5.889795       160.2695 
 750   0.0000       5.934846       161.4954 
 751   0.0000       5.958649       162.1431 
 752   0.0000       5.972661       162.5244 
 753   0.0000       5.997936       163.2121 
 754   0.0000       6.003002       163.3500 
 755   0.0000       6.024940       163.9470 
 756   0.0000       6.048803       164.5963 
 757   0.0000       6.051390       164.6667 
 758   0.0000       6.073078       165.2569 
 759   0.0000       6.078193       165.3960 
 760   0.0000       6.101481       166.0297 
 761   0.0000       6.175602       168.0467 
 762   0.0000       6.225209       169.3966 
 763   0.0000       6.235621       169.6799 
 764   0.0000       6.239423       169.7833 
 765   0.0000       6.295015       171.2961 
 766   0.0000       6.313946       171.8112 
 767   0.0000       6.348189       172.7430 
 768   0.0000       6.355437       172.9402 
 769   0.0000       6.384493       173.7309 
 770   0.0000       6.391889       173.9322 
 771   0.0000       6.399814       174.1478 
 772   0.0000       6.427992       174.9145 
 773   0.0000       6.444804       175.3720 
 774   0.0000       6.459374       175.7685 
 775   0.0000       6.463546       175.8820 
 776   0.0000       6.504277       176.9904 
 777   0.0000       6.541183       177.9946 
 778   0.0000       6.556706       178.4170 
 779   0.0000       6.609692       179.8589 
 780   0.0000       6.651784       181.0042 
 781   0.0000       6.691005       182.0715 
 782   0.0000       6.725493       183.0100 
 783   0.0000       6.743902       183.5109 
 784   0.0000       6.831379       185.8913 
 785   0.0000       6.879151       187.1912 
 786   0.0000       6.910003       188.0307 
 787   0.0000       6.921820       188.3523 
 788   0.0000       6.959989       189.3909 
 789   0.0000       7.011623       190.7960 
 790   0.0000       7.052948       191.9205 
 791   0.0000       7.065193       192.2537 
 792   0.0000       7.082698       192.7300 
 793   0.0000       7.134755       194.1465 
 794   0.0000       7.173197       195.1926 
 795   0.0000       7.229197       196.7164 
 796   0.0000       7.260338       197.5639 
 797   0.0000       7.282042       198.1544 
 798   0.0000       7.344618       199.8572 
 799   0.0000       7.389133       201.0685 
 800   0.0000       7.423165       201.9946 
 801   0.0000       7.513126       204.4425 
 802   0.0000       7.580650       206.2800 
 803   0.0000       7.587007       206.4529 
 804   0.0000       7.616960       207.2680 
 805   0.0000       7.750143       210.8921 
 806   0.0000       7.821087       212.8226 
 807   0.0000       7.933979       215.8945 
 808   0.0000       8.059244       219.3032 
 809   0.0000       9.513442       258.8739 
 810   0.0000       9.700472       263.9633 
 811   0.0000      10.795837       293.7697 
 812   0.0000      11.099863       302.0426 
 813   0.0000      11.977841       325.9336 
 814   0.0000      12.580019       342.3197 
 815   0.0000      12.865135       350.0781 
 816   0.0000      12.964264       352.7756 
 817   0.0000      13.087092       356.1179 
 818   0.0000      13.280036       361.3682 
 819   0.0000      13.438013       365.6669 
 820   0.0000      13.520526       367.9122 
 821   0.0000      13.737460       373.8153 
 822   0.0000      13.975761       380.2998 
 823   0.0000      14.094974       383.5437 
 824   0.0000      14.241569       387.5328 
 825   0.0000      14.452565       393.2743 
 826   0.0000      14.709847       400.2753 
 827   0.0000      15.976817       434.7513 

                    ********************************
                    * MULLIKEN POPULATION ANALYSIS *
                    ********************************

-----------------------
MULLIKEN ATOMIC CHARGES
-----------------------
   0 C :   -0.343309
   1 C :    0.040970
   2 O :   -0.335930
   3 C :    0.432769
   4 O :   -0.387210
   5 C :   -0.210323
   6 C :    0.142843
   7 C :   -0.338697
   8 N :   -0.135432
   9 C :    0.197576
  10 S :   -0.438479
  11 N :   -0.217477
  12 C :    0.074458
  13 C :    0.020150
  14 C :   -0.206286
  15 C :   -0.135159
  16 C :   -0.277631
  17 C :    0.316854
  18 O :   -0.358154
  19 C :   -0.269131
  20 H :    0.130418
  21 H :    0.121220
  22 H :    0.109964
  23 H :    0.131505
  24 H :    0.085683
  25 H :    0.138457
  26 H :    0.136291
  27 H :    0.121401
  28 H :    0.197592
  29 H :    0.200109
  30 H :    0.166441
  31 H :    0.175856
  32 H :    0.163742
  33 H :    0.131959
  34 H :    0.241093
  35 H :    0.175868
Sum of atomic charges:    0.0000000

--------------------------------
MULLIKEN REDUCED ORBITAL CHARGES
--------------------------------
  0 C s       :     3.272457  s :     3.272457
      pz      :     0.917837  p :     2.989096
      px      :     1.048780
      py      :     1.022480
      dz2     :     0.020207  d :     0.077340
      dxz     :     0.009208
      dyz     :     0.020268
      dx2y2   :     0.021271
      dxy     :     0.006386
      f0      :     0.001072  f :     0.004417
      f+1     :     0.000916
      f-1     :     0.000822
      f+2     :     0.000315
      f-2     :     0.000233
      f+3     :     0.000635
      f-3     :     0.000424
  1 C s       :     3.168315  s :     3.168315
      pz      :     0.954170  p :     2.625416
      px      :     0.641623
      py      :     1.029623
      dz2     :     0.024390  d :     0.153986
      dxz     :     0.035217
      dyz     :     0.025098
      dx2y2   :     0.032569
      dxy     :     0.036711
      f0      :     0.001962  f :     0.011313
      f+1     :     0.001774
      f-1     :     0.000922
      f+2     :     0.001770
      f-2     :     0.000364
      f+3     :     0.002339
      f-3     :     0.002182
  2 O s       :     3.720007  s :     3.720007
      pz      :     1.668481  p :     4.583273
      px      :     1.166637
      py      :     1.748155
      dz2     :     0.004460  d :     0.030363
      dxz     :     0.009806
      dyz     :     0.003039
      dx2y2   :     0.004714
      dxy     :     0.008343
      f0      :     0.000188  f :     0.002288
      f+1     :     0.000385
      f-1     :     0.000054
      f+2     :     0.000400
      f-2     :     0.000296
[...]
 15 C s       :     2.705652  s :     2.705652
      pz      :     0.896653  p :     2.793874
      px      :     0.927090
      py      :     0.970131
      dz2     :     0.093553  d :     0.416295
      dxz     :     0.067465
      dyz     :     0.059474
      dx2y2   :     0.106731
      dxy     :     0.089072
      f0      :     0.003052  f :     0.041074
      f+1     :     0.005164
      f-1     :     0.006254
      f+2     :     0.006846
      f-2     :     0.006660
      f+3     :     0.006546
      f-3     :     0.006551
 16 C s       :     2.701707  s :     2.701707
      pz      :     0.938029  p :     2.868582
      px      :     0.959291
      py      :     0.971261
      dz2     :     0.045664  d :     0.391109
      dxz     :     0.054741
      dyz     :     0.090193
      dx2y2   :     0.092581
      dxy     :     0.107930
      f0      :     0.004690  f :     0.040368
      f+1     :     0.004624
      f-1     :     0.003429
      f+2     :     0.005929
      f-2     :     0.005800
      f+3     :     0.008252
      f-3     :     0.007643
 17 C s       :     2.701403  s :     2.701403
      pz      :     0.837916  p :     2.684141
      px      :     0.819125
      py      :     1.027099
      dz2     :     0.127657  d :     0.709251
      dxz     :     0.109092
      dyz     :     0.140735
      dx2y2   :     0.165356
      dxy     :     0.166411
      f0      :     0.009867  f :     0.099340
      f+1     :     0.016019
      f-1     :     0.009264
      f+2     :     0.015397
      f-2     :     0.015678
      f+3     :     0.015422
      f-3     :     0.017692
 18 O s       :     3.177145  s :     3.177145
      pz      :     1.438346  p :     4.347074
      px      :     1.423191
      py      :     1.485537
      dz2     :     0.008650  d :     0.075599
      dxz     :     0.017641
      dyz     :     0.017590
      dx2y2   :     0.016676
      dxy     :     0.015042
      f0      :     0.000604  f :     0.005072
      f+1     :     0.000770
      f-1     :     0.000335
      f+2     :     0.000814
      f-2     :     0.000952
      f+3     :     0.000704
      f-3     :     0.000892
 19 C s       :     2.695899  s :     2.695899
      pz      :     0.931603  p :     2.846315
      px      :     0.946818
      py      :     0.967895
      dz2     :     0.075414  d :     0.388293
      dxz     :     0.064809
      dyz     :     0.062349
      dx2y2   :     0.093517
      dxy     :     0.092205
      f0      :     0.003149  f :     0.040726
      f+1     :     0.005245
      f-1     :     0.005713
      f+2     :     0.006907
      f-2     :     0.007153
      f+3     :     0.006591
      f-3     :     0.005968
 20 H s       :     0.836728  s :     0.836728
      pz      :     0.055514  p :     0.155513
      px      :     0.047756
      py      :     0.052243
      dz2     :     0.007161  d :     0.028009
      dxz     :     0.004631
      dyz     :     0.005734
      dx2y2   :     0.006354
      dxy     :     0.004129
 21 H s       :     0.841764  s :     0.841764
      pz      :     0.039532  p :     0.152449
      px      :     0.071165
      py      :     0.041752
      dz2     :     0.002550  d :     0.027639
      dxz     :     0.008798
      dyz     :     0.000179
      dx2y2   :     0.007123
      dxy     :     0.008989
 22 H s       :     0.848304  s :     0.848304
      pz      :     0.041525  p :     0.159265
      px      :     0.045722
      py      :     0.072018
      dz2     :     0.003465  d :     0.028416
      dxz     :     0.000744
      dyz     :     0.008359
      dx2y2   :     0.007415
      dxy     :     0.008432
 23 H s       :     0.846977  s :     0.846977
      pz      :     0.044451  p :     0.144009
      px      :     0.032310
      py      :     0.067248
      dz2     :     0.004025  d :     0.027019
      dxz     :     0.002274
      dyz     :     0.007333
      dx2y2   :     0.006705
      dxy     :     0.006681
 24 H s       :     0.860634  s :     0.860634
      pz      :     0.055898  p :     0.149523
      px      :     0.030466
      py      :     0.063159
      dz2     :     0.007240  d :     0.027344
      dxz     :     0.003364
      dyz     :     0.006474
      dx2y2   :     0.005774
      dxy     :     0.004492
 25 H s       :     0.828349  s :     0.828349
      pz      :     0.053622  p :     0.150723
      px      :     0.040894
      py      :     0.056207
      dz2     :     0.007463  d :     0.027717
      dxz     :     0.004690
      dyz     :     0.006569
      dx2y2   :     0.004986
      dxy     :     0.004009
 26 H s       :     0.832275  s :     0.832275
      pz      :     0.039469  p :     0.150304
      px      :     0.043469
      py      :     0.067366
      dz2     :     0.003397  d :     0.027708
      dxz     :     0.001639
      dyz     :     0.007913
      dx2y2   :     0.007855
      dxy     :     0.006903
 27 H s       :     0.836584  s :     0.836584
      pz      :     0.037701  p :     0.153865
      px      :     0.074674
      py      :     0.041489
      dz2     :     0.002348  d :     0.027795
      dxz     :     0.008790
      dyz     :     0.000135
      dx2y2   :     0.006867
      dxy     :     0.009654
 28 H s       :     0.742410  s :     0.742410
      pz      :     0.055741  p :     0.253200
      px      :     0.091587
      py      :     0.105872
      dz2     :     0.007234  d :     0.061717
      dxz     :     0.004150
      dyz     :     0.014950
      dx2y2   :     0.017722
      dxy     :     0.017660
 29 H s       :     0.747623  s :     0.747623
      pz      :     0.117030  p :     0.254229
      px      :     0.092246
      py      :     0.044953
      dz2     :     0.022290  d :     0.061382
      dxz     :     0.017474
      dyz     :     0.012199
      dx2y2   :     0.005524
      dxy     :     0.003894
 30 H s       :     0.823346  s :     0.823346
      pz      :     0.038100  p :     0.150150
      px      :     0.075096
      py      :     0.036954
      dz2     :     0.002782  d :     0.028476
      dxz     :     0.008262
      dyz     :     0.001577
      dx2y2   :     0.008222
      dxy     :     0.007632
 31 H s       :     0.836879  s :     0.836879
      pz      :     0.056954  p :     0.157491
      px      :     0.065338
      py      :     0.035199
      dz2     :     0.005579  d :     0.027450
      dxz     :     0.007036
      dyz     :     0.003590
      dx2y2   :     0.005489
      dxy     :     0.005756
 32 H s       :     0.841553  s :     0.841553
      pz      :     0.036463  p :     0.150786
      px      :     0.039858
      py      :     0.074465
      dz2     :     0.002602  d :     0.026421
      dxz     :     0.000840
      dyz     :     0.007097
      dx2y2   :     0.007925
      dxy     :     0.007957
 33 H s       :     0.848417  s :     0.848417
      pz      :     0.056098  p :     0.158875
      px      :     0.048021
      py      :     0.054756
      dz2     :     0.005745  d :     0.027740
      dxz     :     0.004341
      dyz     :     0.006177
      dx2y2   :     0.005977
      dxy     :     0.005500
 34 H s       :     0.706393  s :     0.706393
      pz      :     0.108956  p :     0.347692
      px      :     0.085455
      py      :     0.153281
      dz2     :     0.021479  d :     0.099533
      dxz     :     0.010182
      dyz     :     0.024821
      dx2y2   :     0.021653
      dxy     :     0.021397
 35 H s       :     0.837855  s :     0.837855
      pz      :     0.040966  p :     0.159404
      px      :     0.042487
      py      :     0.075951
      dz2     :     0.002568  d :     0.028095
      dxz     :     0.001046
      dyz     :     0.007783
      dx2y2   :     0.008177
      dxy     :     0.008522


                      *****************************
                      * MAYER POPULATION ANALYSIS *
                      *****************************

  NA   - Mulliken gross atomic population
  ZA   - Total nuclear charge
  QA   - Mulliken gross atomic charge
  VA   - Mayer's total valence
  BVA  - Mayer's bonded valence
  FA   - Mayer's free valence

  ATOM       NA         ZA         QA         VA         BVA        FA
  0 C      6.3433     6.0000    -0.3433     3.8719     3.8719     0.0000
  1 C      5.9590     6.0000     0.0410     3.8578     3.8578    -0.0000
  2 O      8.3359     8.0000    -0.3359     2.0511     2.0511    -0.0000
  3 C      5.5672     6.0000     0.4328     4.2520     4.2520    -0.0000
  4 O      8.3872     8.0000    -0.3872     2.1236     2.1236    -0.0000
  5 C      6.2103     6.0000    -0.2103     3.5810     3.5810     0.0000
  6 C      5.8572     6.0000     0.1428     3.7838     3.7838     0.0000
  7 C      6.3387     6.0000    -0.3387     3.8766     3.8766     0.0000
  8 N      7.1354     7.0000    -0.1354     3.2563     3.2563     0.0000
  9 C      5.8024     6.0000     0.1976     4.1489     4.1489    -0.0000
 10 S     16.4385    16.0000    -0.4385     1.7539     1.7539     0.0000
 11 N      7.2175     7.0000    -0.2175     3.2533     3.2533    -0.0000
 12 C      5.9255     6.0000     0.0745     3.9405     3.9405     0.0000
 13 C      5.9799     6.0000     0.0201     3.7235     3.7235     0.0000
 14 C      6.2063     6.0000    -0.2063     3.8722     3.8722     0.0000
 15 C      6.1352     6.0000    -0.1352     3.8103     3.8103    -0.0000
 16 C      6.2776     6.0000    -0.2776     3.7874     3.7874     0.0000
 17 C      5.6831     6.0000     0.3169     3.8686     3.8686     0.0000
 18 O      8.3582     8.0000    -0.3582     2.1167     2.1167    -0.0000
 19 C      6.2691     6.0000    -0.2691     3.8191     3.8191    -0.0000
 20 H      0.8696     1.0000     0.1304     0.9698     0.9698     0.0000
 21 H      0.8788     1.0000     0.1212     0.9827     0.9827    -0.0000
 22 H      0.8900     1.0000     0.1100     0.9651     0.9651     0.0000
 23 H      0.8685     1.0000     0.1315     0.9698     0.9698     0.0000
 24 H      0.9143     1.0000     0.0857     0.9619     0.9619    -0.0000
 25 H      0.8615     1.0000     0.1385     0.9816     0.9816     0.0000
 26 H      0.8637     1.0000     0.1363     0.9820     0.9820    -0.0000
 27 H      0.8786     1.0000     0.1214     0.9694     0.9694     0.0000
 28 H      0.8024     1.0000     0.1976     1.0215     1.0215     0.0000
 29 H      0.7999     1.0000     0.2001     1.0142     1.0142    -0.0000
 30 H      0.8336     1.0000     0.1664     0.9936     0.9936     0.0000
 31 H      0.8241     1.0000     0.1759     0.9850     0.9850    -0.0000
 32 H      0.8363     1.0000     0.1637     0.9765     0.9765    -0.0000
 33 H      0.8680     1.0000     0.1320     0.9909     0.9909     0.0000
 34 H      0.7589     1.0000     0.2411     1.0105     1.0105    -0.0000
 35 H      0.8241     1.0000     0.1759     0.9870     0.9870    -0.0000

  Mayer bond orders larger than 0.100000
B(  0-C ,  1-C ) :   0.9584 B(  0-C , 20-H ) :   0.9664 B(  0-C , 21-H ) :   0.9770 
B(  0-C , 22-H ) :   0.9726 B(  1-C ,  2-O ) :   0.9039 B(  1-C , 23-H ) :   0.9794 
B(  1-C , 24-H ) :   0.9742 B(  2-O ,  3-C ) :   1.1778 B(  3-C ,  4-O ) :   2.0721 
B(  3-C ,  5-C ) :   0.9364 B(  5-C ,  6-C ) :   1.6907 B(  5-C , 12-C ) :   0.9570 
B(  6-C ,  7-C ) :   0.9431 B(  6-C ,  8-N ) :   1.1087 B(  7-C , 25-H ) :   0.9766 
B(  7-C , 26-H ) :   0.9756 B(  7-C , 27-H ) :   0.9641 B(  8-N ,  9-C ) :   1.1903 
B(  8-N , 28-H ) :   0.9513 B(  9-C , 10-S ) :   1.6123 B(  9-C , 11-N ) :   1.2909 
B( 11-N , 12-C ) :   0.9892 B( 11-N , 29-H ) :   0.9494 B( 12-C , 13-C ) :   0.9462 
B( 12-C , 30-H ) :   0.9958 B( 13-C , 14-C ) :   1.3916 B( 13-C , 19-C ) :   1.3446 
B( 14-C , 15-C ) :   1.3978 B( 14-C , 31-H ) :   0.9574 B( 15-C , 16-C ) :   1.3605 
B( 15-C , 32-H ) :   0.9703 B( 16-C , 17-C ) :   1.3295 B( 16-C , 33-H ) :   0.9848 
B( 17-C , 18-O ) :   1.1111 B( 17-C , 19-C ) :   1.3712 B( 18-O , 34-H ) :   0.9797 
B( 19-C , 35-H ) :   0.9575 

-------
TIMINGS
-------

Total SCF time: 0 days 2 hours 11 min 10 sec 

Total time                  ....    7870.315 sec
Sum of individual times     ....    7863.140 sec  ( 99.9%)

Fock matrix formation       ....    7844.166 sec  ( 99.7%)
Diagonalization             ....       1.435 sec  (  0.0%)
Density matrix formation    ....       0.230 sec  (  0.0%)
Population analysis         ....       0.348 sec  (  0.0%)
Initial guess               ....       6.596 sec  (  0.1%)
Orbital Transformation      ....       0.000 sec  (  0.0%)
Orbital Orthonormalization  ....       0.000 sec  (  0.0%)
DIIS solution               ....       5.060 sec  (  0.1%)
SOSCF solution              ....       3.796 sec  (  0.0%)

Maximum memory used throughout the entire SCF-calculation: 762.8 MB

------------------------------------------------------------------------------
                                ORCA  MP2 
------------------------------------------------------------------------------

Freezing NCore=48 chemical core electrons

-------------
RI-MP2 ENERGY
-------------
Dimension of the basis                    ...  828
Memory devoted to MP2                     ...  256 MB   
Data format for buffers                   ... DOUBLE
Compression type for matrix containers    ... UNCOMPRESSED
Overall scaling of the MP2 energy         ...   1.000e+00
Calculating two index integrals           ... done (    0.042 sec)
Cholesky decomposition of V**-1           ... done (    0.556 sec)

-----------------
RI-TRANSFORMATION (AUX index driven)
-----------------

Dimension of the orbital-basis         ... 828
Dimension of the aux-basis             ... 2141
Transformation of internal/external MOs...   24-  76 to   77- 827
Number Format for Storage              ... Double (8 Byte)
Integral mode                          ... Direct

First Phase: integral generation and transformation of MO indices
  Aux angular momentum 0               ... done (    5.768 sec)
  Aux angular momentum 1               ... done (    9.156 sec)
  Aux angular momentum 2               ... done (   11.698 sec)
  Aux angular momentum 3               ... done (    9.150 sec)
  Aux angular momentum 4               ... done (    3.331 sec)
Closing buffer VIA ( 0.63 GB; CompressionRatio= 1.00)
  Phase 1 completed in    39.561 sec
Second Phase: sorting and transformation of aux index

IA-Transformation
Memory available                       ... 156 MB 
Max. # MO pairs treated in a batch     ... 11    
# of internal orbitals                 ... 53
# batches for internal orbitals        ... 5
Closing buffer IAV ( 0.63 GB; CompressionRatio= 1.00)
(ia|v) transformation done in    44.455 sec

  Phase 2 completed in    44.471 sec
RI-Integral transformation completed in    84.038 sec
Opening buffers                              ... done

Starting loop over batches of integrals:

Operator 0  - window                       ... ( 24- 76)x( 77-827)
Operator 0  - Memory available             ...   256 MB
Operator 0  - Memory needed per MO         ...  12.3 MB
Operator 0  - Number of orbitals per batch ... 13
Operator 0  - Number of batches            ... 5

OPERATOR  0   PASS   0:  MOs    24 ...   36
  Reading integrals       ... ok
  Internal MO  26
  Internal MO  29
  Internal MO  32
  Internal MO  35
OPERATOR  0   PASS   1:  MOs    37 ...   49
  Reading integrals       ... ok
  Internal MO  38
  Internal MO  41
  Internal MO  44
  Internal MO  47
OPERATOR  0   PASS   2:  MOs    50 ...   62
  Reading integrals       ... ok
  Internal MO  50
  Internal MO  53
  Internal MO  56
  Internal MO  59
  Internal MO  62
OPERATOR  0   PASS   3:  MOs    63 ...   75
  Reading integrals       ... ok
  Internal MO  65
  Internal MO  68
  Internal MO  71
  Internal MO  74
OPERATOR  0   PASS   4:  MOs    76 ...   76
  Reading integrals       ... ok
Time spent in pair loops =   143.544 sec
Deleting buffer (Ka|jb)[aa] ...done

-----------------------------------------------
 RI-MP2 CORRELATION ENERGY:     -3.542390805 Eh
-----------------------------------------------


-------
TIMINGS
-------

Total time                :  228.285 sec
Integral trafo            :   84.059 sec ( 36.8%)
I/O of integrals          :    5.603 sec (  2.5%)
K(i,j) Operators          :   67.464 sec ( 29.6%)
T(i,j) pair energies      :   10.083 sec (  4.4%)
V-calculation             :    0.042 sec (  0.0%)
V**(-1/2)                 :    0.556 sec (  0.2%)
Gamma(ia|P)               :    0.000 sec (  0.0%)
Gamma-Trafo               :    0.000 sec (  0.0%)
D(virtual)                :    0.000 sec (  0.0%)
D(internal)               :    0.000 sec (  0.0%)
W(virtual)                :    0.000 sec (  0.0%)
W(internal)               :    0.000 sec (  0.0%)
L(virtual)                :    0.000 sec (  0.0%)
L(internal)               :    0.000 sec (  0.0%)
G(D)                      :    0.000 sec (  0.0%)
G(Z)                      :    0.000 sec (  0.0%)
Z-Vector Solution         :    0.000 sec (  0.0%)
3-Index Derivative        :    0.000 sec (  0.0%)
2-Index Derivative        :    0.000 sec (  0.0%)
Separable Gradient        :    0.000 sec (  0.0%)


---------------------------------------
MP2 TOTAL ENERGY:    -1274.328254388 Eh
---------------------------------------

Maximum memory used throughout the entire MP2-calculation: 306.1 MB

-------------------------   --------------------
FINAL SINGLE POINT ENERGY     -1274.328254387842
-------------------------   --------------------


                            ***************************************
                            *     ORCA property calculations      *
                            ***************************************


  WARNING: The energy has been calculated at the MP2 level but the densities
           used in the property calculations are still SCF densities
           MP2 response densities have not been calculated 
           use %mp2 Density relaxed end
           or  %mp2 Density unrelaxed end

                                    ---------------------
                                    Active property flags
                                    ---------------------
   (+) Dipole Moment


------------------------------------------------------------------------------
                       ORCA ELECTRIC PROPERTIES CALCULATION
------------------------------------------------------------------------------

Dipole Moment Calculation                       ... on
Quadrupole Moment Calculation                   ... off
Polarizability Calculation                      ... off
GBWName                                         ... CONFS/Conf449.orca.gbw
Electron density file                           ... CONFS/Conf449.orca.scfp
The origin for moment calculation is the CENTER OF MASS  = (32.770051, 31.291744 35.230953)

-------------
DIPOLE MOMENT
-------------
                                X             Y             Z
Electronic contribution:      9.48770       5.92724       6.36238
Nuclear contribution   :    -11.11663      -6.92336      -6.93230
                        -----------------------------------------
Total Dipole Moment    :     -1.62893      -0.99612      -0.56992
                        -----------------------------------------
Magnitude (a.u.)       :      1.99260
Magnitude (Debye)      :      5.06480



--------------------
Rotational spectrum 
--------------------
 
Rotational constants in cm-1:     0.011513     0.009705     0.006816 
Rotational constants in MHz :   345.154584   290.934763   204.348137 

 Dipole components along the rotational axes: 
x,y,z [a.u.] :    -1.032037    -0.978479     1.395690 
x,y,z [Debye]:    -2.623230    -2.487097     3.547562 

 

Timings for individual modules:

Sum of individual times         ...     8103.810 sec (= 135.063 min)
GTO integral calculation        ...        4.026 sec (=   0.067 min)   0.0 %
SCF iterations                  ...     7870.416 sec (= 131.174 min)  97.1 %
MP2 module                      ...      229.367 sec (=   3.823 min)   2.8 %
                             ****ORCA TERMINATED NORMALLY****
TOTAL RUN TIME: 0 days 2 hours 15 minutes 5 seconds 848 msec
