
                                        *****************
                                        * O   R   C   A *
                                        *****************

                                            #,                                       
                                            ###                                      
                                            ####                                     
                                            #####                                    
                                            ######                                   
                                           ########,                                 
                                     ,,################,,,,,                         
                               ,,#################################,,                 
                          ,,##########################################,,             
                       ,#########################################, ''#####,          
                    ,#############################################,,   '####,        
                  ,##################################################,,,,####,       
                ,###########''''           ''''###############################       
              ,#####''   ,,,,##########,,,,          '''####'''          '####       
            ,##' ,,,,###########################,,,                        '##       
           ' ,,###''''                  '''############,,,                           
         ,,##''                                '''############,,,,        ,,,,,,###''
      ,#''                                            '''#######################'''  
     '                                                          ''''####''''         
             ,#######,   #######,   ,#######,      ##                                
            ,#'     '#,  ##    ##  ,#'     '#,    #''#        ######   ,####,        
            ##       ##  ##   ,#'  ##            #'  '#       #        #'  '#        
            ##       ##  #######   ##           ,######,      #####,   #    #        
            '#,     ,#'  ##    ##  '#,     ,#' ,#      #,         ##   #,  ,#        
             '#######'   ##     ##  '#######'  #'      '#     #####' # '####'        



                  #######################################################
                  #                        -***-                        #
                  #          Department of theory and spectroscopy      #
                  #    Directorship and core code : Frank Neese         #
                  #        Max Planck Institute fuer Kohlenforschung    #
                  #                Kaiser Wilhelm Platz 1               #
                  #                 D-45470 Muelheim/Ruhr               #
                  #                      Germany                        #
                  #                                                     #
                  #                  All rights reserved                #
                  #                        -***-                        #
                  #######################################################


                         Program Version 5.0.0 -  RELEASE  -
                                (SVN: $Rev: 19529$)
                ($Date: 2021-06-28 11:36:33 +0200 (Mo, 28 Jun 2021) $)


 With contributions from (in alphabetic order):
   Daniel Aravena         : Magnetic Suceptibility
   Michael Atanasov       : Ab Initio Ligand Field Theory (pilot matlab implementation)
   Alexander A. Auer      : GIAO ZORA, VPT2 properties, NMR spectrum
   Ute Becker             : Parallelization
   Giovanni Bistoni       : ED, misc. LED, open-shell LED, HFLD
   Martin Brehm           : Molecular dynamics
   Dmytro Bykov           : SCF Hessian
   Vijay G. Chilkuri      : MRCI spin determinant printing, contributions to CSF-ICE
   Dipayan Datta          : RHF DLPNO-CCSD density
   Achintya Kumar Dutta   : EOM-CC, STEOM-CC
   Dmitry Ganyushin       : Spin-Orbit,Spin-Spin,Magnetic field MRCI
   Miquel Garcia          : C-PCM Hessian, Gaussian charge scheme
   Yang Guo               : DLPNO-NEVPT2, F12-NEVPT2, CIM, IAO-localization
   Andreas Hansen         : Spin unrestricted coupled pair/coupled cluster methods
   Benjamin Helmich-Paris : MC-RPA, TRAH-SCF, COSX integrals
   Lee Huntington         : MR-EOM, pCC
   Robert Izsak           : Overlap fitted RIJCOSX, COSX-SCS-MP3, EOM
   Marcus Kettner         : VPT2
   Christian Kollmar      : KDIIS, OOCD, Brueckner-CCSD(T), CCSD density, CASPT2, CASPT2-K
   Simone Kossmann        : Meta GGA functionals, TD-DFT gradient, OOMP2, MP2 Hessian
   Martin Krupicka        : Initial AUTO-CI
   Lucas Lang             : DCDCAS
   Marvin Lechner         : AUTO-CI (C++ implementation), FIC-MRCC
   Dagmar Lenk            : GEPOL surface, SMD
   Dimitrios Liakos       : Extrapolation schemes; Compound Job, initial MDCI parallelization
   Dimitrios Manganas     : Further ROCIS development; embedding schemes
   Dimitrios Pantazis     : SARC Basis sets
   Anastasios Papadopoulos: AUTO-CI, single reference methods and gradients
   Taras Petrenko         : DFT Hessian,TD-DFT gradient, ASA, ECA, R-Raman, ABS, FL, XAS/XES, NRVS
   Peter Pinski           : DLPNO-MP2, DLPNO-MP2 Gradient
   Christoph Reimann      : Effective Core Potentials
   Marius Retegan         : Local ZFS, SOC
   Christoph Riplinger    : Optimizer, TS searches, QM/MM, DLPNO-CCSD(T), (RO)-DLPNO pert. Triples
   Tobias Risthaus        : Range-separated hybrids, TD-DFT gradient, RPA, STAB
   Michael Roemelt        : Original ROCIS implementation
   Masaaki Saitow         : Open-shell DLPNO-CCSD energy and density
   Barbara Sandhoefer     : DKH picture change effects
   Avijit Sen             : IP-ROCIS
   Kantharuban Sivalingam : CASSCF convergence, NEVPT2, FIC-MRCI
   Bernardo de Souza      : ESD, SOC TD-DFT
   Georgi Stoychev        : AutoAux, RI-MP2 NMR
   Willem Van den Heuvel  : Paramagnetic NMR
   Boris Wezisla          : Elementary symmetry handling
   Frank Wennmohs         : Technical directorship


 We gratefully acknowledge several colleagues who have allowed us to
 interface, adapt or use parts of their codes:
   Stefan Grimme, W. Hujo, H. Kruse, P. Pracht,  : VdW corrections, initial TS optimization,
                  C. Bannwarth, S. Ehlert          DFT functionals, gCP, sTDA/sTD-DF
   Ed Valeev, F. Pavosevic, A. Kumar             : LibInt (2-el integral package), F12 methods
   Garnet Chan, S. Sharma, J. Yang, R. Olivares  : DMRG
   Ulf Ekstrom                                   : XCFun DFT Library
   Mihaly Kallay                                 : mrcc  (arbitrary order and MRCC methods)
   Jiri Pittner, Ondrej Demel                    : Mk-CCSD
   Frank Weinhold                                : gennbo (NPA and NBO analysis)
   Christopher J. Cramer and Donald G. Truhlar   : smd solvation model
   Lars Goerigk                                  : TD-DFT with DH, B97 family of functionals
   V. Asgeirsson, H. Jonsson                     : NEB implementation
   FAccTs GmbH                                   : IRC, NEB, NEB-TS, DLPNO-Multilevel, CI-OPT
                                                   MM, QMMM, 2- and 3-layer-ONIOM, Crystal-QMMM,
                                                   LR-CPCM, SF, NACMEs, symmetry and pop. for TD-DFT,
                                                   nearIR, NL-DFT gradient (VV10), updates on ESD,
                                                   ML-optimized integration grids
   S Lehtola, MJT Oliveira, MAL Marques          : LibXC Library
   Liviu Ungur et al                             : ANISO software


 Your calculation uses the libint2 library for the computation of 2-el integrals
 For citations please refer to: http://libint.valeyev.net

 Your ORCA version has been built with support for libXC version: 5.1.0
 For citations please refer to: https://tddft.org/programs/libxc/

 This ORCA versions uses:
   CBLAS   interface :  Fast vector & matrix operations
   LAPACKE interface :  Fast linear algebra routines
   SCALAPACK package :  Parallel linear algebra routines
   Shared memory     :  Shared parallel matrices
   BLAS/LAPACK       :  OpenBLAS 0.3.15  USE64BITINT DYNAMIC_ARCH NO_AFFINITY Zen SINGLE_THREADED
        Core in use  :  Zen
   Copyright (c) 2011-2014, The OpenBLAS Project


================================================================================

----- Orbital basis set information -----
Your calculation utilizes the basis: cc-pVTZ 
       H, B-Ne : Obtained from the ccRepo (grant-hill.group.shef.ac.uk/ccrepo) Feb. 2017
                 T. H. Dunning, Jr., J. Chem. Phys. 90, 1007 (1989)
            He : Obtained from the ccRepo (grant-hill.group.shef.ac.uk/ccrepo) Feb. 2017
                 D. E. Woon, T. H. Dunning, Jr., J. Chem. Phys. 100, 2975 (1994)
  Li-Be, Na-Mg : Obtained from the ccRepo (grant-hill.group.shef.ac.uk/ccrepo) Feb. 2017
                 B. P. Prascher, D. E. Woon, K. A. Peterson, T. H. Dunning, Jr., A. K. Wilson, Theor. Chem. Acc. 128, 69 (2011)
         Al-Ar : Obtained from the ccRepo (grant-hill.group.shef.ac.uk/ccrepo) Feb. 2017
                 D. E. Woon, T. H. Dunning, Jr., J. Chem. Phys. 98, 1358 (1993)
            Ca : Obtained from the Peterson Research Group Website (tyr0.chem.wsu.edu/~kipeters) Feb. 2017
                 J. Koput, K. A. Peterson, J. Phys. Chem. 106, 9595 (2002)
         Sc-Zn : Obtained from the ccRepo (grant-hill.group.shef.ac.uk/ccrepo) Feb. 2017
                 N. B. Balabanov, K. A. Peterson, J. Chem. Phys. 123, 064107 (2005)
                 N. B. Balabanov, K. A. Peterson, J. Chem. Phys. 125, 074110 (2006)
         Ga-Kr : Obtained from the ccRepo (grant-hill.group.shef.ac.uk/ccrepo) Feb. 2017
                 A. K. Wilson, D. E. Woon, K. A. Peterson, T. H. Dunning, Jr., J. Chem. Phys. 110, 7667 (1999)
             Y : Obtained from the ccRepo (grant-hill.group.shef.ac.uk/ccrepo) Feb. 2017
                 K. A. Peterson, D. Figgen, M. Dolg, H. Stoll, J. Chem. Phys. 126, 124101 (2007)
        Ag, Au : Obtained from the Peterson Research Group Website (tyr0.chem.wsu.edu/~kipeters) Feb. 2017
                 K. A. Peterson, C. Puzzarini, Theor. Chem. Acc. 114, 283 (2005)

----- AuxC basis set information -----
Your calculation utilizes the auxiliary basis: cc-pVTZ/C 
  Obtained from the EMSL Basis Set Exchange (bse.pnl.gov) Feb. 2017
  H-He, B-F, Al-Ar, Ga-Kr : F. Weigend, A. Kohn, C. Hattig, J. Chem. Phys. 116, 3175 (2002)
             Li-Be, Na-Mg : C. Haettig, Phys. Chem. Chem. Phys. 7, 59 (2005)
                       Ne : C. Haettig, Phys. Chem. Chem. Phys. 7, 59 (2005)
                            F. Weigend, A. Kohn, C. Hattig, J. Chem. Phys. 116, 3175 (2002)
                    Sc-Zn : J. G. Hill, J. A. Platts, J. Chem. Phys. 128, 044104 (2008)

================================================================================
                                        WARNINGS
                       Please study these warnings very carefully!
================================================================================


WARNING: No MP2 level density has been requested!
         To caclulate MP2 level properties use
         %mp2 Density relaxed end
         or
         %mp2 Density unrelaxed end

WARNING: Post HF methods need fully converged wavefunctions
  ===> : Setting SCFConvForced true
         You can overwrite this default with %scf ConvForced false 


INFO   : the flag for use of the SHARK integral package has been found!

================================================================================
                                       INPUT FILE
================================================================================
NAME = CONFS/Conf266.orca
|  1> ! ri-mp2 cc-pvtz cc-pvtz/c TightSCF NoKeepInts
|  2> 
|  3> %scf
|  4>   MaxCore 4096
|  5> end
|  6> *xyz  0  1
|  7>     C       15.0616040   15.2975402   17.5872104
|  8>     C       15.6188807   15.3724003   16.1548283
|  9>     O       16.9937849   14.9374748   16.1228660
| 10>     C       18.1188928   15.6440716   16.4793247
| 11>     O       19.1914736   15.0690091   16.4630652
| 12>     C       17.9312302   16.8327390   17.3658992
| 13>     C       17.4307635   18.0075461   16.9156739
| 14>     C       17.0175450   18.3464293   15.4991812
| 15>     N       17.3872236   19.1174888   17.7619885
| 16>     C       17.9623451   19.1741926   19.0041353
| 17>     S       17.9357741   20.5564274   19.9111422
| 18>     N       18.5695067   18.0283358   19.4541278
| 19>     C       18.5376040   16.7194185   18.7706835
| 20>     C       17.8454293   15.6538008   19.6207866
| 21>     C       18.2813518   14.3169260   19.5571194
| 22>     C       17.6569286   13.3188784   20.3231460
| 23>     C       16.5862514   13.6577457   21.1668900
| 24>     C       16.1495304   14.9869035   21.2386241
| 25>     O       15.1102292   15.3166021   22.0458829
| 26>     C       16.7730899   15.9790090   20.4750624
| 27>     H       15.4173988   14.3947716   18.1005613
| 28>     H       13.9654606   15.2688747   17.5695786
| 29>     H       15.3572813   16.1757618   18.1699515
| 30>     H       15.0394781   14.6709051   15.5404598
| 31>     H       15.4700959   16.3642166   15.7238739
| 32>     H       17.2310343   17.5335097   14.7943819
| 33>     H       17.5699325   19.2230295   15.1363692
| 34>     H       15.9474229   18.5804679   15.4411468
| 35>     H       16.9707298   19.9770440   17.4399792
| 36>     H       18.9789670   18.0959972   20.3774370
| 37>     H       19.5824252   16.3985195   18.6443078
| 38>     H       19.1054534   14.0469185   18.8999491
| 39>     H       18.0029144   12.2887105   20.2570922
| 40>     H       16.0997729   12.8892888   21.7584713
| 41>     H       14.8420163   14.5131691   22.5167798
| 42>     H       16.4071776   16.9978768   20.5460228
| 43> *
| 44> 
| 45>                          ****END OF INPUT****
================================================================================

                       ****************************
                       * Single Point Calculation *
                       ****************************

---------------------------------
CARTESIAN COORDINATES (ANGSTROEM)
---------------------------------
  C     15.061604   15.297540   17.587210
  C     15.618881   15.372400   16.154828
  O     16.993785   14.937475   16.122866
  C     18.118893   15.644072   16.479325
  O     19.191474   15.069009   16.463065
  C     17.931230   16.832739   17.365899
  C     17.430764   18.007546   16.915674
  C     17.017545   18.346429   15.499181
  N     17.387224   19.117489   17.761988
  C     17.962345   19.174193   19.004135
  S     17.935774   20.556427   19.911142
  N     18.569507   18.028336   19.454128
  C     18.537604   16.719418   18.770684
  C     17.845429   15.653801   19.620787
  C     18.281352   14.316926   19.557119
  C     17.656929   13.318878   20.323146
  C     16.586251   13.657746   21.166890
  C     16.149530   14.986904   21.238624
  O     15.110229   15.316602   22.045883
  C     16.773090   15.979009   20.475062
  H     15.417399   14.394772   18.100561
  H     13.965461   15.268875   17.569579
  H     15.357281   16.175762   18.169951
  H     15.039478   14.670905   15.540460
  H     15.470096   16.364217   15.723874
  H     17.231034   17.533510   14.794382
  H     17.569933   19.223029   15.136369
  H     15.947423   18.580468   15.441147
  H     16.970730   19.977044   17.439979
  H     18.978967   18.095997   20.377437
  H     19.582425   16.398519   18.644308
  H     19.105453   14.046919   18.899949
  H     18.002914   12.288710   20.257092
  H     16.099773   12.889289   21.758471
  H     14.842016   14.513169   22.516780
  H     16.407178   16.997877   20.546023

----------------------------
CARTESIAN COORDINATES (A.U.)
----------------------------
  NO LB      ZA    FRAG     MASS         X           Y           Z
   0 C     6.0000    0    12.011   28.462307   28.908162   33.235011
   1 C     6.0000    0    12.011   29.515407   29.049627   30.528201
   2 O     8.0000    0    15.999   32.113599   28.227737   30.467801
   3 C     6.0000    0    12.011   34.239745   29.563011   31.141411
   4 O     8.0000    0    15.999   36.266629   28.476300   31.110685
   5 C     6.0000    0    12.011   33.885114   31.809267   32.816794
   6 C     6.0000    0    12.011   32.939369   34.029330   31.965991
   7 C     6.0000    0    12.011   32.158500   34.669727   29.289208
   8 N     7.0000    0    14.007   32.857091   36.126818   33.565294
   9 C     6.0000    0    12.011   33.943913   36.233973   35.912611
  10 S    16.0000    0    32.060   33.893701   38.846018   37.626606
  11 N     7.0000    0    14.007   35.091282   34.068617   36.762974
  12 C     6.0000    0    12.011   35.030995   31.595122   35.471451
  13 C     6.0000    0    12.011   33.722974   29.581396   37.077913
  14 C     6.0000    0    12.011   34.546748   27.055069   36.957600
  15 C     6.0000    0    12.011   33.366759   25.169033   38.405180
  16 C     6.0000    0    12.011   31.343473   25.809399   39.999625
  17 C     6.0000    0    12.011   30.518190   28.321143   40.135183
  18 O     8.0000    0    15.999   28.554195   28.944183   41.660681
  19 C     6.0000    0    12.011   31.696546   30.195951   38.692261
  20 H     1.0000    0     1.008   29.134661   27.202176   34.205104
  21 H     1.0000    0     1.008   26.390896   28.853992   33.201692
  22 H     1.0000    0     1.008   29.021056   30.567760   34.336232
  23 H     1.0000    0     1.008   28.420495   27.723993   29.367213
  24 H     1.0000    0     1.008   29.234245   30.923888   29.713815
  25 H     1.0000    0     1.008   32.561936   33.133531   27.957330
  26 H     1.0000    0     1.008   33.202361   36.326261   28.603592
  27 H     1.0000    0     1.008   30.136262   35.111996   29.179539
  28 H     1.0000    0     1.008   32.070032   37.751142   32.956784
  29 H     1.0000    0     1.008   35.865050   34.196479   38.507775
  30 H     1.0000    0     1.008   37.005421   30.988711   35.232636
  31 H     1.0000    0     1.008   36.104075   26.544829   35.715728
  32 H     1.0000    0     1.008   34.020578   23.222297   38.280357
  33 H     1.0000    0     1.008   30.424162   24.357226   41.117552
  34 H     1.0000    0     1.008   28.047346   27.425915   42.550547
  35 H     1.0000    0     1.008   31.005072   32.121332   38.826356

--------------------------------
INTERNAL COORDINATES (ANGSTROEM)
--------------------------------
 C      0   0   0     0.000000000000     0.00000000     0.00000000
 C      1   0   0     1.538791680292     0.00000000     0.00000000
 O      2   1   0     1.442408866566   110.55835595     0.00000000
 C      3   2   1     1.375576108116   128.24390865   280.76773420
 O      4   3   2     1.217123996467   118.33480574   175.30302858
 C      4   3   2     1.494711270885   117.35554319    19.62133782
 C      6   4   3     1.354009402028   122.62764677   284.75841139
 C      7   6   4     1.513949444710   127.31576540   358.38530308
 N      7   6   4     1.396465868666   119.97595213   185.58695773
 C      9   7   6     1.370003187386   124.70072357     8.03568160
 S     10   9   7     1.653463207035   121.68238885   176.60789335
 N     10   9   7     1.372634789256   116.63942283   357.02672333
 C     12  10   9     1.476949014594   125.34916792   353.74235033
 C     13  12  10     1.528830330188   111.72730548   242.51342712
 C     14  13  12     1.407592330626   119.77748992   213.53362225
 C     15  14  13     1.404564023629   120.83231491   180.33570296
 C     16  15  14     1.404665316417   119.67221907   359.81702781
 C     17  16  15     1.400903804779   119.81928505     0.00000000
 O     18  17  16     1.356655785872   119.99101861   179.57807286
 C     18  17  16     1.398615831055   120.40286804     0.00000000
 H      1   2   3     1.097775127876   110.97267316   320.25420462
 H      1   2   3     1.096659903810   110.38259233   200.48132118
 H      1   2   3     1.094662246572   111.01948038    81.46473098
 H      2   1   3     1.097839488405   107.37957940   116.79991512
 H      2   1   3     1.091585170537   111.24375355   233.23121828
 H      8   7   6     1.096885595930   112.46808118   355.82665228
 H      8   7   6     1.097812556013   110.52476278   237.13529551
 H      8   7   6     1.096951852536   111.31663528   117.57052427
 H      9   7   6     1.007964392512   119.80635274   183.15790350
 H     12  10   9     1.012292290364   114.96948499   180.50126716
 H     13  12  10     1.100271932624   106.92447258   125.88871484
 H     15  14  13     1.088081017379   119.83872934   359.70556663
 H     16  15  14     1.088721810421   119.86710744   179.62024410
 H     17  16  15     1.084968097517   119.89548459   179.85753574
 H     19  18  17     0.969116420068   107.43803809     2.93401817
 H     20  18  17     1.084904965210   118.69135453   179.51317652

---------------------------
INTERNAL COORDINATES (A.U.)
---------------------------
 C      0   0   0     0.000000000000     0.00000000     0.00000000
 C      1   0   0     2.907894852908     0.00000000     0.00000000
 O      2   1   0     2.725757730950   110.55835595     0.00000000
 C      3   2   1     2.599462120704   128.24390865   280.76773420
 O      4   3   2     2.300031024346   118.33480574   175.30302858
 C      4   3   2     2.824594951259   117.35554319    19.62133782
 C      6   4   3     2.558706952587   122.62764677   284.75841139
 C      7   6   4     2.860949831104   127.31576540   358.38530308
 N      7   6   4     2.638938047147   119.97595213   185.58695773
 C      9   7   6     2.588930826758   124.70072357     8.03568160
 S     10   9   7     3.124592633812   121.68238885   176.60789335
 N     10   9   7     2.593903833587   116.63942283   357.02672333
 C     12  10   9     2.791029151347   125.34916792   353.74235033
 C     13  12  10     2.889070629288   111.72730548   242.51342712
 C     14  13  12     2.659964013091   119.77748992   213.53362225
 C     15  14  13     2.654241342216   120.83231491   180.33570296
 C     16  15  14     2.654432757846   119.67221907   359.81702781
 C     17  16  15     2.647324531001   119.81928505     0.00000000
 O     18  17  16     2.563707893298   119.99101861   179.57807286
 C     18  17  16     2.643000887260   120.40286804     0.00000000
 H      1   2   3     2.074494348317   110.97267316   320.25420462
 H      1   2   3     2.072386880254   110.38259233   200.48132118
 H      1   2   3     2.068611855165   111.01948038    81.46473098
 H      2   1   3     2.074615972090   107.37957940   116.79991512
 H      2   1   3     2.062797024164   111.24375355   233.23121828
 H      8   7   6     2.072813376551   112.46808118   355.82665228
 H      8   7   6     2.074565077245   110.52476278   237.13529551
 H      8   7   6     2.072938583390   111.31663528   117.57052427
 H      9   7   6     1.904776654592   119.80635274   183.15790350
 H     12  10   9     1.912955196268   114.96948499   180.50126716
 H     13  12  10     2.079212625500   106.92447258   125.88871484
 H     15  14  13     2.056175134365   119.83872934   359.70556663
 H     16  15  14     2.057386057723   119.86710744   179.62024410
 H     17  16  15     2.050292568349   119.89548459   179.85753574
 H     19  18  17     1.831364625814   107.43803809     2.93401817
 H     20  18  17     2.050173265577   118.69135453   179.51317652

---------------------
BASIS SET INFORMATION
---------------------
There are 5 groups of distinct atoms

 Group   1 Type C   : 18s5p2d1f contracted to 4s3p2d1f pattern {8811/311/11/1}
 Group   2 Type O   : 18s5p2d1f contracted to 4s3p2d1f pattern {8811/311/11/1}
 Group   3 Type N   : 18s5p2d1f contracted to 4s3p2d1f pattern {8811/311/11/1}
 Group   4 Type S   : 41s16p2d1f contracted to 5s4p2d1f pattern {13131311/7711/11/1}
 Group   5 Type H   : 5s2p1d contracted to 3s2p1d pattern {311/11/1}

Atom   0C    basis set group =>   1
Atom   1C    basis set group =>   1
Atom   2O    basis set group =>   2
Atom   3C    basis set group =>   1
Atom   4O    basis set group =>   2
Atom   5C    basis set group =>   1
Atom   6C    basis set group =>   1
Atom   7C    basis set group =>   1
Atom   8N    basis set group =>   3
Atom   9C    basis set group =>   1
Atom  10S    basis set group =>   4
Atom  11N    basis set group =>   3
Atom  12C    basis set group =>   1
Atom  13C    basis set group =>   1
Atom  14C    basis set group =>   1
Atom  15C    basis set group =>   1
Atom  16C    basis set group =>   1
Atom  17C    basis set group =>   1
Atom  18O    basis set group =>   2
Atom  19C    basis set group =>   1
Atom  20H    basis set group =>   5
Atom  21H    basis set group =>   5
Atom  22H    basis set group =>   5
Atom  23H    basis set group =>   5
Atom  24H    basis set group =>   5
Atom  25H    basis set group =>   5
Atom  26H    basis set group =>   5
Atom  27H    basis set group =>   5
Atom  28H    basis set group =>   5
Atom  29H    basis set group =>   5
Atom  30H    basis set group =>   5
Atom  31H    basis set group =>   5
Atom  32H    basis set group =>   5
Atom  33H    basis set group =>   5
Atom  34H    basis set group =>   5
Atom  35H    basis set group =>   5
---------------------------------
AUXILIARY/C BASIS SET INFORMATION
---------------------------------
There are 5 groups of distinct atoms

 Group   1 Type C   : 8s6p5d3f1g contracted to 8s6p5d3f1g pattern {11111111/111111/11111/111/1}
 Group   2 Type O   : 8s6p5d3f1g contracted to 8s6p5d3f1g pattern {11111111/111111/11111/111/1}
 Group   3 Type N   : 8s6p5d3f1g contracted to 8s6p5d3f1g pattern {11111111/111111/11111/111/1}
 Group   4 Type S   : 10s8p7d5f2g contracted to 10s8p7d5f2g pattern {1111111111/11111111/1111111/11111/11}
 Group   5 Type H   : 4s3p2d1f contracted to 4s3p2d1f pattern {1111/111/11/1}

Atom   0C    basis set group =>   1
Atom   1C    basis set group =>   1
Atom   2O    basis set group =>   2
Atom   3C    basis set group =>   1
Atom   4O    basis set group =>   2
Atom   5C    basis set group =>   1
Atom   6C    basis set group =>   1
Atom   7C    basis set group =>   1
Atom   8N    basis set group =>   3
Atom   9C    basis set group =>   1
Atom  10S    basis set group =>   4
Atom  11N    basis set group =>   3
Atom  12C    basis set group =>   1
Atom  13C    basis set group =>   1
Atom  14C    basis set group =>   1
Atom  15C    basis set group =>   1
Atom  16C    basis set group =>   1
Atom  17C    basis set group =>   1
Atom  18O    basis set group =>   2
Atom  19C    basis set group =>   1
Atom  20H    basis set group =>   5
Atom  21H    basis set group =>   5
Atom  22H    basis set group =>   5
Atom  23H    basis set group =>   5
Atom  24H    basis set group =>   5
Atom  25H    basis set group =>   5
Atom  26H    basis set group =>   5
Atom  27H    basis set group =>   5
Atom  28H    basis set group =>   5
Atom  29H    basis set group =>   5
Atom  30H    basis set group =>   5
Atom  31H    basis set group =>   5
Atom  32H    basis set group =>   5
Atom  33H    basis set group =>   5
Atom  34H    basis set group =>   5
Atom  35H    basis set group =>   5
------------------------------------------------------------------------------
                           ORCA GTO INTEGRAL CALCULATION
------------------------------------------------------------------------------
------------------------------------------------------------------------------
                   ___                                                        
                  /   \      - P O W E R E D   B Y -                         
                 /     \                                                     
                 |  |  |   _    _      __       _____    __    __             
                 |  |  |  | |  | |    /  \     |  _  \  |  |  /  |          
                  \  \/   | |  | |   /    \    | | | |  |  | /  /          
                 / \  \   | |__| |  /  /\  \   | |_| |  |  |/  /          
                |  |  |   |  __  | /  /__\  \  |    /   |      \           
                |  |  |   | |  | | |   __   |  |    \   |  |\   \          
                \     /   | |  | | |  |  |  |  | |\  \  |  | \   \       
                 \___/    |_|  |_| |__|  |__|  |_| \__\ |__|  \__/        
                                                                              
                      - O R C A' S   B I G   F R I E N D -                    
                                      &                                       
                       - I N T E G R A L  F E E D E R -                       
                                                                              
 v1 FN, 2020, v2 2021                                                         
------------------------------------------------------------------------------


Reading SHARK input file CONFS/Conf266.orca.SHARKINP.tmp ... ok
----------------------
SHARK INTEGRAL PACKAGE
----------------------

Number of atoms                             ...     36
Number of basis functions                   ...    828
Number of shells                            ...    298
Maximum angular momentum                    ...      3
Integral batch strategy                     ... SHARK/LIBINT Hybrid
RI-J (if used) integral strategy            ... SPLIT-RIJ (Revised 2003 algorithm where possible)
Printlevel                                  ...      1
Contraction scheme used                     ... SEGMENTED contraction
Coulomb Range Separation                    ... NOT USED
Exchange Range Separation                   ... NOT USED
Finite Nucleus Model                        ... NOT USED
Auxiliary Coulomb fitting basis             ... NOT available
Auxiliary J/K fitting basis                 ... NOT available
Auxiliary Correlation fitting basis         ... AVAILABLE
   # of basis functions in Aux-C            ...   2141
   # of shells in Aux-C                     ...    629
   Maximum angular momentum in Aux-C        ...      4
Auxiliary 'external' fitting basis          ... NOT available
Integral threshold                          ...     2.500000e-11
Primitive cut-off                           ...     2.500000e-12
Primitive pair pre-selection threshold      ...     2.500000e-12

Calculating pre-screening integrals         ... done (  0.5 sec) Dimension = 298
Organizing shell pair data                  ... done (  1.2 sec)
Shell pair information
Total number of shell pairs                 ...     44551
Shell pairs after pre-screening             ...     34861
Total number of primitive shell pairs       ...    234348
Primitive shell pairs kept                  ...     99529
          la=0 lb=0:   6912 shell pairs
          la=1 lb=0:   9666 shell pairs
          la=1 lb=1:   3426 shell pairs
          la=2 lb=0:   5553 shell pairs
          la=2 lb=1:   3839 shell pairs
          la=2 lb=2:   1096 shell pairs
          la=3 lb=0:   2027 shell pairs
          la=3 lb=1:   1395 shell pairs
          la=3 lb=2:    793 shell pairs
          la=3 lb=3:    154 shell pairs

Calculating one electron integrals          ... done (  0.4 sec)
Calculating RI/C V-Matrix + Cholesky decomp.... done (  0.8 sec)
Calculating Nuclear repulsion               ... done (  0.1 sec) ENN=   1736.326610916464 Eh

SHARK setup successfully completed in   3.7 seconds

Maximum memory used throughout the entire GTOINT-calculation: 521.1 MB
-------------------------------------------------------------------------------
                                 ORCA SCF
-------------------------------------------------------------------------------

------------
SCF SETTINGS
------------
Hamiltonian:
 Ab initio Hamiltonian  Method          .... Hartree-Fock(GTOs)


General Settings:
 Integral files         IntName         .... CONFS/Conf266.orca
 Hartree-Fock type      HFTyp           .... RHF
 Total Charge           Charge          ....    0
 Multiplicity           Mult            ....    1
 Number of Electrons    NEL             ....  154
 Basis Dimension        Dim             ....  828
 Nuclear Repulsion      ENuc            ....   1736.3266109165 Eh

Convergence Acceleration:
 DIIS                   CNVDIIS         .... on
   Start iteration      DIISMaxIt       ....    12
   Startup error        DIISStart       ....  0.200000
   # of expansion vecs  DIISMaxEq       ....     5
   Bias factor          DIISBfac        ....   1.050
   Max. coefficient     DIISMaxC        ....  10.000
 Trust-Rad. Augm. Hess. CNVTRAH         .... auto
   Auto Start mean grad. ratio tolernc. ....  1.125000
   Auto Start start iteration           ....    20
   Auto Start num. interpolation iter.  ....    10
   Max. Number of Micro iterations      ....    16
   Max. Number of Macro iterations      .... Maxiter - #DIIS iter
   Number of Davidson start vectors     ....     2
   Converg. threshold I  (grad. norm)   ....   1.000e-05
   Converg. threshold II (energy diff.) ....   1.000e-08
   Grad. Scal. Fac. for Micro threshold ....   0.100
   Minimum threshold for Micro iter.    ....   0.010
   NR start threshold (gradient norm)   ....   0.001
   Initial trust radius                 ....   0.400
   Minimum AH scaling param. (alpha)    ....   1.000
   Maximum AH scaling param. (alpha)    .... 1000.000
   Orbital update algorithm             .... Taylor
   White noise on init. David. guess    .... on
   Maximum white noise                  ....   0.010
   Quad. conv. algorithm                .... NR
 SOSCF                  CNVSOSCF        .... on
   Start iteration      SOSCFMaxIt      ....   150
   Startup grad/error   SOSCFStart      ....  0.003300
 Level Shifting         CNVShift        .... on
   Level shift para.    LevelShift      ....    0.2500
   Turn off err/grad.   ShiftErr        ....    0.0010
 Zerner damping         CNVZerner       .... off
 Static damping         CNVDamp         .... on
   Fraction old density DampFac         ....    0.7000
   Max. Damping (<1)    DampMax         ....    0.9800
   Min. Damping (>=0)   DampMin         ....    0.0000
   Turn off err/grad.   DampErr         ....    0.1000
 Fernandez-Rico         CNVRico         .... off

SCF Procedure:
 Maximum # iterations   MaxIter         ....   125
 SCF integral mode      SCFMode         .... Direct
   Integral package                     .... SHARK and LIBINT hybrid scheme
 Reset frequency        DirectResetFreq ....    20
 Integral Threshold     Thresh          ....  2.500e-11 Eh
 Primitive CutOff       TCut            ....  2.500e-12 Eh

Convergence Tolerance:
 Convergence Check Mode ConvCheckMode   .... Total+1el-Energy
 Convergence forced     ConvForced      .... 1
 Energy Change          TolE            ....  1.000e-08 Eh
 1-El. energy change                    ....  1.000e-05 Eh
 Orbital Gradient       TolG            ....  1.000e-05
 Orbital Rotation angle TolX            ....  1.000e-05
 DIIS Error             TolErr          ....  5.000e-07


Diagonalization of the overlap matrix:
Smallest eigenvalue                        ... 3.205e-05
Time for diagonalization                   ...    0.106 sec
Threshold for overlap eigenvalues          ... 1.000e-08
Number of eigenvalues below threshold      ... 0
Time for construction of square roots      ...    0.222 sec
Total time needed                          ...    0.329 sec

Time for model grid setup =    1.305 sec

------------------------------
INITIAL GUESS: MODEL POTENTIAL
------------------------------
Loading Hartree-Fock densities                     ... done
Calculating cut-offs                               ... done
Initializing the effective Hamiltonian             ... done
Setting up the integral package (SHARK)            ... done
Starting the Coulomb interaction                   ... done (   4.3 sec)
Reading the grid                                   ... done
Mapping shells                                     ... done
Starting the XC term evaluation                    ... done (   1.3 sec)
Transforming the Hamiltonian                       ... done (   0.1 sec)
Diagonalizing the Hamiltonian                      ... done (   0.1 sec)
Back transforming the eigenvectors                 ... done (   0.0 sec)
Now organizing SCF variables                       ... done
                      ------------------
                      INITIAL GUESS DONE (   7.2 sec)
                      ------------------
--------------
SCF ITERATIONS
--------------
ITER       Energy         Delta-E        Max-DP      RMS-DP      [F,P]     Damp
               ***  Starting incremental Fock matrix formation  ***
  0  -1269.9901071146   0.000000000000 0.04931228  0.00045018  0.3165016 0.7000
  1  -1270.2565625090  -0.266455394441 0.03609664  0.00036593  0.1871669 0.7000
                               ***Turning on DIIS***
  2  -1270.4225058827  -0.165943373723 0.02586283  0.00024324  0.1097973 0.7000
  3  -1272.5454619753  -2.122956092543 0.06326042  0.00052064  0.0829713 0.0000
  4  -1270.7349963560   1.810465619286 0.01206245  0.00010359  0.0069731 0.0000
  5  -1270.7890797554  -0.054083399447 0.00500210  0.00005359  0.0038574 0.0000
                      *** Initiating the SOSCF procedure ***
                           *** Shutting down DIIS ***
                      *** Re-Reading the Fockian *** 
                      *** Removing any level shift *** 
ITER      Energy       Delta-E        Grad      Rot      Max-DP    RMS-DP
  6  -1270.76821773   0.0208620228  0.001379  0.001379  0.002384  0.000027
               *** Restarting incremental Fock matrix formation ***
  7  -1270.78326389  -0.0150461535  0.000698  0.001723  0.001325  0.000018
  8  -1270.78330866  -0.0000447709  0.000401  0.001986  0.001464  0.000019
  9  -1270.78332610  -0.0000174470  0.000126  0.000244  0.000405  0.000005
 10  -1270.78332834  -0.0000022316  0.000031  0.000086  0.000128  0.000001
 11  -1270.78332854  -0.0000002026  0.000016  0.000086  0.000071  0.000001
 12  -1270.78332859  -0.0000000550  0.000008  0.000027  0.000029  0.000000
 13  -1270.78332860  -0.0000000067  0.000003  0.000009  0.000006  0.000000
                  ***Gradient check signals convergence***
              ***Rediagonalizing the Fockian in SOSCF/NRSCF***

               *****************************************************
               *                     SUCCESS                       *
               *           SCF CONVERGED AFTER  14 CYCLES          *
               *****************************************************


----------------
TOTAL SCF ENERGY
----------------

Total Energy       :        -1270.78332859 Eh          -34579.77237 eV

Components:
Nuclear Repulsion  :         1736.32661092 Eh           47247.84912 eV
Electronic Energy  :        -3007.10993951 Eh          -81827.62149 eV
One Electron Energy:        -5193.35628245 Eh         -141318.40893 eV
Two Electron Energy:         2186.24634294 Eh           59490.78744 eV

Virial components:
Potential Energy   :        -2539.76668521 Eh          -69110.56502 eV
Kinetic Energy     :         1268.98335662 Eh           34530.79265 eV
Virial Ratio       :            2.00141844


---------------
SCF CONVERGENCE
---------------

  Last Energy change         ...    8.6552e-09  Tolerance :   1.0000e-08
  Last MAX-Density change    ...    3.5391e-06  Tolerance :   1.0000e-07
  Last RMS-Density change    ...    3.7463e-08  Tolerance :   5.0000e-09
  Last Orbital Gradient      ...    1.6647e-06  Tolerance :   1.0000e-05
  Last Orbital Rotation      ...    4.3987e-06  Tolerance :   1.0000e-05

             **** THE GBW FILE WAS UPDATED (CONFS/Conf266.orca.gbw) ****
             **** DENSITY CONFS/Conf266.orca.scfp WAS UPDATED ****
             **** ENERGY FILE WAS UPDATED (CONFS/Conf266.orca.en.tmp) ****
             **** THE GBW FILE WAS UPDATED (CONFS/Conf266.orca.gbw) ****
             **** DENSITY CONFS/Conf266.orca.scfp WAS UPDATED ****
----------------
ORBITAL ENERGIES
----------------

  NO   OCC          E(Eh)            E(eV) 
   0   2.0000     -91.890224     -2500.4601 
   1   2.0000     -20.601435      -560.5935 
   2   2.0000     -20.597215      -560.4787 
   3   2.0000     -20.551029      -559.2219 
   4   2.0000     -15.627149      -425.2364 
   5   2.0000     -15.611541      -424.8116 
   6   2.0000     -11.400774      -310.2308 
   7   2.0000     -11.386832      -309.8515 
   8   2.0000     -11.330595      -308.3212 
   9   2.0000     -11.315676      -307.9152 
  10   2.0000     -11.313779      -307.8636 
  11   2.0000     -11.306839      -307.6747 
  12   2.0000     -11.272658      -306.7446 
  13   2.0000     -11.268549      -306.6328 
  14   2.0000     -11.262140      -306.4584 
  15   2.0000     -11.254243      -306.2435 
  16   2.0000     -11.243483      -305.9507 
  17   2.0000     -11.239131      -305.8323 
  18   2.0000     -11.235822      -305.7422 
  19   2.0000     -11.226869      -305.4986 
  20   2.0000      -8.895339      -242.0545 
  21   2.0000      -6.576931      -178.9674 
  22   2.0000      -6.574900      -178.9121 
  23   2.0000      -6.574327      -178.8965 
  24   2.0000      -1.448165       -39.4066 
  25   2.0000      -1.417038       -38.5596 
  26   2.0000      -1.359490       -36.9936 
  27   2.0000      -1.341067       -36.4923 
  28   2.0000      -1.240498       -33.7557 
  29   2.0000      -1.158681       -31.5293 
  30   2.0000      -1.125491       -30.6262 
  31   2.0000      -1.047976       -28.5169 
  32   2.0000      -1.038594       -28.2616 
  33   2.0000      -1.017220       -27.6800 
  34   2.0000      -1.005835       -27.3702 
  35   2.0000      -0.990083       -26.9415 
  36   2.0000      -0.927958       -25.2510 
  37   2.0000      -0.893875       -24.3236 
  38   2.0000      -0.855348       -23.2752 
  39   2.0000      -0.840664       -22.8756 
  40   2.0000      -0.834007       -22.6945 
  41   2.0000      -0.831239       -22.6192 
  42   2.0000      -0.751383       -20.4462 
  43   2.0000      -0.740623       -20.1534 
  44   2.0000      -0.730339       -19.8735 
  45   2.0000      -0.695257       -18.9189 
  46   2.0000      -0.687734       -18.7142 
  47   2.0000      -0.680492       -18.5171 
  48   2.0000      -0.675649       -18.3853 
  49   2.0000      -0.663846       -18.0642 
  50   2.0000      -0.652609       -17.7584 
  51   2.0000      -0.642315       -17.4783 
  52   2.0000      -0.639444       -17.4002 
  53   2.0000      -0.619804       -16.8657 
  54   2.0000      -0.611672       -16.6445 
  55   2.0000      -0.605966       -16.4892 
  56   2.0000      -0.601482       -16.3672 
  57   2.0000      -0.590817       -16.0769 
  58   2.0000      -0.578920       -15.7532 
  59   2.0000      -0.571465       -15.5504 
  60   2.0000      -0.565739       -15.3945 
  61   2.0000      -0.556578       -15.1453 
  62   2.0000      -0.537792       -14.6341 
  63   2.0000      -0.533024       -14.5043 
  64   2.0000      -0.517660       -14.0862 
  65   2.0000      -0.512418       -13.9436 
  66   2.0000      -0.504538       -13.7292 
  67   2.0000      -0.501220       -13.6389 
  68   2.0000      -0.483514       -13.1571 
  69   2.0000      -0.465805       -12.6752 
  70   2.0000      -0.454426       -12.3656 
  71   2.0000      -0.450935       -12.2706 
  72   2.0000      -0.358242        -9.7483 
  73   2.0000      -0.347817        -9.4646 
  74   2.0000      -0.329912        -8.9773 
  75   2.0000      -0.322652        -8.7798 
  76   2.0000      -0.318982        -8.6799 
  77   0.0000       0.086594         2.3563 
  78   0.0000       0.106776         2.9055 
  79   0.0000       0.111030         3.0213 
  80   0.0000       0.129466         3.5230 
  81   0.0000       0.131200         3.5701 
  82   0.0000       0.144923         3.9435 
  83   0.0000       0.147915         4.0250 
  84   0.0000       0.150684         4.1003 
  85   0.0000       0.159521         4.3408 
  86   0.0000       0.166866         4.5407 
  87   0.0000       0.174714         4.7542 
  88   0.0000       0.183234         4.9861 
  89   0.0000       0.193932         5.2772 
  90   0.0000       0.196211         5.3392 
  91   0.0000       0.204928         5.5764 
  92   0.0000       0.209215         5.6930 
  93   0.0000       0.218267         5.9393 
  94   0.0000       0.223521         6.0823 
  95   0.0000       0.235609         6.4113 
  96   0.0000       0.242977         6.6117 
  97   0.0000       0.248676         6.7668 
  98   0.0000       0.262015         7.1298 
  99   0.0000       0.280595         7.6354 
 100   0.0000       0.285066         7.7570 
 101   0.0000       0.293948         7.9987 
 102   0.0000       0.308800         8.4029 
 103   0.0000       0.315540         8.5863 
 104   0.0000       0.329397         8.9633 
 105   0.0000       0.334280         9.0962 
 106   0.0000       0.344637         9.3780 
 107   0.0000       0.350335         9.5331 
 108   0.0000       0.352702         9.5975 
 109   0.0000       0.362169         9.8551 
 110   0.0000       0.371439        10.1074 
 111   0.0000       0.376838        10.2543 
 112   0.0000       0.381539        10.3822 
 113   0.0000       0.395727        10.7683 
 114   0.0000       0.402466        10.9517 
 115   0.0000       0.409900        11.1540 
 116   0.0000       0.419685        11.4202 
 117   0.0000       0.426338        11.6012 
 118   0.0000       0.430570        11.7164 
 119   0.0000       0.440325        11.9819 
 120   0.0000       0.443191        12.0598 
 121   0.0000       0.449277        12.2254 
 122   0.0000       0.452567        12.3150 
 123   0.0000       0.459722        12.5097 
 124   0.0000       0.470958        12.8154 
 125   0.0000       0.472438        12.8557 
 126   0.0000       0.483965        13.1694 
 127   0.0000       0.486782        13.2460 
 128   0.0000       0.494415        13.4537 
 129   0.0000       0.502597        13.6764 
 130   0.0000       0.509167        13.8551 
 131   0.0000       0.512387        13.9427 
 132   0.0000       0.513674        13.9778 
 133   0.0000       0.516697        14.0600 
 134   0.0000       0.528211        14.3734 
 135   0.0000       0.530672        14.4403 
 136   0.0000       0.534253        14.5378 
 137   0.0000       0.536551        14.6003 
 138   0.0000       0.540327        14.7030 
 139   0.0000       0.549013        14.9394 
 140   0.0000       0.553944        15.0736 
 141   0.0000       0.559016        15.2116 
 142   0.0000       0.561622        15.2825 
 143   0.0000       0.570285        15.5182 
 144   0.0000       0.576616        15.6905 
 145   0.0000       0.582685        15.8557 
 146   0.0000       0.583604        15.8807 
 147   0.0000       0.591383        16.0924 
 148   0.0000       0.593061        16.1380 
 149   0.0000       0.599940        16.3252 
 150   0.0000       0.601709        16.3733 
 151   0.0000       0.605359        16.4726 
 152   0.0000       0.608558        16.5597 
 153   0.0000       0.616373        16.7724 
 154   0.0000       0.617461        16.8020 
 155   0.0000       0.622476        16.9384 
 156   0.0000       0.628512        17.1027 
 157   0.0000       0.632848        17.2207 
 158   0.0000       0.637270        17.3410 
 159   0.0000       0.649806        17.6821 
 160   0.0000       0.653732        17.7889 
 161   0.0000       0.656763        17.8714 
 162   0.0000       0.658864        17.9286 
 163   0.0000       0.665387        18.1061 
 164   0.0000       0.671756        18.2794 
 165   0.0000       0.676990        18.4218 
 166   0.0000       0.682816        18.5804 
 167   0.0000       0.687663        18.7123 
 168   0.0000       0.697644        18.9839 
 169   0.0000       0.702945        19.1281 
 170   0.0000       0.706203        19.2168 
 171   0.0000       0.710200        19.3255 
 172   0.0000       0.721059        19.6210 
 173   0.0000       0.728106        19.8128 
 174   0.0000       0.734107        19.9761 
 175   0.0000       0.740462        20.1490 
 176   0.0000       0.747333        20.3360 
 177   0.0000       0.752052        20.4644 
 178   0.0000       0.757207        20.6046 
 179   0.0000       0.769099        20.9282 
 180   0.0000       0.773598        21.0507 
 181   0.0000       0.780633        21.2421 
 182   0.0000       0.788492        21.4560 
 183   0.0000       0.797931        21.7128 
 184   0.0000       0.805136        21.9089 
 185   0.0000       0.809694        22.0329 
 186   0.0000       0.818502        22.2726 
 187   0.0000       0.831008        22.6129 
 188   0.0000       0.839137        22.8341 
 189   0.0000       0.851200        23.1623 
 190   0.0000       0.854601        23.2549 
 191   0.0000       0.860241        23.4083 
 192   0.0000       0.865743        23.5581 
 193   0.0000       0.871379        23.7114 
 194   0.0000       0.876907        23.8619 
 195   0.0000       0.886563        24.1246 
 196   0.0000       0.892425        24.2841 
 197   0.0000       0.904004        24.5992 
 198   0.0000       0.909705        24.7543 
 199   0.0000       0.914197        24.8766 
 200   0.0000       0.917407        24.9639 
 201   0.0000       0.926477        25.2107 
 202   0.0000       0.935742        25.4628 
 203   0.0000       0.943300        25.6685 
 204   0.0000       0.947804        25.7911 
 205   0.0000       0.959050        26.0971 
 206   0.0000       0.974399        26.5147 
 207   0.0000       0.977484        26.5987 
 208   0.0000       0.980248        26.6739 
 209   0.0000       0.983741        26.7689 
 210   0.0000       0.990630        26.9564 
 211   0.0000       0.996398        27.1134 
 212   0.0000       1.005839        27.3703 
 213   0.0000       1.008844        27.4520 
 214   0.0000       1.016220        27.6528 
 215   0.0000       1.021500        27.7964 
 216   0.0000       1.026090        27.9213 
 217   0.0000       1.029677        28.0189 
 218   0.0000       1.043228        28.3877 
 219   0.0000       1.050485        28.5851 
 220   0.0000       1.052789        28.6479 
 221   0.0000       1.065093        28.9827 
 222   0.0000       1.073618        29.2146 
 223   0.0000       1.077510        29.3205 
 224   0.0000       1.082362        29.4526 
 225   0.0000       1.090987        29.6873 
 226   0.0000       1.101901        29.9843 
 227   0.0000       1.106036        30.0968 
 228   0.0000       1.108903        30.1748 
 229   0.0000       1.117245        30.4018 
 230   0.0000       1.121355        30.5136 
 231   0.0000       1.131810        30.7981 
 232   0.0000       1.140441        31.0330 
 233   0.0000       1.147336        31.2206 
 234   0.0000       1.150190        31.2982 
 235   0.0000       1.169787        31.8315 
 236   0.0000       1.176801        32.0224 
 237   0.0000       1.184133        32.2219 
 238   0.0000       1.189673        32.3727 
 239   0.0000       1.190373        32.3917 
 240   0.0000       1.198533        32.6137 
 241   0.0000       1.213795        33.0290 
 242   0.0000       1.217615        33.1330 
 243   0.0000       1.220929        33.2232 
 244   0.0000       1.228553        33.4306 
 245   0.0000       1.239251        33.7217 
 246   0.0000       1.241223        33.7754 
 247   0.0000       1.248933        33.9852 
 248   0.0000       1.259631        34.2763 
 249   0.0000       1.266583        34.4655 
 250   0.0000       1.275455        34.7069 
 251   0.0000       1.277298        34.7570 
 252   0.0000       1.289616        35.0922 
 253   0.0000       1.296125        35.2693 
 254   0.0000       1.303646        35.4740 
 255   0.0000       1.317311        35.8459 
 256   0.0000       1.321518        35.9603 
 257   0.0000       1.327553        36.1246 
 258   0.0000       1.336150        36.3585 
 259   0.0000       1.338424        36.4204 
 260   0.0000       1.345434        36.6111 
 261   0.0000       1.351709        36.7819 
 262   0.0000       1.362707        37.0812 
 263   0.0000       1.368827        37.2477 
 264   0.0000       1.379162        37.5289 
 265   0.0000       1.388732        37.7893 
 266   0.0000       1.396046        37.9883 
 267   0.0000       1.399857        38.0920 
 268   0.0000       1.409268        38.3481 
 269   0.0000       1.420006        38.6403 
 270   0.0000       1.427279        38.8382 
 271   0.0000       1.433598        39.0102 
 272   0.0000       1.450487        39.4697 
 273   0.0000       1.458010        39.6745 
 274   0.0000       1.463008        39.8105 
 275   0.0000       1.464932        39.8628 
 276   0.0000       1.475687        40.1555 
 277   0.0000       1.483124        40.3579 
 278   0.0000       1.488862        40.5140 
 279   0.0000       1.493232        40.6329 
 280   0.0000       1.497430        40.7471 
 281   0.0000       1.510014        41.0896 
 282   0.0000       1.522426        41.4273 
 283   0.0000       1.529040        41.6073 
 284   0.0000       1.533767        41.7359 
 285   0.0000       1.535107        41.7724 
 286   0.0000       1.540165        41.9100 
 287   0.0000       1.549752        42.1709 
 288   0.0000       1.553412        42.2705 
 289   0.0000       1.560489        42.4631 
 290   0.0000       1.573326        42.8124 
 291   0.0000       1.577923        42.9375 
 292   0.0000       1.581383        43.0316 
 293   0.0000       1.592359        43.3303 
 294   0.0000       1.609686        43.8018 
 295   0.0000       1.610131        43.8139 
 296   0.0000       1.617430        44.0125 
 297   0.0000       1.623404        44.1751 
 298   0.0000       1.628784        44.3215 
 299   0.0000       1.645682        44.7813 
 300   0.0000       1.648093        44.8469 
 301   0.0000       1.657166        45.0938 
 302   0.0000       1.660867        45.1945 
 303   0.0000       1.671476        45.4832 
 304   0.0000       1.679943        45.7136 
 305   0.0000       1.684851        45.8471 
 306   0.0000       1.696531        46.1650 
 307   0.0000       1.709084        46.5065 
 308   0.0000       1.713833        46.6358 
 309   0.0000       1.721087        46.8331 
 310   0.0000       1.734860        47.2079 
 311   0.0000       1.742690        47.4210 
 312   0.0000       1.745634        47.5011 
 313   0.0000       1.757866        47.8340 
 314   0.0000       1.759071        47.8668 
 315   0.0000       1.779627        48.4261 
 316   0.0000       1.785814        48.5945 
 317   0.0000       1.788205        48.6595 
 318   0.0000       1.795755        48.8650 
 319   0.0000       1.814540        49.3761 
 320   0.0000       1.828855        49.7657 
 321   0.0000       1.839373        50.0519 
 322   0.0000       1.847707        50.2787 
 323   0.0000       1.864694        50.7409 
 324   0.0000       1.866523        50.7907 
 325   0.0000       1.874728        51.0139 
 326   0.0000       1.884874        51.2900 
 327   0.0000       1.893092        51.5137 
 328   0.0000       1.909035        51.9475 
 329   0.0000       1.912821        52.0505 
 330   0.0000       1.935632        52.6712 
 331   0.0000       1.941010        52.8176 
 332   0.0000       1.943718        52.8913 
 333   0.0000       1.947323        52.9894 
 334   0.0000       1.979247        53.8580 
 335   0.0000       1.982772        53.9540 
 336   0.0000       1.997915        54.3660 
 337   0.0000       2.007794        54.6348 
 338   0.0000       2.012518        54.7634 
 339   0.0000       2.018218        54.9185 
 340   0.0000       2.036337        55.4115 
 341   0.0000       2.048228        55.7351 
 342   0.0000       2.064586        56.1802 
 343   0.0000       2.077008        56.5183 
 344   0.0000       2.088689        56.8361 
 345   0.0000       2.109435        57.4007 
 346   0.0000       2.125410        57.8354 
 347   0.0000       2.135002        58.0963 
 348   0.0000       2.149353        58.4869 
 349   0.0000       2.158690        58.7410 
 350   0.0000       2.188535        59.5531 
 351   0.0000       2.200308        59.8734 
 352   0.0000       2.211474        60.1773 
 353   0.0000       2.219329        60.3910 
 354   0.0000       2.231945        60.7343 
 355   0.0000       2.271464        61.8097 
 356   0.0000       2.289058        62.2884 
 357   0.0000       2.297380        62.5149 
 358   0.0000       2.304413        62.7063 
 359   0.0000       2.307886        62.8008 
 360   0.0000       2.327826        63.3434 
 361   0.0000       2.329604        63.3918 
 362   0.0000       2.345894        63.8350 
 363   0.0000       2.363816        64.3227 
 364   0.0000       2.363971        64.3269 
 365   0.0000       2.377728        64.7013 
 366   0.0000       2.382133        64.8211 
 367   0.0000       2.393940        65.1424 
 368   0.0000       2.416120        65.7460 
 369   0.0000       2.425751        66.0080 
 370   0.0000       2.450444        66.6800 
 371   0.0000       2.463723        67.0413 
 372   0.0000       2.470929        67.2374 
 373   0.0000       2.477528        67.4170 
 374   0.0000       2.494455        67.8776 
 375   0.0000       2.507541        68.2337 
 376   0.0000       2.525788        68.7302 
 377   0.0000       2.529095        68.8202 
 378   0.0000       2.545087        69.2553 
 379   0.0000       2.572680        70.0062 
 380   0.0000       2.586512        70.3826 
 381   0.0000       2.593938        70.5846 
 382   0.0000       2.596362        70.6506 
 383   0.0000       2.612442        71.0882 
 384   0.0000       2.621862        71.3445 
 385   0.0000       2.635770        71.7229 
 386   0.0000       2.636518        71.7433 
 387   0.0000       2.653852        72.2150 
 388   0.0000       2.663081        72.4661 
 389   0.0000       2.676795        72.8393 
 390   0.0000       2.685111        73.0656 
 391   0.0000       2.692514        73.2670 
 392   0.0000       2.712916        73.8222 
 393   0.0000       2.719120        73.9910 
 394   0.0000       2.731477        74.3273 
 395   0.0000       2.748209        74.7826 
 396   0.0000       2.758119        75.0522 
 397   0.0000       2.771009        75.4030 
 398   0.0000       2.776790        75.5603 
 399   0.0000       2.787391        75.8488 
 400   0.0000       2.799082        76.1669 
 401   0.0000       2.801321        76.2278 
 402   0.0000       2.805643        76.3454 
 403   0.0000       2.821147        76.7673 
 404   0.0000       2.829472        76.9939 
 405   0.0000       2.842711        77.3541 
 406   0.0000       2.848088        77.5004 
 407   0.0000       2.864895        77.9578 
 408   0.0000       2.871284        78.1316 
 409   0.0000       2.878032        78.3152 
 410   0.0000       2.888153        78.5906 
 411   0.0000       2.891727        78.6879 
 412   0.0000       2.901233        78.9466 
 413   0.0000       2.909143        79.1618 
 414   0.0000       2.918961        79.4290 
 415   0.0000       2.924904        79.5907 
 416   0.0000       2.940279        80.0090 
 417   0.0000       2.942649        80.0736 
 418   0.0000       2.953408        80.3663 
 419   0.0000       2.959624        80.5355 
 420   0.0000       2.961562        80.5882 
 421   0.0000       2.987906        81.3051 
 422   0.0000       2.992267        81.4237 
 423   0.0000       3.000298        81.6423 
 424   0.0000       3.010658        81.9242 
 425   0.0000       3.013349        81.9974 
 426   0.0000       3.019893        82.1755 
 427   0.0000       3.029994        82.4503 
 428   0.0000       3.039180        82.7003 
 429   0.0000       3.045285        82.8664 
 430   0.0000       3.048933        82.9657 
 431   0.0000       3.052397        83.0599 
 432   0.0000       3.057313        83.1937 
 433   0.0000       3.066861        83.4535 
 434   0.0000       3.085237        83.9536 
 435   0.0000       3.088947        84.0545 
 436   0.0000       3.091657        84.1283 
 437   0.0000       3.103173        84.4416 
 438   0.0000       3.111010        84.6549 
 439   0.0000       3.118586        84.8610 
 440   0.0000       3.127052        85.0914 
 441   0.0000       3.128232        85.1235 
 442   0.0000       3.134017        85.2809 
 443   0.0000       3.136218        85.3408 
 444   0.0000       3.155341        85.8612 
 445   0.0000       3.157872        85.9301 
 446   0.0000       3.167472        86.1913 
 447   0.0000       3.180030        86.5330 
 448   0.0000       3.184043        86.6422 
 449   0.0000       3.188064        86.7516 
 450   0.0000       3.193281        86.8936 
 451   0.0000       3.219242        87.6000 
 452   0.0000       3.228140        87.8421 
 453   0.0000       3.231738        87.9401 
 454   0.0000       3.237533        88.0978 
 455   0.0000       3.244105        88.2766 
 456   0.0000       3.245884        88.3250 
 457   0.0000       3.258319        88.6634 
 458   0.0000       3.267735        88.9196 
 459   0.0000       3.273136        89.0666 
 460   0.0000       3.276489        89.1578 
 461   0.0000       3.281507        89.2944 
 462   0.0000       3.290898        89.5499 
 463   0.0000       3.300087        89.7999 
 464   0.0000       3.307578        90.0038 
 465   0.0000       3.313271        90.1587 
 466   0.0000       3.319586        90.3305 
 467   0.0000       3.323270        90.4308 
 468   0.0000       3.327652        90.5500 
 469   0.0000       3.336312        90.7857 
 470   0.0000       3.338715        90.8510 
 471   0.0000       3.346847        91.0723 
 472   0.0000       3.351356        91.1950 
 473   0.0000       3.362991        91.5116 
 474   0.0000       3.367054        91.6222 
 475   0.0000       3.372914        91.7817 
 476   0.0000       3.378737        91.9401 
 477   0.0000       3.383213        92.0619 
 478   0.0000       3.387426        92.1765 
 479   0.0000       3.390215        92.2524 
 480   0.0000       3.390365        92.2565 
 481   0.0000       3.401994        92.5730 
 482   0.0000       3.403535        92.6149 
 483   0.0000       3.413432        92.8842 
 484   0.0000       3.418000        93.0085 
 485   0.0000       3.420300        93.0711 
 486   0.0000       3.430936        93.3605 
 487   0.0000       3.433872        93.4404 
 488   0.0000       3.441614        93.6511 
 489   0.0000       3.448359        93.8346 
 490   0.0000       3.453089        93.9633 
 491   0.0000       3.457280        94.0774 
 492   0.0000       3.460956        94.1774 
 493   0.0000       3.465826        94.3099 
 494   0.0000       3.480404        94.7066 
 495   0.0000       3.490046        94.9690 
 496   0.0000       3.496492        95.1444 
 497   0.0000       3.500680        95.2583 
 498   0.0000       3.504777        95.3698 
 499   0.0000       3.515142        95.6519 
 500   0.0000       3.521413        95.8225 
 501   0.0000       3.524770        95.9139 
 502   0.0000       3.535917        96.2172 
 503   0.0000       3.544983        96.4639 
 504   0.0000       3.547672        96.5371 
 505   0.0000       3.551792        96.6492 
 506   0.0000       3.572300        97.2072 
 507   0.0000       3.576238        97.3144 
 508   0.0000       3.583562        97.5137 
 509   0.0000       3.590926        97.7141 
 510   0.0000       3.601822        98.0106 
 511   0.0000       3.607062        98.1532 
 512   0.0000       3.609687        98.2246 
 513   0.0000       3.616063        98.3981 
 514   0.0000       3.619431        98.4897 
 515   0.0000       3.626283        98.6762 
 516   0.0000       3.637257        98.9748 
 517   0.0000       3.642129        99.1074 
 518   0.0000       3.651926        99.3740 
 519   0.0000       3.656140        99.4886 
 520   0.0000       3.656590        99.5009 
 521   0.0000       3.659495        99.5799 
 522   0.0000       3.671510        99.9069 
 523   0.0000       3.681074       100.1671 
 524   0.0000       3.686323       100.3100 
 525   0.0000       3.696033       100.5742 
 526   0.0000       3.703952       100.7897 
 527   0.0000       3.705240       100.8247 
 528   0.0000       3.710769       100.9752 
 529   0.0000       3.719196       101.2045 
 530   0.0000       3.726524       101.4039 
 531   0.0000       3.731052       101.5271 
 532   0.0000       3.737051       101.6903 
 533   0.0000       3.737714       101.7084 
 534   0.0000       3.745620       101.9235 
 535   0.0000       3.756807       102.2279 
 536   0.0000       3.760456       102.3272 
 537   0.0000       3.767809       102.5273 
 538   0.0000       3.777769       102.7983 
 539   0.0000       3.785512       103.0090 
 540   0.0000       3.789496       103.1174 
 541   0.0000       3.799426       103.3876 
 542   0.0000       3.802192       103.4629 
 543   0.0000       3.806760       103.5872 
 544   0.0000       3.822748       104.0223 
 545   0.0000       3.835427       104.3673 
 546   0.0000       3.836835       104.4056 
 547   0.0000       3.843985       104.6001 
 548   0.0000       3.854037       104.8737 
 549   0.0000       3.866080       105.2014 
 550   0.0000       3.868671       105.2719 
 551   0.0000       3.874205       105.4225 
 552   0.0000       3.875745       105.4644 
 553   0.0000       3.889698       105.8441 
 554   0.0000       3.894850       105.9843 
 555   0.0000       3.901629       106.1687 
 556   0.0000       3.907935       106.3403 
 557   0.0000       3.919340       106.6507 
 558   0.0000       3.921365       106.7058 
 559   0.0000       3.936542       107.1187 
 560   0.0000       3.948514       107.4445 
 561   0.0000       3.955697       107.6400 
 562   0.0000       3.962289       107.8194 
 563   0.0000       3.970750       108.0496 
 564   0.0000       3.983919       108.4079 
 565   0.0000       3.989308       108.5546 
 566   0.0000       3.999165       108.8228 
 567   0.0000       4.012081       109.1743 
 568   0.0000       4.012670       109.1903 
 569   0.0000       4.025717       109.5453 
 570   0.0000       4.028032       109.6083 
 571   0.0000       4.037909       109.8771 
 572   0.0000       4.051407       110.2444 
 573   0.0000       4.057855       110.4198 
 574   0.0000       4.066000       110.6415 
 575   0.0000       4.070272       110.7577 
 576   0.0000       4.079376       111.0055 
 577   0.0000       4.086890       111.2099 
 578   0.0000       4.097386       111.4955 
 579   0.0000       4.100098       111.5693 
 580   0.0000       4.112445       111.9053 
 581   0.0000       4.116735       112.0220 
 582   0.0000       4.133138       112.4684 
 583   0.0000       4.137218       112.5794 
 584   0.0000       4.143813       112.7589 
 585   0.0000       4.158756       113.1655 
 586   0.0000       4.166067       113.3644 
 587   0.0000       4.176606       113.6512 
 588   0.0000       4.179093       113.7189 
 589   0.0000       4.181451       113.7831 
 590   0.0000       4.188138       113.9650 
 591   0.0000       4.192793       114.0917 
 592   0.0000       4.195443       114.1638 
 593   0.0000       4.214111       114.6718 
 594   0.0000       4.219702       114.8239 
 595   0.0000       4.233885       115.2099 
 596   0.0000       4.239570       115.3646 
 597   0.0000       4.242336       115.4398 
 598   0.0000       4.246247       115.5463 
 599   0.0000       4.260511       115.9344 
 600   0.0000       4.267443       116.1230 
 601   0.0000       4.272117       116.2502 
 602   0.0000       4.278897       116.4347 
 603   0.0000       4.294169       116.8503 
 604   0.0000       4.300405       117.0200 
 605   0.0000       4.307522       117.2136 
 606   0.0000       4.321874       117.6042 
 607   0.0000       4.324199       117.6674 
 608   0.0000       4.327118       117.7469 
 609   0.0000       4.335356       117.9710 
 610   0.0000       4.340505       118.1112 
 611   0.0000       4.356394       118.5435 
 612   0.0000       4.360401       118.6525 
 613   0.0000       4.376794       119.0986 
 614   0.0000       4.379471       119.1715 
 615   0.0000       4.405389       119.8767 
 616   0.0000       4.409964       120.0012 
 617   0.0000       4.415563       120.1536 
 618   0.0000       4.416953       120.1914 
 619   0.0000       4.424528       120.3975 
 620   0.0000       4.428467       120.5047 
 621   0.0000       4.436860       120.7331 
 622   0.0000       4.440536       120.8331 
 623   0.0000       4.449657       121.0813 
 624   0.0000       4.459546       121.3504 
 625   0.0000       4.465831       121.5215 
 626   0.0000       4.473116       121.7197 
 627   0.0000       4.481866       121.9578 
 628   0.0000       4.497143       122.3735 
 629   0.0000       4.499515       122.4380 
 630   0.0000       4.514979       122.8588 
 631   0.0000       4.523021       123.0777 
 632   0.0000       4.529821       123.2627 
 633   0.0000       4.536317       123.4395 
 634   0.0000       4.544727       123.6683 
 635   0.0000       4.547100       123.7329 
 636   0.0000       4.556115       123.9782 
 637   0.0000       4.570583       124.3719 
 638   0.0000       4.571497       124.3967 
 639   0.0000       4.580784       124.6495 
 640   0.0000       4.600685       125.1910 
 641   0.0000       4.605327       125.3173 
 642   0.0000       4.614261       125.5604 
 643   0.0000       4.623212       125.8040 
 644   0.0000       4.635823       126.1472 
 645   0.0000       4.636275       126.1595 
 646   0.0000       4.641206       126.2936 
 647   0.0000       4.647236       126.4577 
 648   0.0000       4.652796       126.6090 
 649   0.0000       4.661711       126.8516 
 650   0.0000       4.668077       127.0248 
 651   0.0000       4.675259       127.2203 
 652   0.0000       4.680977       127.3759 
 653   0.0000       4.693898       127.7275 
 654   0.0000       4.698794       127.8607 
 655   0.0000       4.710136       128.1693 
 656   0.0000       4.724475       128.5595 
 657   0.0000       4.728714       128.6748 
 658   0.0000       4.741831       129.0318 
 659   0.0000       4.749270       129.2342 
 660   0.0000       4.768917       129.7688 
 661   0.0000       4.779914       130.0681 
 662   0.0000       4.792395       130.4077 
 663   0.0000       4.803971       130.7227 
 664   0.0000       4.820180       131.1638 
 665   0.0000       4.829245       131.4104 
 666   0.0000       4.852173       132.0343 
 667   0.0000       4.865664       132.4015 
 668   0.0000       4.893291       133.1532 
 669   0.0000       4.907080       133.5284 
 670   0.0000       4.911629       133.6522 
 671   0.0000       4.923546       133.9765 
 672   0.0000       4.930399       134.1630 
 673   0.0000       4.948933       134.6673 
 674   0.0000       4.955740       134.8525 
 675   0.0000       4.992954       135.8652 
 676   0.0000       5.012637       136.4008 
 677   0.0000       5.013868       136.4343 
 678   0.0000       5.029794       136.8676 
 679   0.0000       5.048357       137.3728 
 680   0.0000       5.050984       137.4443 
 681   0.0000       5.060542       137.7043 
 682   0.0000       5.079958       138.2327 
 683   0.0000       5.085849       138.3930 
 684   0.0000       5.109330       139.0319 
 685   0.0000       5.116682       139.2320 
 686   0.0000       5.126848       139.5086 
 687   0.0000       5.135311       139.7389 
 688   0.0000       5.145195       140.0079 
 689   0.0000       5.154815       140.2697 
 690   0.0000       5.169657       140.6735 
 691   0.0000       5.188009       141.1729 
 692   0.0000       5.191040       141.2554 
 693   0.0000       5.202671       141.5719 
 694   0.0000       5.207371       141.6998 
 695   0.0000       5.228052       142.2625 
 696   0.0000       5.231014       142.3431 
 697   0.0000       5.242276       142.6496 
 698   0.0000       5.249563       142.8479 
 699   0.0000       5.263537       143.2281 
 700   0.0000       5.270164       143.4084 
 701   0.0000       5.277720       143.6141 
 702   0.0000       5.291942       144.0011 
 703   0.0000       5.301542       144.2623 
 704   0.0000       5.317541       144.6976 
 705   0.0000       5.332664       145.1092 
 706   0.0000       5.340278       145.3164 
 707   0.0000       5.346890       145.4963 
 708   0.0000       5.368402       146.0817 
 709   0.0000       5.384466       146.5188 
 710   0.0000       5.393367       146.7610 
 711   0.0000       5.401456       146.9811 
 712   0.0000       5.435380       147.9042 
 713   0.0000       5.468567       148.8073 
 714   0.0000       5.476952       149.0354 
 715   0.0000       5.483883       149.2240 
 716   0.0000       5.492494       149.4584 
 717   0.0000       5.501413       149.7011 
 718   0.0000       5.513484       150.0295 
 719   0.0000       5.526663       150.3881 
 720   0.0000       5.538738       150.7167 
 721   0.0000       5.553022       151.1054 
 722   0.0000       5.562376       151.3599 
 723   0.0000       5.568987       151.5398 
 724   0.0000       5.580469       151.8523 
 725   0.0000       5.595746       152.2680 
 726   0.0000       5.626011       153.0915 
 727   0.0000       5.628434       153.1575 
 728   0.0000       5.640718       153.4917 
 729   0.0000       5.649371       153.7272 
 730   0.0000       5.662635       154.0881 
 731   0.0000       5.679415       154.5447 
 732   0.0000       5.684305       154.6778 
 733   0.0000       5.691213       154.8658 
 734   0.0000       5.695590       154.9849 
 735   0.0000       5.711134       155.4078 
 736   0.0000       5.719648       155.6395 
 737   0.0000       5.735456       156.0697 
 738   0.0000       5.743242       156.2816 
 739   0.0000       5.751983       156.5194 
 740   0.0000       5.757045       156.6571 
 741   0.0000       5.778447       157.2395 
 742   0.0000       5.800937       157.8515 
 743   0.0000       5.815553       158.2492 
 744   0.0000       5.816593       158.2776 
 745   0.0000       5.858139       159.4081 
 746   0.0000       5.863919       159.5653 
 747   0.0000       5.873416       159.8238 
 748   0.0000       5.887482       160.2065 
 749   0.0000       5.898052       160.4942 
 750   0.0000       5.938088       161.5836 
 751   0.0000       5.965064       162.3176 
 752   0.0000       5.967379       162.3806 
 753   0.0000       5.974268       162.5681 
 754   0.0000       5.996188       163.1646 
 755   0.0000       6.004115       163.3803 
 756   0.0000       6.040203       164.3623 
 757   0.0000       6.052392       164.6940 
 758   0.0000       6.063309       164.9910 
 759   0.0000       6.079110       165.4210 
 760   0.0000       6.109886       166.2585 
 761   0.0000       6.174729       168.0229 
 762   0.0000       6.232672       169.5996 
 763   0.0000       6.235642       169.6804 
 764   0.0000       6.298088       171.3797 
 765   0.0000       6.309526       171.6909 
 766   0.0000       6.337968       172.4649 
 767   0.0000       6.349743       172.7853 
 768   0.0000       6.362814       173.1410 
 769   0.0000       6.388607       173.8428 
 770   0.0000       6.397379       174.0815 
 771   0.0000       6.398853       174.1216 
 772   0.0000       6.424630       174.8231 
 773   0.0000       6.430226       174.9753 
 774   0.0000       6.452223       175.5739 
 775   0.0000       6.460877       175.8094 
 776   0.0000       6.505278       177.0176 
 777   0.0000       6.513933       177.2531 
 778   0.0000       6.555530       178.3850 
 779   0.0000       6.617081       180.0599 
 780   0.0000       6.667122       181.4216 
 781   0.0000       6.681394       181.8100 
 782   0.0000       6.737425       183.3346 
 783   0.0000       6.755554       183.8280 
 784   0.0000       6.812196       185.3693 
 785   0.0000       6.851401       186.4361 
 786   0.0000       6.909876       188.0273 
 787   0.0000       6.921128       188.3335 
 788   0.0000       6.967636       189.5990 
 789   0.0000       6.992650       190.2797 
 790   0.0000       7.052521       191.9089 
 791   0.0000       7.067643       192.3203 
 792   0.0000       7.082894       192.7353 
 793   0.0000       7.135953       194.1792 
 794   0.0000       7.200266       195.9292 
 795   0.0000       7.242126       197.0683 
 796   0.0000       7.260461       197.5672 
 797   0.0000       7.282427       198.1649 
 798   0.0000       7.344571       199.8559 
 799   0.0000       7.374470       200.6695 
 800   0.0000       7.401326       201.4003 
 801   0.0000       7.510199       204.3629 
 802   0.0000       7.540582       205.1897 
 803   0.0000       7.583893       206.3682 
 804   0.0000       7.587504       206.4665 
 805   0.0000       7.759723       211.1528 
 806   0.0000       7.822933       212.8728 
 807   0.0000       7.934561       215.9104 
 808   0.0000       8.073210       219.6832 
 809   0.0000       9.493172       258.3224 
 810   0.0000       9.731263       264.8011 
 811   0.0000      10.791298       293.6461 
 812   0.0000      11.135694       303.0176 
 813   0.0000      12.054819       328.0283 
 814   0.0000      12.558150       341.7246 
 815   0.0000      12.931703       351.8895 
 816   0.0000      12.983992       353.3124 
 817   0.0000      13.131447       357.3248 
 818   0.0000      13.293026       361.7216 
 819   0.0000      13.443950       365.8285 
 820   0.0000      13.482961       366.8900 
 821   0.0000      13.759159       374.4058 
 822   0.0000      13.955922       379.7599 
 823   0.0000      14.080972       383.1627 
 824   0.0000      14.189013       386.1027 
 825   0.0000      14.490297       394.3010 
 826   0.0000      14.739403       401.0796 
 827   0.0000      15.978628       434.8006 

                    ********************************
                    * MULLIKEN POPULATION ANALYSIS *
                    ********************************

-----------------------
MULLIKEN ATOMIC CHARGES
-----------------------
   0 C :   -0.312366
   1 C :    0.007825
   2 O :   -0.315229
   3 C :    0.411192
   4 O :   -0.382388
   5 C :   -0.214511
   6 C :    0.149753
   7 C :   -0.329859
   8 N :   -0.138708
   9 C :    0.207226
  10 S :   -0.441696
  11 N :   -0.232014
  12 C :    0.101758
  13 C :    0.019905
  14 C :   -0.212120
  15 C :   -0.137190
  16 C :   -0.278882
  17 C :    0.325429
  18 O :   -0.358342
  19 C :   -0.277119
  20 H :    0.124934
  21 H :    0.111622
  22 H :    0.104593
  23 H :    0.129231
  24 H :    0.089259
  25 H :    0.122644
  26 H :    0.143071
  27 H :    0.120665
  28 H :    0.195651
  29 H :    0.204021
  30 H :    0.168381
  31 H :    0.175446
  32 H :    0.164169
  33 H :    0.131799
  34 H :    0.241021
  35 H :    0.180826
Sum of atomic charges:    0.0000000

--------------------------------
MULLIKEN REDUCED ORBITAL CHARGES
--------------------------------
  0 C s       :     3.264451  s :     3.264451
      pz      :     0.919599  p :     2.969345
      px      :     1.017022
      py      :     1.032725
      dz2     :     0.017360  d :     0.074072
      dxz     :     0.008351
      dyz     :     0.023861
      dx2y2   :     0.019426
      dxy     :     0.005073
      f0      :     0.001012  f :     0.004497
      f+1     :     0.001142
      f-1     :     0.000469
      f+2     :     0.000729
      f-2     :     0.000184
      f+3     :     0.000943
      f-3     :     0.000018
  1 C s       :     3.174008  s :     3.174008
      pz      :     0.982230  p :     2.649235
      px      :     0.675385
      py      :     0.991620
      dz2     :     0.022079  d :     0.157406
      dxz     :     0.041623
      dyz     :     0.028157
      dx2y2   :     0.036935
      dxy     :     0.028613
      f0      :     0.002211  f :     0.011525
      f+1     :     0.001721
      f-1     :     0.000764
      f+2     :     0.001657
      f-2     :     0.000904
      f+3     :     0.002220
      f-3     :     0.002048
  2 O s       :     3.724120  s :     3.724120
      pz      :     1.776533  p :     4.555586
      px      :     1.165082
      py      :     1.613971
      dz2     :     0.004099  d :     0.033228
      dxz     :     0.005886
      dyz     :     0.003303
      dx2y2   :     0.004887
      dxy     :     0.015053
      f0      :     0.000250  f :     0.002294
      f+1     :     0.000492
      f-1     :     0.000125
      f+2     :     0.000190
      f-2     :     0.000224
[...]
 15 C s       :     2.705392  s :     2.705392
      pz      :     0.898047  p :     2.793635
      px      :     0.922166
      py      :     0.973421
      dz2     :     0.094546  d :     0.416552
      dxz     :     0.065285
      dyz     :     0.062772
      dx2y2   :     0.105325
      dxy     :     0.088625
      f0      :     0.003172  f :     0.041121
      f+1     :     0.005046
      f-1     :     0.006430
      f+2     :     0.006532
      f-2     :     0.007004
      f+3     :     0.006239
      f-3     :     0.006698
 16 C s       :     2.701549  s :     2.701549
      pz      :     0.939999  p :     2.868524
      px      :     0.957155
      py      :     0.971370
      dz2     :     0.048362  d :     0.391362
      dxz     :     0.052986
      dyz     :     0.092809
      dx2y2   :     0.090680
      dxy     :     0.106525
      f0      :     0.005006  f :     0.040416
      f+1     :     0.004521
      f-1     :     0.003389
      f+2     :     0.005824
      f-2     :     0.006225
      f+3     :     0.007920
      f-3     :     0.007531
 17 C s       :     2.701235  s :     2.701235
      pz      :     0.830666  p :     2.683315
      px      :     0.817990
      py      :     1.034659
      dz2     :     0.131138  d :     0.709094
      dxz     :     0.108451
      dyz     :     0.143917
      dx2y2   :     0.162507
      dxy     :     0.163081
      f0      :     0.010617  f :     0.099368
      f+1     :     0.015801
      f-1     :     0.009795
      f+2     :     0.014865
      f-2     :     0.016521
      f+3     :     0.014354
      f-3     :     0.017415
 18 O s       :     3.177107  s :     3.177107
      pz      :     1.440348  p :     4.346781
      px      :     1.432528
      py      :     1.473904
      dz2     :     0.009481  d :     0.075595
      dxz     :     0.017875
      dyz     :     0.017050
      dx2y2   :     0.016896
      dxy     :     0.014294
      f0      :     0.000607  f :     0.005073
      f+1     :     0.000801
      f-1     :     0.000331
      f+2     :     0.000872
      f-2     :     0.000933
      f+3     :     0.000674
      f-3     :     0.000856
 19 C s       :     2.696178  s :     2.696178
      pz      :     0.933546  p :     2.846665
      px      :     0.943257
      py      :     0.969862
      dz2     :     0.076336  d :     0.388401
      dxz     :     0.062831
      dyz     :     0.065939
      dx2y2   :     0.092190
      dxy     :     0.091104
      f0      :     0.003286  f :     0.040670
      f+1     :     0.005138
      f-1     :     0.005842
      f+2     :     0.006610
      f-2     :     0.007476
      f+3     :     0.006294
      f-3     :     0.006023
 20 H s       :     0.839655  s :     0.839655
      pz      :     0.045646  p :     0.150484
      px      :     0.041870
      py      :     0.062968
      dz2     :     0.005135  d :     0.027726
      dxz     :     0.002575
      dyz     :     0.007060
      dx2y2   :     0.007112
      dxy     :     0.005845
 21 H s       :     0.846656  s :     0.846656
      pz      :     0.038471  p :     0.151998
      px      :     0.072214
      py      :     0.041314
      dz2     :     0.002306  d :     0.027505
      dxz     :     0.008912
      dyz     :     0.000100
      dx2y2   :     0.006763
      dxy     :     0.009425
 22 H s       :     0.847639  s :     0.847639
      pz      :     0.052188  p :     0.159508
      px      :     0.044793
      py      :     0.062527
      dz2     :     0.005950  d :     0.028201
      dxz     :     0.003018
      dyz     :     0.007035
      dx2y2   :     0.006508
      dxy     :     0.005689
 23 H s       :     0.848309  s :     0.848309
      pz      :     0.054424  p :     0.144513
      px      :     0.036274
      py      :     0.053815
      dz2     :     0.006836  d :     0.027106
      dxz     :     0.004574
      dyz     :     0.005202
      dx2y2   :     0.005295
      dxy     :     0.005198
 24 H s       :     0.858026  s :     0.858026
      pz      :     0.048991  p :     0.154132
      px      :     0.027785
      py      :     0.077355
      dz2     :     0.004951  d :     0.027696
      dxz     :     0.001120
      dyz     :     0.008822
      dx2y2   :     0.006795
      dxy     :     0.006009
 25 H s       :     0.832961  s :     0.832961
      pz      :     0.050540  p :     0.148988
      px      :     0.040270
      py      :     0.058178
      dz2     :     0.006923  d :     0.027626
      dxz     :     0.003652
      dyz     :     0.006772
      dx2y2   :     0.004931
      dxy     :     0.005348
 26 H s       :     0.830089  s :     0.830089
      pz      :     0.039950  p :     0.150320
      px      :     0.048160
      py      :     0.062210
      dz2     :     0.003727  d :     0.027648
      dxz     :     0.002756
      dyz     :     0.006581
      dx2y2   :     0.008462
      dxy     :     0.006122
 27 H s       :     0.837824  s :     0.837824
      pz      :     0.037290  p :     0.152648
      px      :     0.073035
      py      :     0.042323
      dz2     :     0.002471  d :     0.027702
      dxz     :     0.008192
      dyz     :     0.000593
      dx2y2   :     0.007077
      dxy     :     0.009369
 28 H s       :     0.742692  s :     0.742692
      pz      :     0.054583  p :     0.253533
      px      :     0.093673
      py      :     0.105277
      dz2     :     0.007620  d :     0.061704
      dxz     :     0.004289
      dyz     :     0.014977
      dx2y2   :     0.017152
      dxy     :     0.017665
 29 H s       :     0.747340  s :     0.747340
      pz      :     0.118737  p :     0.254530
      px      :     0.090586
      py      :     0.045207
      dz2     :     0.022292  d :     0.061454
      dxz     :     0.018932
      dyz     :     0.013327
      dx2y2   :     0.004068
      dxy     :     0.002834
 30 H s       :     0.822585  s :     0.822585
      pz      :     0.037127  p :     0.150478
      px      :     0.077833
      py      :     0.035519
      dz2     :     0.002720  d :     0.028564
      dxz     :     0.008449
      dyz     :     0.001205
      dx2y2   :     0.008412
      dxy     :     0.007779
 31 H s       :     0.836227  s :     0.836227
      pz      :     0.059166  p :     0.158391
      px      :     0.064806
      py      :     0.034420
      dz2     :     0.005890  d :     0.027473
      dxz     :     0.007123
      dyz     :     0.003766
      dx2y2   :     0.005204
      dxy     :     0.005490
 32 H s       :     0.841410  s :     0.841410
      pz      :     0.036643  p :     0.150805
      px      :     0.040065
      py      :     0.074097
      dz2     :     0.002635  d :     0.026423
      dxz     :     0.000888
      dyz     :     0.007095
      dx2y2   :     0.007917
      dxy     :     0.007889
 33 H s       :     0.848479  s :     0.848479
      pz      :     0.054628  p :     0.158868
      px      :     0.047812
      py      :     0.056428
      dz2     :     0.005501  d :     0.027740
      dxz     :     0.004029
      dyz     :     0.006294
      dx2y2   :     0.006191
      dxy     :     0.005726
 34 H s       :     0.706384  s :     0.706384
      pz      :     0.104332  p :     0.347651
      px      :     0.086164
      py      :     0.157154
      dz2     :     0.019688  d :     0.099538
      dxz     :     0.008948
      dyz     :     0.025328
      dx2y2   :     0.022771
      dxy     :     0.022804
 35 H s       :     0.837499  s :     0.837499
      pz      :     0.041106  p :     0.160465
      px      :     0.043172
      py      :     0.076187
      dz2     :     0.002633  d :     0.028165
      dxz     :     0.001083
      dyz     :     0.007773
      dx2y2   :     0.008148
      dxy     :     0.008529


                      *****************************
                      * MAYER POPULATION ANALYSIS *
                      *****************************

  NA   - Mulliken gross atomic population
  ZA   - Total nuclear charge
  QA   - Mulliken gross atomic charge
  VA   - Mayer's total valence
  BVA  - Mayer's bonded valence
  FA   - Mayer's free valence

  ATOM       NA         ZA         QA         VA         BVA        FA
  0 C      6.3124     6.0000    -0.3124     3.8464     3.8464    -0.0000
  1 C      5.9922     6.0000     0.0078     3.8804     3.8804     0.0000
  2 O      8.3152     8.0000    -0.3152     2.0580     2.0580    -0.0000
  3 C      5.5888     6.0000     0.4112     4.2332     4.2332     0.0000
  4 O      8.3824     8.0000    -0.3824     2.1294     2.1294     0.0000
  5 C      6.2145     6.0000    -0.2145     3.5864     3.5864    -0.0000
  6 C      5.8502     6.0000     0.1498     3.7802     3.7802     0.0000
  7 C      6.3299     6.0000    -0.3299     3.8763     3.8763     0.0000
  8 N      7.1387     7.0000    -0.1387     3.2585     3.2585     0.0000
  9 C      5.7928     6.0000     0.2072     4.1436     4.1436    -0.0000
 10 S     16.4417    16.0000    -0.4417     1.7482     1.7482     0.0000
 11 N      7.2320     7.0000    -0.2320     3.2521     3.2521     0.0000
 12 C      5.8982     6.0000     0.1018     3.9208     3.9208     0.0000
 13 C      5.9801     6.0000     0.0199     3.7233     3.7233    -0.0000
 14 C      6.2121     6.0000    -0.2121     3.8794     3.8794    -0.0000
 15 C      6.1372     6.0000    -0.1372     3.8140     3.8140    -0.0000
 16 C      6.2789     6.0000    -0.2789     3.7886     3.7886    -0.0000
 17 C      5.6746     6.0000     0.3254     3.8615     3.8615     0.0000
 18 O      8.3583     8.0000    -0.3583     2.1169     2.1169     0.0000
 19 C      6.2771     6.0000    -0.2771     3.8084     3.8084     0.0000
 20 H      0.8751     1.0000     0.1249     0.9789     0.9789    -0.0000
 21 H      0.8884     1.0000     0.1116     0.9818     0.9818     0.0000
 22 H      0.8954     1.0000     0.1046     0.9763     0.9763     0.0000
 23 H      0.8708     1.0000     0.1292     0.9738     0.9738     0.0000
 24 H      0.9107     1.0000     0.0893     0.9599     0.9599     0.0000
 25 H      0.8774     1.0000     0.1226     0.9823     0.9823     0.0000
 26 H      0.8569     1.0000     0.1431     0.9769     0.9769     0.0000
 27 H      0.8793     1.0000     0.1207     0.9689     0.9689     0.0000
 28 H      0.8043     1.0000     0.1957     1.0224     1.0224     0.0000
 29 H      0.7960     1.0000     0.2040     1.0118     1.0118    -0.0000
 30 H      0.8316     1.0000     0.1684     0.9885     0.9885     0.0000
 31 H      0.8246     1.0000     0.1754     0.9868     0.9868     0.0000
 32 H      0.8358     1.0000     0.1642     0.9767     0.9767    -0.0000
 33 H      0.8682     1.0000     0.1318     0.9911     0.9911    -0.0000
 34 H      0.7590     1.0000     0.2410     1.0104     1.0104     0.0000
 35 H      0.8192     1.0000     0.1808     0.9850     0.9850     0.0000

  Mayer bond orders larger than 0.100000
B(  0-C ,  1-C ) :   0.9555 B(  0-C , 20-H ) :   0.9687 B(  0-C , 21-H ) :   0.9770 
B(  0-C , 22-H ) :   0.9721 B(  1-C ,  2-O ) :   0.9092 B(  1-C , 23-H ) :   0.9860 
B(  1-C , 24-H ) :   0.9740 B(  2-O ,  3-C ) :   1.1657 B(  3-C ,  4-O ) :   2.0796 
B(  3-C ,  5-C ) :   0.9229 B(  5-C ,  6-C ) :   1.6982 B(  5-C , 12-C ) :   0.9431 
B(  6-C ,  7-C ) :   0.9426 B(  6-C ,  8-N ) :   1.1064 B(  7-C , 25-H ) :   0.9822 
B(  7-C , 26-H ) :   0.9679 B(  7-C , 27-H ) :   0.9676 B(  8-N ,  9-C ) :   1.1987 
B(  8-N , 28-H ) :   0.9531 B(  9-C , 10-S ) :   1.6066 B(  9-C , 11-N ) :   1.2882 
B( 11-N , 12-C ) :   0.9851 B( 11-N , 29-H ) :   0.9466 B( 12-C , 13-C ) :   0.9568 
B( 12-C , 30-H ) :   0.9940 B( 13-C , 14-C ) :   1.3885 B( 13-C , 19-C ) :   1.3348 
B( 14-C , 15-C ) :   1.4043 B( 14-C , 31-H ) :   0.9583 B( 15-C , 16-C ) :   1.3562 
B( 15-C , 32-H ) :   0.9700 B( 16-C , 17-C ) :   1.3325 B( 16-C , 33-H ) :   0.9850 
B( 17-C , 18-O ) :   1.1081 B( 17-C , 19-C ) :   1.3651 B( 18-O , 34-H ) :   0.9796 
B( 19-C , 35-H ) :   0.9566 

-------
TIMINGS
-------

Total SCF time: 0 days 1 hours 42 min 50 sec 

Total time                  ....    6170.830 sec
Sum of individual times     ....    6163.587 sec  ( 99.9%)

Fock matrix formation       ....    6147.895 sec  ( 99.6%)
Diagonalization             ....       1.372 sec  (  0.0%)
Density matrix formation    ....       0.187 sec  (  0.0%)
Population analysis         ....       0.360 sec  (  0.0%)
Initial guess               ....       5.933 sec  (  0.1%)
Orbital Transformation      ....       0.000 sec  (  0.0%)
Orbital Orthonormalization  ....       0.000 sec  (  0.0%)
DIIS solution               ....       4.136 sec  (  0.1%)
SOSCF solution              ....       2.398 sec  (  0.0%)

Maximum memory used throughout the entire SCF-calculation: 763.5 MB

------------------------------------------------------------------------------
                                ORCA  MP2 
------------------------------------------------------------------------------

Freezing NCore=48 chemical core electrons

-------------
RI-MP2 ENERGY
-------------
Dimension of the basis                    ...  828
Memory devoted to MP2                     ...  256 MB   
Data format for buffers                   ... DOUBLE
Compression type for matrix containers    ... UNCOMPRESSED
Overall scaling of the MP2 energy         ...   1.000e+00
Calculating two index integrals           ... done (    0.036 sec)
Cholesky decomposition of V**-1           ... done (    0.500 sec)

-----------------
RI-TRANSFORMATION (AUX index driven)
-----------------

Dimension of the orbital-basis         ... 828
Dimension of the aux-basis             ... 2141
Transformation of internal/external MOs...   24-  76 to   77- 827
Number Format for Storage              ... Double (8 Byte)
Integral mode                          ... Direct

First Phase: integral generation and transformation of MO indices
  Aux angular momentum 0               ... done (    5.169 sec)
  Aux angular momentum 1               ... done (    9.959 sec)
  Aux angular momentum 2               ... done (   10.586 sec)
  Aux angular momentum 3               ... done (    8.221 sec)
  Aux angular momentum 4               ... done (    2.758 sec)
Closing buffer VIA ( 0.63 GB; CompressionRatio= 1.00)
  Phase 1 completed in    37.010 sec
Second Phase: sorting and transformation of aux index

IA-Transformation
Memory available                       ... 156 MB 
Max. # MO pairs treated in a batch     ... 11    
# of internal orbitals                 ... 53
# batches for internal orbitals        ... 5
Closing buffer IAV ( 0.63 GB; CompressionRatio= 1.00)
(ia|v) transformation done in    35.115 sec

  Phase 2 completed in    35.129 sec
RI-Integral transformation completed in    72.291 sec
Opening buffers                              ... done

Starting loop over batches of integrals:

Operator 0  - window                       ... ( 24- 76)x( 77-827)
Operator 0  - Memory available             ...   256 MB
Operator 0  - Memory needed per MO         ...  12.3 MB
Operator 0  - Number of orbitals per batch ... 13
Operator 0  - Number of batches            ... 5

OPERATOR  0   PASS   0:  MOs    24 ...   36
  Reading integrals       ... ok
  Internal MO  26
  Internal MO  29
  Internal MO  32
  Internal MO  35
OPERATOR  0   PASS   1:  MOs    37 ...   49
  Reading integrals       ... ok
  Internal MO  38
  Internal MO  41
  Internal MO  44
  Internal MO  47
OPERATOR  0   PASS   2:  MOs    50 ...   62
  Reading integrals       ... ok
  Internal MO  50
  Internal MO  53
  Internal MO  56
  Internal MO  59
  Internal MO  62
OPERATOR  0   PASS   3:  MOs    63 ...   75
  Reading integrals       ... ok
  Internal MO  65
  Internal MO  68
  Internal MO  71
  Internal MO  74
OPERATOR  0   PASS   4:  MOs    76 ...   76
  Reading integrals       ... ok
Time spent in pair loops =   105.977 sec
Deleting buffer (Ka|jb)[aa] ...done

-----------------------------------------------
 RI-MP2 CORRELATION ENERGY:     -3.543302812 Eh
-----------------------------------------------


-------
TIMINGS
-------

Total time                :  179.220 sec
Integral trafo            :   72.319 sec ( 40.4%)
I/O of integrals          :    4.205 sec (  2.3%)
K(i,j) Operators          :   79.289 sec ( 44.2%)
T(i,j) pair energies      :    3.059 sec (  1.7%)
V-calculation             :    0.036 sec (  0.0%)
V**(-1/2)                 :    0.500 sec (  0.3%)
Gamma(ia|P)               :    0.000 sec (  0.0%)
Gamma-Trafo               :    0.000 sec (  0.0%)
D(virtual)                :    0.000 sec (  0.0%)
D(internal)               :    0.000 sec (  0.0%)
W(virtual)                :    0.000 sec (  0.0%)
W(internal)               :    0.000 sec (  0.0%)
L(virtual)                :    0.000 sec (  0.0%)
L(internal)               :    0.000 sec (  0.0%)
G(D)                      :    0.000 sec (  0.0%)
G(Z)                      :    0.000 sec (  0.0%)
Z-Vector Solution         :    0.000 sec (  0.0%)
3-Index Derivative        :    0.000 sec (  0.0%)
2-Index Derivative        :    0.000 sec (  0.0%)
Separable Gradient        :    0.000 sec (  0.0%)


---------------------------------------
MP2 TOTAL ENERGY:    -1274.326631403 Eh
---------------------------------------

Maximum memory used throughout the entire MP2-calculation: 306.2 MB

-------------------------   --------------------
FINAL SINGLE POINT ENERGY     -1274.326631403474
-------------------------   --------------------


                            ***************************************
                            *     ORCA property calculations      *
                            ***************************************


  WARNING: The energy has been calculated at the MP2 level but the densities
           used in the property calculations are still SCF densities
           MP2 response densities have not been calculated 
           use %mp2 Density relaxed end
           or  %mp2 Density unrelaxed end

                                    ---------------------
                                    Active property flags
                                    ---------------------
   (+) Dipole Moment


------------------------------------------------------------------------------
                       ORCA ELECTRIC PROPERTIES CALCULATION
------------------------------------------------------------------------------

Dipole Moment Calculation                       ... on
Quadrupole Moment Calculation                   ... off
Polarizability Calculation                      ... off
GBWName                                         ... CONFS/Conf266.orca.gbw
Electron density file                           ... CONFS/Conf266.orca.scfp
The origin for moment calculation is the CENTER OF MASS  = (32.718505, 31.324407 35.238974)

-------------
DIPOLE MOMENT
-------------
                                X             Y             Z
Electronic contribution:      8.90052       6.46158       6.26341
Nuclear contribution   :    -10.37267      -7.47572      -7.04228
                        -----------------------------------------
Total Dipole Moment    :     -1.47216      -1.01415      -0.77888
                        -----------------------------------------
Magnitude (a.u.)       :      1.94997
Magnitude (Debye)      :      4.95643



--------------------
Rotational spectrum 
--------------------
 
Rotational constants in cm-1:     0.012010     0.009505     0.006762 
Rotational constants in MHz :   360.042346   284.939189   202.729666 

 Dipole components along the rotational axes: 
x,y,z [a.u.] :    -0.957798    -1.056357     1.330083 
x,y,z [Debye]:    -2.434529    -2.685045     3.380802 

 

Timings for individual modules:

Sum of individual times         ...     6355.259 sec (= 105.921 min)
GTO integral calculation        ...        3.752 sec (=   0.063 min)   0.1 %
SCF iterations                  ...     6171.079 sec (= 102.851 min)  97.1 %
MP2 module                      ...      180.428 sec (=   3.007 min)   2.8 %
                             ****ORCA TERMINATED NORMALLY****
TOTAL RUN TIME: 0 days 1 hours 45 minutes 56 seconds 704 msec
