
                                        *****************
                                        * O   R   C   A *
                                        *****************

                                            #,                                       
                                            ###                                      
                                            ####                                     
                                            #####                                    
                                            ######                                   
                                           ########,                                 
                                     ,,################,,,,,                         
                               ,,#################################,,                 
                          ,,##########################################,,             
                       ,#########################################, ''#####,          
                    ,#############################################,,   '####,        
                  ,##################################################,,,,####,       
                ,###########''''           ''''###############################       
              ,#####''   ,,,,##########,,,,          '''####'''          '####       
            ,##' ,,,,###########################,,,                        '##       
           ' ,,###''''                  '''############,,,                           
         ,,##''                                '''############,,,,        ,,,,,,###''
      ,#''                                            '''#######################'''  
     '                                                          ''''####''''         
             ,#######,   #######,   ,#######,      ##                                
            ,#'     '#,  ##    ##  ,#'     '#,    #''#        ######   ,####,        
            ##       ##  ##   ,#'  ##            #'  '#       #        #'  '#        
            ##       ##  #######   ##           ,######,      #####,   #    #        
            '#,     ,#'  ##    ##  '#,     ,#' ,#      #,         ##   #,  ,#        
             '#######'   ##     ##  '#######'  #'      '#     #####' # '####'        



                  #######################################################
                  #                        -***-                        #
                  #          Department of theory and spectroscopy      #
                  #    Directorship and core code : Frank Neese         #
                  #        Max Planck Institute fuer Kohlenforschung    #
                  #                Kaiser Wilhelm Platz 1               #
                  #                 D-45470 Muelheim/Ruhr               #
                  #                      Germany                        #
                  #                                                     #
                  #                  All rights reserved                #
                  #                        -***-                        #
                  #######################################################


                         Program Version 5.0.0 -  RELEASE  -
                                (SVN: $Rev: 19529$)
                ($Date: 2021-06-28 11:36:33 +0200 (Mo, 28 Jun 2021) $)


 With contributions from (in alphabetic order):
   Daniel Aravena         : Magnetic Suceptibility
   Michael Atanasov       : Ab Initio Ligand Field Theory (pilot matlab implementation)
   Alexander A. Auer      : GIAO ZORA, VPT2 properties, NMR spectrum
   Ute Becker             : Parallelization
   Giovanni Bistoni       : ED, misc. LED, open-shell LED, HFLD
   Martin Brehm           : Molecular dynamics
   Dmytro Bykov           : SCF Hessian
   Vijay G. Chilkuri      : MRCI spin determinant printing, contributions to CSF-ICE
   Dipayan Datta          : RHF DLPNO-CCSD density
   Achintya Kumar Dutta   : EOM-CC, STEOM-CC
   Dmitry Ganyushin       : Spin-Orbit,Spin-Spin,Magnetic field MRCI
   Miquel Garcia          : C-PCM Hessian, Gaussian charge scheme
   Yang Guo               : DLPNO-NEVPT2, F12-NEVPT2, CIM, IAO-localization
   Andreas Hansen         : Spin unrestricted coupled pair/coupled cluster methods
   Benjamin Helmich-Paris : MC-RPA, TRAH-SCF, COSX integrals
   Lee Huntington         : MR-EOM, pCC
   Robert Izsak           : Overlap fitted RIJCOSX, COSX-SCS-MP3, EOM
   Marcus Kettner         : VPT2
   Christian Kollmar      : KDIIS, OOCD, Brueckner-CCSD(T), CCSD density, CASPT2, CASPT2-K
   Simone Kossmann        : Meta GGA functionals, TD-DFT gradient, OOMP2, MP2 Hessian
   Martin Krupicka        : Initial AUTO-CI
   Lucas Lang             : DCDCAS
   Marvin Lechner         : AUTO-CI (C++ implementation), FIC-MRCC
   Dagmar Lenk            : GEPOL surface, SMD
   Dimitrios Liakos       : Extrapolation schemes; Compound Job, initial MDCI parallelization
   Dimitrios Manganas     : Further ROCIS development; embedding schemes
   Dimitrios Pantazis     : SARC Basis sets
   Anastasios Papadopoulos: AUTO-CI, single reference methods and gradients
   Taras Petrenko         : DFT Hessian,TD-DFT gradient, ASA, ECA, R-Raman, ABS, FL, XAS/XES, NRVS
   Peter Pinski           : DLPNO-MP2, DLPNO-MP2 Gradient
   Christoph Reimann      : Effective Core Potentials
   Marius Retegan         : Local ZFS, SOC
   Christoph Riplinger    : Optimizer, TS searches, QM/MM, DLPNO-CCSD(T), (RO)-DLPNO pert. Triples
   Tobias Risthaus        : Range-separated hybrids, TD-DFT gradient, RPA, STAB
   Michael Roemelt        : Original ROCIS implementation
   Masaaki Saitow         : Open-shell DLPNO-CCSD energy and density
   Barbara Sandhoefer     : DKH picture change effects
   Avijit Sen             : IP-ROCIS
   Kantharuban Sivalingam : CASSCF convergence, NEVPT2, FIC-MRCI
   Bernardo de Souza      : ESD, SOC TD-DFT
   Georgi Stoychev        : AutoAux, RI-MP2 NMR
   Willem Van den Heuvel  : Paramagnetic NMR
   Boris Wezisla          : Elementary symmetry handling
   Frank Wennmohs         : Technical directorship


 We gratefully acknowledge several colleagues who have allowed us to
 interface, adapt or use parts of their codes:
   Stefan Grimme, W. Hujo, H. Kruse, P. Pracht,  : VdW corrections, initial TS optimization,
                  C. Bannwarth, S. Ehlert          DFT functionals, gCP, sTDA/sTD-DF
   Ed Valeev, F. Pavosevic, A. Kumar             : LibInt (2-el integral package), F12 methods
   Garnet Chan, S. Sharma, J. Yang, R. Olivares  : DMRG
   Ulf Ekstrom                                   : XCFun DFT Library
   Mihaly Kallay                                 : mrcc  (arbitrary order and MRCC methods)
   Jiri Pittner, Ondrej Demel                    : Mk-CCSD
   Frank Weinhold                                : gennbo (NPA and NBO analysis)
   Christopher J. Cramer and Donald G. Truhlar   : smd solvation model
   Lars Goerigk                                  : TD-DFT with DH, B97 family of functionals
   V. Asgeirsson, H. Jonsson                     : NEB implementation
   FAccTs GmbH                                   : IRC, NEB, NEB-TS, DLPNO-Multilevel, CI-OPT
                                                   MM, QMMM, 2- and 3-layer-ONIOM, Crystal-QMMM,
                                                   LR-CPCM, SF, NACMEs, symmetry and pop. for TD-DFT,
                                                   nearIR, NL-DFT gradient (VV10), updates on ESD,
                                                   ML-optimized integration grids
   S Lehtola, MJT Oliveira, MAL Marques          : LibXC Library
   Liviu Ungur et al                             : ANISO software


 Your calculation uses the libint2 library for the computation of 2-el integrals
 For citations please refer to: http://libint.valeyev.net

 Your ORCA version has been built with support for libXC version: 5.1.0
 For citations please refer to: https://tddft.org/programs/libxc/

 This ORCA versions uses:
   CBLAS   interface :  Fast vector & matrix operations
   LAPACKE interface :  Fast linear algebra routines
   SCALAPACK package :  Parallel linear algebra routines
   Shared memory     :  Shared parallel matrices
   BLAS/LAPACK       :  OpenBLAS 0.3.15  USE64BITINT DYNAMIC_ARCH NO_AFFINITY Zen SINGLE_THREADED
        Core in use  :  Zen
   Copyright (c) 2011-2014, The OpenBLAS Project


================================================================================

----- Orbital basis set information -----
Your calculation utilizes the basis: cc-pVTZ 
       H, B-Ne : Obtained from the ccRepo (grant-hill.group.shef.ac.uk/ccrepo) Feb. 2017
                 T. H. Dunning, Jr., J. Chem. Phys. 90, 1007 (1989)
            He : Obtained from the ccRepo (grant-hill.group.shef.ac.uk/ccrepo) Feb. 2017
                 D. E. Woon, T. H. Dunning, Jr., J. Chem. Phys. 100, 2975 (1994)
  Li-Be, Na-Mg : Obtained from the ccRepo (grant-hill.group.shef.ac.uk/ccrepo) Feb. 2017
                 B. P. Prascher, D. E. Woon, K. A. Peterson, T. H. Dunning, Jr., A. K. Wilson, Theor. Chem. Acc. 128, 69 (2011)
         Al-Ar : Obtained from the ccRepo (grant-hill.group.shef.ac.uk/ccrepo) Feb. 2017
                 D. E. Woon, T. H. Dunning, Jr., J. Chem. Phys. 98, 1358 (1993)
            Ca : Obtained from the Peterson Research Group Website (tyr0.chem.wsu.edu/~kipeters) Feb. 2017
                 J. Koput, K. A. Peterson, J. Phys. Chem. 106, 9595 (2002)
         Sc-Zn : Obtained from the ccRepo (grant-hill.group.shef.ac.uk/ccrepo) Feb. 2017
                 N. B. Balabanov, K. A. Peterson, J. Chem. Phys. 123, 064107 (2005)
                 N. B. Balabanov, K. A. Peterson, J. Chem. Phys. 125, 074110 (2006)
         Ga-Kr : Obtained from the ccRepo (grant-hill.group.shef.ac.uk/ccrepo) Feb. 2017
                 A. K. Wilson, D. E. Woon, K. A. Peterson, T. H. Dunning, Jr., J. Chem. Phys. 110, 7667 (1999)
             Y : Obtained from the ccRepo (grant-hill.group.shef.ac.uk/ccrepo) Feb. 2017
                 K. A. Peterson, D. Figgen, M. Dolg, H. Stoll, J. Chem. Phys. 126, 124101 (2007)
        Ag, Au : Obtained from the Peterson Research Group Website (tyr0.chem.wsu.edu/~kipeters) Feb. 2017
                 K. A. Peterson, C. Puzzarini, Theor. Chem. Acc. 114, 283 (2005)

----- AuxC basis set information -----
Your calculation utilizes the auxiliary basis: cc-pVTZ/C 
  Obtained from the EMSL Basis Set Exchange (bse.pnl.gov) Feb. 2017
  H-He, B-F, Al-Ar, Ga-Kr : F. Weigend, A. Kohn, C. Hattig, J. Chem. Phys. 116, 3175 (2002)
             Li-Be, Na-Mg : C. Haettig, Phys. Chem. Chem. Phys. 7, 59 (2005)
                       Ne : C. Haettig, Phys. Chem. Chem. Phys. 7, 59 (2005)
                            F. Weigend, A. Kohn, C. Hattig, J. Chem. Phys. 116, 3175 (2002)
                    Sc-Zn : J. G. Hill, J. A. Platts, J. Chem. Phys. 128, 044104 (2008)

================================================================================
                                        WARNINGS
                       Please study these warnings very carefully!
================================================================================


WARNING: No MP2 level density has been requested!
         To caclulate MP2 level properties use
         %mp2 Density relaxed end
         or
         %mp2 Density unrelaxed end

WARNING: Post HF methods need fully converged wavefunctions
  ===> : Setting SCFConvForced true
         You can overwrite this default with %scf ConvForced false 


INFO   : the flag for use of the SHARK integral package has been found!

================================================================================
                                       INPUT FILE
================================================================================
NAME = CONFS/Conf806.orca
|  1> ! ri-mp2 cc-pvtz cc-pvtz/c TightSCF NoKeepInts
|  2> 
|  3> %scf
|  4>   MaxCore 4096
|  5> end
|  6> *xyz  0  1
|  7>     C       16.0872635   13.7866672   14.9392276
|  8>     C       15.4226978   14.3814376   16.1923292
|  9>     O       16.3813340   15.2558726   16.8154722
| 10>     C       16.1598224   16.6045864   16.8803904
| 11>     O       15.2169448   17.1436326   16.3260286
| 12>     C       17.2184248   17.3263022   17.6682253
| 13>     C       17.2512924   18.6788978   17.7773804
| 14>     C       16.2836511   19.6719622   17.1699318
| 15>     N       18.2828917   19.3001876   18.4878027
| 16>     C       19.3658786   18.6548865   19.0223755
| 17>     S       20.5947492   19.4759421   19.7651152
| 18>     N       19.3814659   17.2882272   18.9084608
| 19>     C       18.2773535   16.4671559   18.3784988
| 20>     C       17.6693574   15.6317912   19.5016065
| 21>     C       17.7749257   14.2282480   19.4849442
| 22>     C       17.2153682   13.4567488   20.5173785
| 23>     C       16.5468822   14.0934950   21.5769372
| 24>     C       16.4429638   15.4911184   21.5985581
| 25>     O       15.7987694   16.1088642   22.6205532
| 26>     C       17.0006338   16.2561969   20.5695819
| 27>     H       16.3359073   14.5796798   14.2227480
| 28>     H       15.4109786   13.0787242   14.4448963
| 29>     H       17.0095408   13.2548322   15.2037185
| 30>     H       14.4936001   14.8998567   15.9195305
| 31>     H       15.1655523   13.5707712   16.8862414
| 32>     H       15.2655503   19.4915455   17.5381574
| 33>     H       16.2593624   19.5686614   16.0776438
| 34>     H       16.5378149   20.7136533   17.3980789
| 35>     H       18.2887707   20.3034244   18.5800474
| 36>     H       20.1741421   16.8372511   19.3467653
| 37>     H       18.7094541   15.7852583   17.6326622
| 38>     H       18.2861580   13.7332465   18.6636593
| 39>     H       17.3002041   12.3717549   20.4942094
| 40>     H       16.1131935   13.5021273   22.3765758
| 41>     H       15.5085325   15.4221759   23.2393912
| 42>     H       16.9155679   17.3368166   20.6088766
| 43> *
| 44> 
| 45>                          ****END OF INPUT****
================================================================================

                       ****************************
                       * Single Point Calculation *
                       ****************************

---------------------------------
CARTESIAN COORDINATES (ANGSTROEM)
---------------------------------
  C     16.087263   13.786667   14.939228
  C     15.422698   14.381438   16.192329
  O     16.381334   15.255873   16.815472
  C     16.159822   16.604586   16.880390
  O     15.216945   17.143633   16.326029
  C     17.218425   17.326302   17.668225
  C     17.251292   18.678898   17.777380
  C     16.283651   19.671962   17.169932
  N     18.282892   19.300188   18.487803
  C     19.365879   18.654886   19.022375
  S     20.594749   19.475942   19.765115
  N     19.381466   17.288227   18.908461
  C     18.277354   16.467156   18.378499
  C     17.669357   15.631791   19.501606
  C     17.774926   14.228248   19.484944
  C     17.215368   13.456749   20.517378
  C     16.546882   14.093495   21.576937
  C     16.442964   15.491118   21.598558
  O     15.798769   16.108864   22.620553
  C     17.000634   16.256197   20.569582
  H     16.335907   14.579680   14.222748
  H     15.410979   13.078724   14.444896
  H     17.009541   13.254832   15.203718
  H     14.493600   14.899857   15.919530
  H     15.165552   13.570771   16.886241
  H     15.265550   19.491545   17.538157
  H     16.259362   19.568661   16.077644
  H     16.537815   20.713653   17.398079
  H     18.288771   20.303424   18.580047
  H     20.174142   16.837251   19.346765
  H     18.709454   15.785258   17.632662
  H     18.286158   13.733246   18.663659
  H     17.300204   12.371755   20.494209
  H     16.113194   13.502127   22.376576
  H     15.508532   15.422176   23.239391
  H     16.915568   17.336817   20.608877

----------------------------
CARTESIAN COORDINATES (A.U.)
----------------------------
  NO LB      ZA    FRAG     MASS         X           Y           Z
   0 C     6.0000    0    12.011   30.400522   26.053025   28.231049
   1 C     6.0000    0    12.011   29.144675   27.176978   30.599068
   2 O     8.0000    0    15.999   30.956235   28.829421   31.776637
   3 C     6.0000    0    12.011   30.537639   31.378121   31.899315
   4 O     8.0000    0    15.999   28.755858   32.396771   30.851723
   5 C     6.0000    0    12.011   32.538107   32.741966   33.388107
   6 C     6.0000    0    12.011   32.600218   35.298001   33.594380
   7 C     6.0000    0    12.011   30.771641   37.174621   32.446469
   8 N     7.0000    0    14.007   34.549658   36.472069   34.936884
   9 C     6.0000    0    12.011   36.596207   35.252627   35.947080
  10 S    16.0000    0    32.060   38.918436   36.804197   37.350655
  11 N     7.0000    0    14.007   36.625663   32.670015   35.731813
  12 C     6.0000    0    12.011   34.539193   31.118415   34.730329
  13 C     6.0000    0    12.011   33.390246   29.539804   36.852695
  14 C     6.0000    0    12.011   33.589742   26.887492   36.821208
  15 C     6.0000    0    12.011   32.532331   25.429570   38.772226
  16 C     6.0000    0    12.011   31.269076   26.632846   40.774502
  17 C     6.0000    0    12.011   31.072698   29.273971   40.815360
  18 O     8.0000    0    15.999   29.855347   30.441342   42.746651
  19 C     6.0000    0    12.011   32.126542   30.719760   38.870876
  20 H     1.0000    0     1.008   30.870391   27.551602   26.877099
  21 H     1.0000    0     1.008   29.122529   24.715207   27.296898
  22 H     1.0000    0     1.008   32.143374   25.048003   28.730864
  23 H     1.0000    0     1.008   27.388935   28.156649   30.083553
  24 H     1.0000    0     1.008   28.658741   25.645041   31.910372
  25 H     1.0000    0     1.008   28.847709   36.833683   33.142314
  26 H     1.0000    0     1.008   30.725742   36.979411   30.382344
  27 H     1.0000    0     1.008   31.251941   39.143132   32.877604
  28 H     1.0000    0     1.008   34.560768   38.367912   35.111201
  29 H     1.0000    0     1.008   38.123604   31.817793   36.560088
  30 H     1.0000    0     1.008   35.355744   29.829815   33.320903
  31 H     1.0000    0     1.008   34.555831   25.952075   35.269205
  32 H     1.0000    0     1.008   32.692648   23.379229   38.728443
  33 H     1.0000    0     1.008   30.449523   25.515323   42.285600
  34 H     1.0000    0     1.008   29.306879   29.143689   43.916085
  35 H     1.0000    0     1.008   31.965791   32.761835   38.945133

--------------------------------
INTERNAL COORDINATES (ANGSTROEM)
--------------------------------
 C      0   0   0     0.000000000000     0.00000000     0.00000000
 C      1   0   0     1.538071200646     0.00000000     0.00000000
 O      2   1   0     1.439419025727   107.44930509     0.00000000
 C      3   2   1     1.368324039084   120.76449663   114.22654228
 O      4   3   2     1.219387542833   122.63835776   353.61807657
 C      4   3   2     1.504060027696   112.57420286   175.19033071
 C      6   4   3     1.357390869324   122.50100084   175.01378457
 C      7   6   4     1.513770256563   127.29764411     0.29019588
 N      7   6   4     1.398176661113   120.10010320   182.01836583
 C      9   7   6     1.369321807952   124.92401037     5.43557864
 S     10   9   7     1.654060915381   121.93543871   175.93430365
 N     10   9   7     1.371487209227   116.49758372   356.04152264
 C     12  10   9     1.474476853993   125.18642860   353.85272855
 C     13  12  10     1.526061710882   109.79396401   248.27218680
 C     14  13  12     1.407606412486   120.47930894   245.86409183
 C     15  14  13     1.405075156432   120.59258727   180.03627751
 C     16  15  14     1.405341202042   119.64637560   359.87256322
 C     17  16  15     1.401648196019   119.91308186   359.95722515
 O     18  17  16     1.356860450759   120.05204080   180.03459812
 C     18  17  16     1.398260691083   120.30960683     0.05387014
 H      1   2   3     1.097285623825   110.51287662   297.48431454
 H      1   2   3     1.096771622252   110.51108930   177.77870756
 H      1   2   3     1.096995588643   110.75070656    57.75147714
 H      2   1   3     1.098362431127   110.22202708   123.01876204
 H      2   1   3     1.097642000640   109.31009583   241.45863325
 H      8   7   6     1.097574378844   110.51663780    60.07689651
 H      8   7   6     1.097430668048   110.59732871   301.36191175
 H      8   7   6     1.096253020196   113.05742586   180.67964025
 H      9   7   6     1.007485843173   119.55839397   181.27566898
 H     12  10   9     1.011842791909   114.64868437   182.45938557
 H     13  12  10     1.099075747756   107.15747292   130.68611063
 H     15  14  13     1.086689392850   119.89603055   359.54143692
 H     16  15  14     1.088552111826   120.04032353   179.85000840
 H     17  16  15     1.084999325217   119.92325679   180.00552890
 H     19  18  17     0.968885312987   107.49538703     1.63439282
 H     20  18  17     1.084674705531   119.15546143   180.44792376

---------------------------
INTERNAL COORDINATES (A.U.)
---------------------------
 C      0   0   0     0.000000000000     0.00000000     0.00000000
 C      1   0   0     2.906533343692     0.00000000     0.00000000
 O      2   1   0     2.720107750579   107.44930509     0.00000000
 C      3   2   1     2.585757696330   120.76449663   114.22654228
 O      4   3   2     2.304308507069   122.63835776   353.61807657
 C      4   3   2     2.842261541324   112.57420286   175.19033071
 C      6   4   3     2.565096999708   122.50100084   175.01378457
 C      7   6   4     2.860611214580   127.29764411     0.29019588
 N      7   6   4     2.642170976344   120.10010320   182.01836583
 C      9   7   6     2.587643206235   124.92401037     5.43557864
 S     10   9   7     3.125722138894   121.93543871   175.93430365
 N     10   9   7     2.591735221615   116.49758372   356.04152264
 C     12  10   9     2.786357444853   125.18642860   353.85272855
 C     13  12  10     2.883838697031   109.79396401   248.27218680
 C     14  13  12     2.659990623950   120.47930894   245.86409183
 C     15  14  13     2.655207243234   120.59258727   180.03627751
 C     16  15  14     2.655709996575   119.64637560   359.87256322
 C     17  16  15     2.648731226580   119.91308186   359.95722515
 O     18  17  16     2.564094653883   120.05204080   180.03459812
 C     18  17  16     2.642329769975   120.30960683     0.05387014
 H      1   2   3     2.073569319718   110.51287662   297.48431454
 H      1   2   3     2.072597997512   110.51108930   177.77870756
 H      1   2   3     2.073021232656   110.75070656    57.75147714
 H      2   1   3     2.075604190618   110.22202708   123.01876204
 H      2   1   3     2.074242774298   109.31009583   241.45863325
 H      8   7   6     2.074114987624   110.51663780    60.07689651
 H      8   7   6     2.073843413577   110.59732871   301.36191175
 H      8   7   6     2.071617981654   113.05742586   180.67964025
 H      9   7   6     1.903872327399   119.55839397   181.27566898
 H     12  10   9     1.912105767290   114.64868437   182.45938557
 H     13  12  10     2.076952163694   107.15747292   130.68611063
 H     15  14  13     2.053545345124   119.89603055   359.54143692
 H     16  15  14     2.057065373853   120.04032353   179.85000840
 H     17  16  15     2.050351580149   119.92325679   180.00552890
 H     19  18  17     1.830927896725   107.49538703     1.63439282
 H     20  18  17     2.049738137845   119.15546143   180.44792376

---------------------
BASIS SET INFORMATION
---------------------
There are 5 groups of distinct atoms

 Group   1 Type C   : 18s5p2d1f contracted to 4s3p2d1f pattern {8811/311/11/1}
 Group   2 Type O   : 18s5p2d1f contracted to 4s3p2d1f pattern {8811/311/11/1}
 Group   3 Type N   : 18s5p2d1f contracted to 4s3p2d1f pattern {8811/311/11/1}
 Group   4 Type S   : 41s16p2d1f contracted to 5s4p2d1f pattern {13131311/7711/11/1}
 Group   5 Type H   : 5s2p1d contracted to 3s2p1d pattern {311/11/1}

Atom   0C    basis set group =>   1
Atom   1C    basis set group =>   1
Atom   2O    basis set group =>   2
Atom   3C    basis set group =>   1
Atom   4O    basis set group =>   2
Atom   5C    basis set group =>   1
Atom   6C    basis set group =>   1
Atom   7C    basis set group =>   1
Atom   8N    basis set group =>   3
Atom   9C    basis set group =>   1
Atom  10S    basis set group =>   4
Atom  11N    basis set group =>   3
Atom  12C    basis set group =>   1
Atom  13C    basis set group =>   1
Atom  14C    basis set group =>   1
Atom  15C    basis set group =>   1
Atom  16C    basis set group =>   1
Atom  17C    basis set group =>   1
Atom  18O    basis set group =>   2
Atom  19C    basis set group =>   1
Atom  20H    basis set group =>   5
Atom  21H    basis set group =>   5
Atom  22H    basis set group =>   5
Atom  23H    basis set group =>   5
Atom  24H    basis set group =>   5
Atom  25H    basis set group =>   5
Atom  26H    basis set group =>   5
Atom  27H    basis set group =>   5
Atom  28H    basis set group =>   5
Atom  29H    basis set group =>   5
Atom  30H    basis set group =>   5
Atom  31H    basis set group =>   5
Atom  32H    basis set group =>   5
Atom  33H    basis set group =>   5
Atom  34H    basis set group =>   5
Atom  35H    basis set group =>   5
---------------------------------
AUXILIARY/C BASIS SET INFORMATION
---------------------------------
There are 5 groups of distinct atoms

 Group   1 Type C   : 8s6p5d3f1g contracted to 8s6p5d3f1g pattern {11111111/111111/11111/111/1}
 Group   2 Type O   : 8s6p5d3f1g contracted to 8s6p5d3f1g pattern {11111111/111111/11111/111/1}
 Group   3 Type N   : 8s6p5d3f1g contracted to 8s6p5d3f1g pattern {11111111/111111/11111/111/1}
 Group   4 Type S   : 10s8p7d5f2g contracted to 10s8p7d5f2g pattern {1111111111/11111111/1111111/11111/11}
 Group   5 Type H   : 4s3p2d1f contracted to 4s3p2d1f pattern {1111/111/11/1}

Atom   0C    basis set group =>   1
Atom   1C    basis set group =>   1
Atom   2O    basis set group =>   2
Atom   3C    basis set group =>   1
Atom   4O    basis set group =>   2
Atom   5C    basis set group =>   1
Atom   6C    basis set group =>   1
Atom   7C    basis set group =>   1
Atom   8N    basis set group =>   3
Atom   9C    basis set group =>   1
Atom  10S    basis set group =>   4
Atom  11N    basis set group =>   3
Atom  12C    basis set group =>   1
Atom  13C    basis set group =>   1
Atom  14C    basis set group =>   1
Atom  15C    basis set group =>   1
Atom  16C    basis set group =>   1
Atom  17C    basis set group =>   1
Atom  18O    basis set group =>   2
Atom  19C    basis set group =>   1
Atom  20H    basis set group =>   5
Atom  21H    basis set group =>   5
Atom  22H    basis set group =>   5
Atom  23H    basis set group =>   5
Atom  24H    basis set group =>   5
Atom  25H    basis set group =>   5
Atom  26H    basis set group =>   5
Atom  27H    basis set group =>   5
Atom  28H    basis set group =>   5
Atom  29H    basis set group =>   5
Atom  30H    basis set group =>   5
Atom  31H    basis set group =>   5
Atom  32H    basis set group =>   5
Atom  33H    basis set group =>   5
Atom  34H    basis set group =>   5
Atom  35H    basis set group =>   5
------------------------------------------------------------------------------
                           ORCA GTO INTEGRAL CALCULATION
------------------------------------------------------------------------------
------------------------------------------------------------------------------
                   ___                                                        
                  /   \      - P O W E R E D   B Y -                         
                 /     \                                                     
                 |  |  |   _    _      __       _____    __    __             
                 |  |  |  | |  | |    /  \     |  _  \  |  |  /  |          
                  \  \/   | |  | |   /    \    | | | |  |  | /  /          
                 / \  \   | |__| |  /  /\  \   | |_| |  |  |/  /          
                |  |  |   |  __  | /  /__\  \  |    /   |      \           
                |  |  |   | |  | | |   __   |  |    \   |  |\   \          
                \     /   | |  | | |  |  |  |  | |\  \  |  | \   \       
                 \___/    |_|  |_| |__|  |__|  |_| \__\ |__|  \__/        
                                                                              
                      - O R C A' S   B I G   F R I E N D -                    
                                      &                                       
                       - I N T E G R A L  F E E D E R -                       
                                                                              
 v1 FN, 2020, v2 2021                                                         
------------------------------------------------------------------------------


Reading SHARK input file CONFS/Conf806.orca.SHARKINP.tmp ... ok
----------------------
SHARK INTEGRAL PACKAGE
----------------------

Number of atoms                             ...     36
Number of basis functions                   ...    828
Number of shells                            ...    298
Maximum angular momentum                    ...      3
Integral batch strategy                     ... SHARK/LIBINT Hybrid
RI-J (if used) integral strategy            ... SPLIT-RIJ (Revised 2003 algorithm where possible)
Printlevel                                  ...      1
Contraction scheme used                     ... SEGMENTED contraction
Coulomb Range Separation                    ... NOT USED
Exchange Range Separation                   ... NOT USED
Finite Nucleus Model                        ... NOT USED
Auxiliary Coulomb fitting basis             ... NOT available
Auxiliary J/K fitting basis                 ... NOT available
Auxiliary Correlation fitting basis         ... AVAILABLE
   # of basis functions in Aux-C            ...   2141
   # of shells in Aux-C                     ...    629
   Maximum angular momentum in Aux-C        ...      4
Auxiliary 'external' fitting basis          ... NOT available
Integral threshold                          ...     2.500000e-11
Primitive cut-off                           ...     2.500000e-12
Primitive pair pre-selection threshold      ...     2.500000e-12

Calculating pre-screening integrals         ... done (  0.5 sec) Dimension = 298
Organizing shell pair data                  ... done (  1.3 sec)
Shell pair information
Total number of shell pairs                 ...     44551
Shell pairs after pre-screening             ...     32538
Total number of primitive shell pairs       ...    234348
Primitive shell pairs kept                  ...     93722
          la=0 lb=0:   6519 shell pairs
          la=1 lb=0:   9043 shell pairs
          la=1 lb=1:   3186 shell pairs
          la=2 lb=0:   5195 shell pairs
          la=2 lb=1:   3561 shell pairs
          la=2 lb=2:   1005 shell pairs
          la=3 lb=0:   1885 shell pairs
          la=3 lb=1:   1286 shell pairs
          la=3 lb=2:    713 shell pairs
          la=3 lb=3:    145 shell pairs

Calculating one electron integrals          ... done (  0.4 sec)
Calculating RI/C V-Matrix + Cholesky decomp.... done (  1.3 sec)
Calculating Nuclear repulsion               ... done (  0.0 sec) ENN=   1691.915367880738 Eh

SHARK setup successfully completed in   3.9 seconds

Maximum memory used throughout the entire GTOINT-calculation: 482.5 MB
-------------------------------------------------------------------------------
                                 ORCA SCF
-------------------------------------------------------------------------------

------------
SCF SETTINGS
------------
Hamiltonian:
 Ab initio Hamiltonian  Method          .... Hartree-Fock(GTOs)


General Settings:
 Integral files         IntName         .... CONFS/Conf806.orca
 Hartree-Fock type      HFTyp           .... RHF
 Total Charge           Charge          ....    0
 Multiplicity           Mult            ....    1
 Number of Electrons    NEL             ....  154
 Basis Dimension        Dim             ....  828
 Nuclear Repulsion      ENuc            ....   1691.9153678807 Eh

Convergence Acceleration:
 DIIS                   CNVDIIS         .... on
   Start iteration      DIISMaxIt       ....    12
   Startup error        DIISStart       ....  0.200000
   # of expansion vecs  DIISMaxEq       ....     5
   Bias factor          DIISBfac        ....   1.050
   Max. coefficient     DIISMaxC        ....  10.000
 Trust-Rad. Augm. Hess. CNVTRAH         .... auto
   Auto Start mean grad. ratio tolernc. ....  1.125000
   Auto Start start iteration           ....    20
   Auto Start num. interpolation iter.  ....    10
   Max. Number of Micro iterations      ....    16
   Max. Number of Macro iterations      .... Maxiter - #DIIS iter
   Number of Davidson start vectors     ....     2
   Converg. threshold I  (grad. norm)   ....   1.000e-05
   Converg. threshold II (energy diff.) ....   1.000e-08
   Grad. Scal. Fac. for Micro threshold ....   0.100
   Minimum threshold for Micro iter.    ....   0.010
   NR start threshold (gradient norm)   ....   0.001
   Initial trust radius                 ....   0.400
   Minimum AH scaling param. (alpha)    ....   1.000
   Maximum AH scaling param. (alpha)    .... 1000.000
   Orbital update algorithm             .... Taylor
   White noise on init. David. guess    .... on
   Maximum white noise                  ....   0.010
   Quad. conv. algorithm                .... NR
 SOSCF                  CNVSOSCF        .... on
   Start iteration      SOSCFMaxIt      ....   150
   Startup grad/error   SOSCFStart      ....  0.003300
 Level Shifting         CNVShift        .... on
   Level shift para.    LevelShift      ....    0.2500
   Turn off err/grad.   ShiftErr        ....    0.0010
 Zerner damping         CNVZerner       .... off
 Static damping         CNVDamp         .... on
   Fraction old density DampFac         ....    0.7000
   Max. Damping (<1)    DampMax         ....    0.9800
   Min. Damping (>=0)   DampMin         ....    0.0000
   Turn off err/grad.   DampErr         ....    0.1000
 Fernandez-Rico         CNVRico         .... off

SCF Procedure:
 Maximum # iterations   MaxIter         ....   125
 SCF integral mode      SCFMode         .... Direct
   Integral package                     .... SHARK and LIBINT hybrid scheme
 Reset frequency        DirectResetFreq ....    20
 Integral Threshold     Thresh          ....  2.500e-11 Eh
 Primitive CutOff       TCut            ....  2.500e-12 Eh

Convergence Tolerance:
 Convergence Check Mode ConvCheckMode   .... Total+1el-Energy
 Convergence forced     ConvForced      .... 1
 Energy Change          TolE            ....  1.000e-08 Eh
 1-El. energy change                    ....  1.000e-05 Eh
 Orbital Gradient       TolG            ....  1.000e-05
 Orbital Rotation angle TolX            ....  1.000e-05
 DIIS Error             TolErr          ....  5.000e-07


Diagonalization of the overlap matrix:
Smallest eigenvalue                        ... 3.481e-05
Time for diagonalization                   ...    0.112 sec
Threshold for overlap eigenvalues          ... 1.000e-08
Number of eigenvalues below threshold      ... 0
Time for construction of square roots      ...    0.078 sec
Total time needed                          ...    0.191 sec

Time for model grid setup =    1.616 sec

------------------------------
INITIAL GUESS: MODEL POTENTIAL
------------------------------
Loading Hartree-Fock densities                     ... done
Calculating cut-offs                               ... done
Initializing the effective Hamiltonian             ... done
Setting up the integral package (SHARK)            ... done
Starting the Coulomb interaction                   ... done (   3.6 sec)
Reading the grid                                   ... done
Mapping shells                                     ... done
Starting the XC term evaluation                    ... done (   1.1 sec)
Transforming the Hamiltonian                       ... done (   0.1 sec)
Diagonalizing the Hamiltonian                      ... done (   0.1 sec)
Back transforming the eigenvectors                 ... done (   0.0 sec)
Now organizing SCF variables                       ... done
                      ------------------
                      INITIAL GUESS DONE (   6.8 sec)
                      ------------------
--------------
SCF ITERATIONS
--------------
ITER       Energy         Delta-E        Max-DP      RMS-DP      [F,P]     Damp
               ***  Starting incremental Fock matrix formation  ***
  0  -1270.0217753234   0.000000000000 0.04931326  0.00043110  0.3144231 0.7000
  1  -1270.2899423709  -0.268167047469 0.03608085  0.00034796  0.1859466 0.7000
                               ***Turning on DIIS***
  2  -1270.4572135885  -0.167271217545 0.02583890  0.00023484  0.1096640 0.7000
  3  -1272.5956412511  -2.138427662607 0.06314478  0.00051104  0.0829489 0.0000
  4  -1270.7656514947   1.829989756379 0.00658045  0.00009168  0.0075139 0.0000
  5  -1270.8271061557  -0.061454660975 0.00350970  0.00004952  0.0046187 0.0000
                      *** Initiating the SOSCF procedure ***
                           *** Shutting down DIIS ***
                      *** Re-Reading the Fockian *** 
                      *** Removing any level shift *** 
ITER      Energy       Delta-E        Grad      Rot      Max-DP    RMS-DP
  6  -1270.80593010   0.0211760520  0.001597  0.001597  0.001630  0.000025
               *** Restarting incremental Fock matrix formation ***
  7  -1270.82046493  -0.0145348216  0.000821  0.002096  0.001270  0.000015
  8  -1270.82050813  -0.0000432094  0.000383  0.002302  0.001371  0.000015
  9  -1270.82052404  -0.0000159040  0.000161  0.000317  0.000347  0.000004
 10  -1270.82052598  -0.0000019436  0.000054  0.000143  0.000114  0.000001
 11  -1270.82052617  -0.0000001884  0.000023  0.000114  0.000060  0.000001
 12  -1270.82052623  -0.0000000587  0.000010  0.000040  0.000033  0.000000
 13  -1270.82052623  -0.0000000021  0.000003  0.000012  0.000007  0.000000
                  ***Gradient check signals convergence***
              ***Rediagonalizing the Fockian in SOSCF/NRSCF***

               *****************************************************
               *                     SUCCESS                       *
               *           SCF CONVERGED AFTER  14 CYCLES          *
               *****************************************************


----------------
TOTAL SCF ENERGY
----------------

Total Energy       :        -1270.82052622 Eh          -34580.78457 eV

Components:
Nuclear Repulsion  :         1691.91536788 Eh           46039.35776 eV
Electronic Energy  :        -2962.73589410 Eh          -80620.14233 eV
One Electron Energy:        -5105.14652208 Eh         -138918.09933 eV
Two Electron Energy:         2142.41062798 Eh           58297.95700 eV

Virial components:
Potential Energy   :        -2539.75136894 Eh          -69110.14824 eV
Kinetic Energy     :         1268.93084272 Eh           34529.36367 eV
Virial Ratio       :            2.00148919


---------------
SCF CONVERGENCE
---------------

  Last Energy change         ...    1.2465e-08  Tolerance :   1.0000e-08
  Last MAX-Density change    ...    1.9214e-06  Tolerance :   1.0000e-07
  Last RMS-Density change    ...    2.5808e-08  Tolerance :   5.0000e-09
  Last Orbital Gradient      ...    1.3202e-06  Tolerance :   1.0000e-05
  Last Orbital Rotation      ...    2.9700e-06  Tolerance :   1.0000e-05

             **** THE GBW FILE WAS UPDATED (CONFS/Conf806.orca.gbw) ****
             **** DENSITY CONFS/Conf806.orca.scfp WAS UPDATED ****
             **** ENERGY FILE WAS UPDATED (CONFS/Conf806.orca.en.tmp) ****
             **** THE GBW FILE WAS UPDATED (CONFS/Conf806.orca.gbw) ****
             **** DENSITY CONFS/Conf806.orca.scfp WAS UPDATED ****
----------------
ORBITAL ENERGIES
----------------

  NO   OCC          E(Eh)            E(eV) 
   0   2.0000     -91.888577     -2500.4153 
   1   2.0000     -20.602739      -560.6290 
   2   2.0000     -20.595267      -560.4257 
   3   2.0000     -20.541341      -558.9583 
   4   2.0000     -15.628763      -425.2803 
   5   2.0000     -15.607857      -424.7114 
   6   2.0000     -11.395811      -310.0958 
   7   2.0000     -11.383643      -309.7647 
   8   2.0000     -11.335760      -308.4617 
   9   2.0000     -11.312312      -307.8236 
  10   2.0000     -11.308317      -307.7150 
  11   2.0000     -11.295900      -307.3771 
  12   2.0000     -11.258783      -306.3671 
  13   2.0000     -11.258365      -306.3557 
  14   2.0000     -11.253814      -306.2318 
  15   2.0000     -11.251702      -306.1744 
  16   2.0000     -11.241771      -305.9041 
  17   2.0000     -11.237294      -305.7823 
  18   2.0000     -11.237094      -305.7769 
  19   2.0000     -11.229499      -305.5702 
  20   2.0000      -8.893638      -242.0082 
  21   2.0000      -6.575213      -178.9206 
  22   2.0000      -6.573209      -178.8661 
  23   2.0000      -6.572622      -178.8501 
  24   2.0000      -1.451215       -39.4896 
  25   2.0000      -1.414922       -38.5020 
  26   2.0000      -1.355149       -36.8755 
  27   2.0000      -1.339712       -36.4554 
  28   2.0000      -1.238088       -33.6901 
  29   2.0000      -1.156483       -31.4695 
  30   2.0000      -1.119928       -30.4748 
  31   2.0000      -1.042844       -28.3772 
  32   2.0000      -1.039106       -28.2755 
  33   2.0000      -1.013762       -27.5859 
  34   2.0000      -0.995394       -27.0860 
  35   2.0000      -0.983914       -26.7737 
  36   2.0000      -0.921879       -25.0856 
  37   2.0000      -0.891984       -24.2721 
  38   2.0000      -0.846466       -23.0335 
  39   2.0000      -0.836611       -22.7653 
  40   2.0000      -0.832807       -22.6618 
  41   2.0000      -0.817023       -22.2323 
  42   2.0000      -0.763225       -20.7684 
  43   2.0000      -0.731554       -19.9066 
  44   2.0000      -0.722268       -19.6539 
  45   2.0000      -0.694415       -18.8960 
  46   2.0000      -0.686812       -18.6891 
  47   2.0000      -0.680482       -18.5169 
  48   2.0000      -0.673281       -18.3209 
  49   2.0000      -0.657246       -17.8846 
  50   2.0000      -0.645453       -17.5637 
  51   2.0000      -0.644032       -17.5250 
  52   2.0000      -0.632435       -17.2094 
  53   2.0000      -0.607605       -16.5338 
  54   2.0000      -0.605395       -16.4736 
  55   2.0000      -0.598530       -16.2868 
  56   2.0000      -0.597758       -16.2658 
  57   2.0000      -0.577602       -15.7173 
  58   2.0000      -0.570368       -15.5205 
  59   2.0000      -0.568015       -15.4565 
  60   2.0000      -0.563169       -15.3246 
  61   2.0000      -0.541988       -14.7482 
  62   2.0000      -0.539746       -14.6872 
  63   2.0000      -0.530941       -14.4476 
  64   2.0000      -0.523930       -14.2569 
  65   2.0000      -0.512912       -13.9571 
  66   2.0000      -0.501123       -13.6362 
  67   2.0000      -0.497047       -13.5253 
  68   2.0000      -0.485450       -13.2098 
  69   2.0000      -0.463636       -12.6162 
  70   2.0000      -0.454256       -12.3609 
  71   2.0000      -0.449516       -12.2319 
  72   2.0000      -0.354092        -9.6353 
  73   2.0000      -0.348277        -9.4771 
  74   2.0000      -0.327864        -8.9216 
  75   2.0000      -0.320080        -8.7098 
  76   2.0000      -0.315557        -8.5867 
  77   0.0000       0.076893         2.0924 
  78   0.0000       0.107843         2.9346 
  79   0.0000       0.123105         3.3499 
  80   0.0000       0.132682         3.6105 
  81   0.0000       0.135838         3.6964 
  82   0.0000       0.142666         3.8822 
  83   0.0000       0.154837         4.2133 
  84   0.0000       0.157032         4.2731 
  85   0.0000       0.166690         4.5359 
  86   0.0000       0.171887         4.6773 
  87   0.0000       0.177729         4.8363 
  88   0.0000       0.185201         5.0396 
  89   0.0000       0.193371         5.2619 
  90   0.0000       0.205948         5.6041 
  91   0.0000       0.212159         5.7731 
  92   0.0000       0.213105         5.7989 
  93   0.0000       0.218595         5.9483 
  94   0.0000       0.223931         6.0935 
  95   0.0000       0.232772         6.3340 
  96   0.0000       0.246600         6.7103 
  97   0.0000       0.249657         6.7935 
  98   0.0000       0.261523         7.1164 
  99   0.0000       0.276650         7.5280 
 100   0.0000       0.294662         8.0181 
 101   0.0000       0.303473         8.2579 
 102   0.0000       0.308002         8.3812 
 103   0.0000       0.318549         8.6682 
 104   0.0000       0.327147         8.9021 
 105   0.0000       0.332822         9.0566 
 106   0.0000       0.340773         9.2729 
 107   0.0000       0.348031         9.4704 
 108   0.0000       0.355627         9.6771 
 109   0.0000       0.369499        10.0546 
 110   0.0000       0.373761        10.1706 
 111   0.0000       0.377101        10.2614 
 112   0.0000       0.383270        10.4293 
 113   0.0000       0.390613        10.6291 
 114   0.0000       0.392743        10.6871 
 115   0.0000       0.399991        10.8843 
 116   0.0000       0.407874        11.0988 
 117   0.0000       0.427889        11.6435 
 118   0.0000       0.432780        11.7765 
 119   0.0000       0.435003        11.8370 
 120   0.0000       0.440431        11.9847 
 121   0.0000       0.450447        12.2573 
 122   0.0000       0.452094        12.3021 
 123   0.0000       0.457606        12.4521 
 124   0.0000       0.465430        12.6650 
 125   0.0000       0.470108        12.7923 
 126   0.0000       0.476732        12.9725 
 127   0.0000       0.484371        13.1804 
 128   0.0000       0.486411        13.2359 
 129   0.0000       0.491446        13.3729 
 130   0.0000       0.493990        13.4422 
 131   0.0000       0.509238        13.8571 
 132   0.0000       0.512778        13.9534 
 133   0.0000       0.516797        14.0628 
 134   0.0000       0.521891        14.2014 
 135   0.0000       0.530407        14.4331 
 136   0.0000       0.534179        14.5357 
 137   0.0000       0.538741        14.6599 
 138   0.0000       0.542939        14.7741 
 139   0.0000       0.544796        14.8247 
 140   0.0000       0.552773        15.0417 
 141   0.0000       0.562411        15.3040 
 142   0.0000       0.566284        15.4094 
 143   0.0000       0.569097        15.4859 
 144   0.0000       0.573120        15.5954 
 145   0.0000       0.580007        15.7828 
 146   0.0000       0.581111        15.8128 
 147   0.0000       0.586213        15.9517 
 148   0.0000       0.599238        16.3061 
 149   0.0000       0.604270        16.4430 
 150   0.0000       0.607319        16.5260 
 151   0.0000       0.608048        16.5458 
 152   0.0000       0.612413        16.6646 
 153   0.0000       0.616904        16.7868 
 154   0.0000       0.619126        16.8473 
 155   0.0000       0.620591        16.8871 
 156   0.0000       0.627442        17.0736 
 157   0.0000       0.632386        17.2081 
 158   0.0000       0.637146        17.3376 
 159   0.0000       0.639666        17.4062 
 160   0.0000       0.645903        17.5759 
 161   0.0000       0.651189        17.7198 
 162   0.0000       0.656636        17.8680 
 163   0.0000       0.661868        18.0103 
 164   0.0000       0.663469        18.0539 
 165   0.0000       0.667123        18.1533 
 166   0.0000       0.670806        18.2535 
 167   0.0000       0.682010        18.5584 
 168   0.0000       0.685664        18.6579 
 169   0.0000       0.692727        18.8501 
 170   0.0000       0.701196        19.0805 
 171   0.0000       0.706644        19.2288 
 172   0.0000       0.708704        19.2848 
 173   0.0000       0.714833        19.4516 
 174   0.0000       0.724803        19.7229 
 175   0.0000       0.730284        19.8720 
 176   0.0000       0.736006        20.0277 
 177   0.0000       0.744022        20.2459 
 178   0.0000       0.751029        20.4365 
 179   0.0000       0.756039        20.5729 
 180   0.0000       0.760942        20.7063 
 181   0.0000       0.768600        20.9147 
 182   0.0000       0.772588        21.0232 
 183   0.0000       0.788765        21.4634 
 184   0.0000       0.791428        21.5358 
 185   0.0000       0.803546        21.8656 
 186   0.0000       0.817176        22.2365 
 187   0.0000       0.823921        22.4200 
 188   0.0000       0.824250        22.4290 
 189   0.0000       0.836593        22.7648 
 190   0.0000       0.837645        22.7935 
 191   0.0000       0.848980        23.1019 
 192   0.0000       0.856488        23.3062 
 193   0.0000       0.859592        23.3907 
 194   0.0000       0.865128        23.5413 
 195   0.0000       0.871756        23.7217 
 196   0.0000       0.885089        24.0845 
 197   0.0000       0.888582        24.1796 
 198   0.0000       0.899409        24.4742 
 199   0.0000       0.901862        24.5409 
 200   0.0000       0.912486        24.8300 
 201   0.0000       0.918094        24.9826 
 202   0.0000       0.924519        25.1574 
 203   0.0000       0.932705        25.3802 
 204   0.0000       0.942400        25.6440 
 205   0.0000       0.955191        25.9921 
 206   0.0000       0.957549        26.0562 
 207   0.0000       0.965232        26.2653 
 208   0.0000       0.971651        26.4400 
 209   0.0000       0.972466        26.4621 
 210   0.0000       0.981197        26.6997 
 211   0.0000       0.989293        26.9200 
 212   0.0000       0.990934        26.9647 
 213   0.0000       1.001450        27.2509 
 214   0.0000       1.013211        27.5709 
 215   0.0000       1.017985        27.7008 
 216   0.0000       1.031083        28.0572 
 217   0.0000       1.031994        28.0820 
 218   0.0000       1.038471        28.2582 
 219   0.0000       1.042034        28.3552 
 220   0.0000       1.047651        28.5080 
 221   0.0000       1.050890        28.5962 
 222   0.0000       1.064718        28.9724 
 223   0.0000       1.072198        29.1760 
 224   0.0000       1.081289        29.4234 
 225   0.0000       1.083084        29.4722 
 226   0.0000       1.096283        29.8314 
 227   0.0000       1.101537        29.9743 
 228   0.0000       1.109257        30.1844 
 229   0.0000       1.125648        30.6304 
 230   0.0000       1.135951        30.9108 
 231   0.0000       1.138431        30.9783 
 232   0.0000       1.140665        31.0391 
 233   0.0000       1.149733        31.2858 
 234   0.0000       1.158852        31.5340 
 235   0.0000       1.164027        31.6748 
 236   0.0000       1.165313        31.7098 
 237   0.0000       1.166642        31.7459 
 238   0.0000       1.180111        32.1124 
 239   0.0000       1.183073        32.1931 
 240   0.0000       1.196737        32.5649 
 241   0.0000       1.200130        32.6572 
 242   0.0000       1.202625        32.7251 
 243   0.0000       1.214036        33.0356 
 244   0.0000       1.225334        33.3430 
 245   0.0000       1.228501        33.4292 
 246   0.0000       1.232240        33.5309 
 247   0.0000       1.235978        33.6327 
 248   0.0000       1.244473        33.8638 
 249   0.0000       1.253168        34.1004 
 250   0.0000       1.257190        34.2099 
 251   0.0000       1.260649        34.3040 
 252   0.0000       1.271078        34.5878 
 253   0.0000       1.280923        34.8557 
 254   0.0000       1.286837        35.0166 
 255   0.0000       1.292135        35.1608 
 256   0.0000       1.301526        35.4163 
 257   0.0000       1.313242        35.7351 
 258   0.0000       1.316619        35.8270 
 259   0.0000       1.328613        36.1534 
 260   0.0000       1.334252        36.3068 
 261   0.0000       1.336684        36.3730 
 262   0.0000       1.340895        36.4876 
 263   0.0000       1.349342        36.7174 
 264   0.0000       1.359157        36.9845 
 265   0.0000       1.369466        37.2651 
 266   0.0000       1.384962        37.6867 
 267   0.0000       1.392831        37.9009 
 268   0.0000       1.398409        38.0526 
 269   0.0000       1.408268        38.3209 
 270   0.0000       1.418497        38.5993 
 271   0.0000       1.421394        38.6781 
 272   0.0000       1.432005        38.9668 
 273   0.0000       1.437976        39.1293 
 274   0.0000       1.442955        39.2648 
 275   0.0000       1.468452        39.9586 
 276   0.0000       1.474225        40.1157 
 277   0.0000       1.480707        40.2921 
 278   0.0000       1.486164        40.4406 
 279   0.0000       1.495161        40.6854 
 280   0.0000       1.499178        40.7947 
 281   0.0000       1.501571        40.8598 
 282   0.0000       1.505311        40.9616 
 283   0.0000       1.513875        41.1946 
 284   0.0000       1.519830        41.3567 
 285   0.0000       1.520535        41.3758 
 286   0.0000       1.530773        41.6545 
 287   0.0000       1.534845        41.7653 
 288   0.0000       1.542291        41.9679 
 289   0.0000       1.549134        42.1541 
 290   0.0000       1.556352        42.3505 
 291   0.0000       1.564553        42.5737 
 292   0.0000       1.568794        42.6890 
 293   0.0000       1.576705        42.9043 
 294   0.0000       1.585079        43.1322 
 295   0.0000       1.592884        43.3446 
 296   0.0000       1.599594        43.5272 
 297   0.0000       1.603708        43.6391 
 298   0.0000       1.609647        43.8007 
 299   0.0000       1.618277        44.0356 
 300   0.0000       1.634556        44.4785 
 301   0.0000       1.645213        44.7685 
 302   0.0000       1.652403        44.9642 
 303   0.0000       1.653326        44.9893 
 304   0.0000       1.655799        45.0566 
 305   0.0000       1.676839        45.6291 
 306   0.0000       1.683216        45.8026 
 307   0.0000       1.694857        46.1194 
 308   0.0000       1.698135        46.2086 
 309   0.0000       1.702130        46.3173 
 310   0.0000       1.706890        46.4468 
 311   0.0000       1.711668        46.5769 
 312   0.0000       1.732091        47.1326 
 313   0.0000       1.733980        47.1840 
 314   0.0000       1.748714        47.5849 
 315   0.0000       1.755541        47.7707 
 316   0.0000       1.778151        48.3859 
 317   0.0000       1.781509        48.4773 
 318   0.0000       1.785476        48.5853 
 319   0.0000       1.793179        48.7949 
 320   0.0000       1.809127        49.2288 
 321   0.0000       1.815452        49.4010 
 322   0.0000       1.824441        49.6456 
 323   0.0000       1.836467        49.9728 
 324   0.0000       1.847205        50.2650 
 325   0.0000       1.859953        50.6119 
 326   0.0000       1.878595        51.1192 
 327   0.0000       1.883423        51.2505 
 328   0.0000       1.896182        51.5977 
 329   0.0000       1.910250        51.9805 
 330   0.0000       1.916931        52.1624 
 331   0.0000       1.929350        52.5003 
 332   0.0000       1.937734        52.7284 
 333   0.0000       1.941347        52.8267 
 334   0.0000       1.958766        53.3007 
 335   0.0000       1.966585        53.5135 
 336   0.0000       1.987987        54.0959 
 337   0.0000       1.995056        54.2882 
 338   0.0000       2.004703        54.5508 
 339   0.0000       2.022938        55.0469 
 340   0.0000       2.026114        55.1334 
 341   0.0000       2.033009        55.3210 
 342   0.0000       2.036358        55.4121 
 343   0.0000       2.074321        56.4451 
 344   0.0000       2.112079        57.4726 
 345   0.0000       2.120591        57.7042 
 346   0.0000       2.126136        57.8551 
 347   0.0000       2.131197        57.9928 
 348   0.0000       2.146408        58.4067 
 349   0.0000       2.153314        58.5947 
 350   0.0000       2.163195        58.8635 
 351   0.0000       2.203160        59.9510 
 352   0.0000       2.215433        60.2850 
 353   0.0000       2.224517        60.5322 
 354   0.0000       2.240226        60.9596 
 355   0.0000       2.256603        61.4053 
 356   0.0000       2.282103        62.0992 
 357   0.0000       2.288824        62.2821 
 358   0.0000       2.295528        62.4645 
 359   0.0000       2.301261        62.6205 
 360   0.0000       2.309651        62.8488 
 361   0.0000       2.333069        63.4860 
 362   0.0000       2.342339        63.7383 
 363   0.0000       2.355131        64.0864 
 364   0.0000       2.361017        64.2465 
 365   0.0000       2.379307        64.7442 
 366   0.0000       2.390510        65.0491 
 367   0.0000       2.392257        65.0966 
 368   0.0000       2.411188        65.6118 
 369   0.0000       2.417080        65.7721 
 370   0.0000       2.437176        66.3189 
 371   0.0000       2.456876        66.8550 
 372   0.0000       2.463812        67.0437 
 373   0.0000       2.469708        67.2042 
 374   0.0000       2.471769        67.2603 
 375   0.0000       2.500524        68.0427 
 376   0.0000       2.507887        68.2431 
 377   0.0000       2.516795        68.4855 
 378   0.0000       2.523418        68.6657 
 379   0.0000       2.561238        69.6948 
 380   0.0000       2.566683        69.8430 
 381   0.0000       2.570741        69.9534 
 382   0.0000       2.580084        70.2076 
 383   0.0000       2.602589        70.8200 
 384   0.0000       2.608887        70.9914 
 385   0.0000       2.618137        71.2431 
 386   0.0000       2.630645        71.5835 
 387   0.0000       2.642650        71.9101 
 388   0.0000       2.653612        72.2085 
 389   0.0000       2.675715        72.8099 
 390   0.0000       2.686728        73.1096 
 391   0.0000       2.694824        73.3299 
 392   0.0000       2.700092        73.4732 
 393   0.0000       2.708765        73.7092 
 394   0.0000       2.729888        74.2840 
 395   0.0000       2.730876        74.3109 
 396   0.0000       2.733627        74.3858 
 397   0.0000       2.741952        74.6123 
 398   0.0000       2.749341        74.8134 
 399   0.0000       2.758716        75.0685 
 400   0.0000       2.772371        75.4401 
 401   0.0000       2.778828        75.6158 
 402   0.0000       2.787650        75.8558 
 403   0.0000       2.793078        76.0035 
 404   0.0000       2.811342        76.5005 
 405   0.0000       2.832028        77.0634 
 406   0.0000       2.836379        77.1818 
 407   0.0000       2.847534        77.4853 
 408   0.0000       2.852212        77.6126 
 409   0.0000       2.856421        77.7272 
 410   0.0000       2.866845        78.0108 
 411   0.0000       2.878197        78.3197 
 412   0.0000       2.886089        78.5345 
 413   0.0000       2.892065        78.6971 
 414   0.0000       2.897844        78.8543 
 415   0.0000       2.911205        79.2179 
 416   0.0000       2.930552        79.7444 
 417   0.0000       2.935948        79.8912 
 418   0.0000       2.947991        80.2189 
 419   0.0000       2.956070        80.4388 
 420   0.0000       2.961068        80.5747 
 421   0.0000       2.975015        80.9543 
 422   0.0000       2.983345        81.1809 
 423   0.0000       2.991213        81.3951 
 424   0.0000       3.003541        81.7305 
 425   0.0000       3.010296        81.9143 
 426   0.0000       3.012632        81.9779 
 427   0.0000       3.023941        82.2856 
 428   0.0000       3.032072        82.5069 
 429   0.0000       3.035688        82.6053 
 430   0.0000       3.052342        83.0584 
 431   0.0000       3.053556        83.0915 
 432   0.0000       3.061969        83.3204 
 433   0.0000       3.066868        83.4537 
 434   0.0000       3.077511        83.7433 
 435   0.0000       3.083944        83.9184 
 436   0.0000       3.088451        84.0410 
 437   0.0000       3.093816        84.1870 
 438   0.0000       3.098603        84.3173 
 439   0.0000       3.101712        84.4019 
 440   0.0000       3.109941        84.6258 
 441   0.0000       3.115836        84.7862 
 442   0.0000       3.120085        84.9018 
 443   0.0000       3.130365        85.1816 
 444   0.0000       3.137494        85.3756 
 445   0.0000       3.146691        85.6258 
 446   0.0000       3.153547        85.8124 
 447   0.0000       3.165907        86.1487 
 448   0.0000       3.170667        86.2782 
 449   0.0000       3.178810        86.4998 
 450   0.0000       3.196473        86.9805 
 451   0.0000       3.202220        87.1368 
 452   0.0000       3.208652        87.3119 
 453   0.0000       3.216040        87.5129 
 454   0.0000       3.228116        87.8415 
 455   0.0000       3.234887        88.0257 
 456   0.0000       3.241900        88.2166 
 457   0.0000       3.250186        88.4420 
 458   0.0000       3.253852        88.5418 
 459   0.0000       3.259684        88.7005 
 460   0.0000       3.272066        89.0374 
 461   0.0000       3.276810        89.1665 
 462   0.0000       3.280506        89.2671 
 463   0.0000       3.291002        89.5527 
 464   0.0000       3.299146        89.7743 
 465   0.0000       3.307403        89.9990 
 466   0.0000       3.309045        90.0437 
 467   0.0000       3.311773        90.1179 
 468   0.0000       3.324893        90.4749 
 469   0.0000       3.326074        90.5071 
 470   0.0000       3.335884        90.7740 
 471   0.0000       3.344068        90.9967 
 472   0.0000       3.347402        91.0875 
 473   0.0000       3.353359        91.2495 
 474   0.0000       3.363370        91.5219 
 475   0.0000       3.369976        91.7017 
 476   0.0000       3.373253        91.7909 
 477   0.0000       3.381128        92.0052 
 478   0.0000       3.387574        92.1806 
 479   0.0000       3.391052        92.2752 
 480   0.0000       3.393696        92.3472 
 481   0.0000       3.400628        92.5358 
 482   0.0000       3.405403        92.6657 
 483   0.0000       3.407744        92.7294 
 484   0.0000       3.412531        92.8597 
 485   0.0000       3.416023        92.9547 
 486   0.0000       3.421181        93.0951 
 487   0.0000       3.425871        93.2227 
 488   0.0000       3.427549        93.2684 
 489   0.0000       3.438253        93.5596 
 490   0.0000       3.444488        93.7293 
 491   0.0000       3.448032        93.8257 
 492   0.0000       3.450195        93.8846 
 493   0.0000       3.453289        93.9688 
 494   0.0000       3.467687        94.3606 
 495   0.0000       3.471907        94.4754 
 496   0.0000       3.476244        94.5934 
 497   0.0000       3.484820        94.8268 
 498   0.0000       3.492489        95.0355 
 499   0.0000       3.497342        95.1675 
 500   0.0000       3.499372        95.2228 
 501   0.0000       3.518704        95.7488 
 502   0.0000       3.525423        95.9316 
 503   0.0000       3.536898        96.2439 
 504   0.0000       3.542641        96.4002 
 505   0.0000       3.549507        96.5870 
 506   0.0000       3.552293        96.6628 
 507   0.0000       3.563680        96.9727 
 508   0.0000       3.566645        97.0533 
 509   0.0000       3.580651        97.4345 
 510   0.0000       3.583851        97.5215 
 511   0.0000       3.600653        97.9788 
 512   0.0000       3.605392        98.1077 
 513   0.0000       3.609982        98.2326 
 514   0.0000       3.618259        98.4578 
 515   0.0000       3.624527        98.6284 
 516   0.0000       3.629601        98.7665 
 517   0.0000       3.632900        98.8562 
 518   0.0000       3.635270        98.9207 
 519   0.0000       3.644229        99.1645 
 520   0.0000       3.651873        99.3725 
 521   0.0000       3.653498        99.4167 
 522   0.0000       3.661012        99.6212 
 523   0.0000       3.662864        99.6716 
 524   0.0000       3.667954        99.8101 
 525   0.0000       3.675359       100.0116 
 526   0.0000       3.683185       100.2246 
 527   0.0000       3.687703       100.3475 
 528   0.0000       3.699620       100.6718 
 529   0.0000       3.713441       101.0479 
 530   0.0000       3.716365       101.1274 
 531   0.0000       3.719415       101.2104 
 532   0.0000       3.724522       101.3494 
 533   0.0000       3.731916       101.5506 
 534   0.0000       3.736520       101.6759 
 535   0.0000       3.748603       102.0047 
 536   0.0000       3.752901       102.1216 
 537   0.0000       3.758674       102.2787 
 538   0.0000       3.764528       102.4380 
 539   0.0000       3.771016       102.6146 
 540   0.0000       3.776042       102.7513 
 541   0.0000       3.787720       103.0691 
 542   0.0000       3.789375       103.1141 
 543   0.0000       3.793869       103.2364 
 544   0.0000       3.805210       103.5450 
 545   0.0000       3.810667       103.6935 
 546   0.0000       3.820555       103.9626 
 547   0.0000       3.828316       104.1738 
 548   0.0000       3.831856       104.2701 
 549   0.0000       3.834566       104.3439 
 550   0.0000       3.844161       104.6049 
 551   0.0000       3.849553       104.7517 
 552   0.0000       3.854998       104.8998 
 553   0.0000       3.876866       105.4949 
 554   0.0000       3.890165       105.8568 
 555   0.0000       3.903504       106.2197 
 556   0.0000       3.908753       106.3626 
 557   0.0000       3.913627       106.4952 
 558   0.0000       3.922657       106.7409 
 559   0.0000       3.926662       106.8499 
 560   0.0000       3.945335       107.3580 
 561   0.0000       3.949252       107.4646 
 562   0.0000       3.953423       107.5781 
 563   0.0000       3.974046       108.1393 
 564   0.0000       3.979374       108.2843 
 565   0.0000       3.986402       108.4755 
 566   0.0000       3.994080       108.6844 
 567   0.0000       3.998757       108.8117 
 568   0.0000       4.006200       109.0142 
 569   0.0000       4.018908       109.3600 
 570   0.0000       4.023587       109.4874 
 571   0.0000       4.038945       109.9053 
 572   0.0000       4.045807       110.0920 
 573   0.0000       4.052622       110.2774 
 574   0.0000       4.064526       110.6014 
 575   0.0000       4.075550       110.9013 
 576   0.0000       4.082704       111.0960 
 577   0.0000       4.086396       111.1965 
 578   0.0000       4.104040       111.6766 
 579   0.0000       4.106935       111.7554 
 580   0.0000       4.111115       111.8691 
 581   0.0000       4.126197       112.2795 
 582   0.0000       4.132708       112.4567 
 583   0.0000       4.135093       112.5216 
 584   0.0000       4.140839       112.6780 
 585   0.0000       4.141434       112.6942 
 586   0.0000       4.147891       112.8699 
 587   0.0000       4.152608       112.9982 
 588   0.0000       4.165371       113.3455 
 589   0.0000       4.173577       113.5688 
 590   0.0000       4.179692       113.7352 
 591   0.0000       4.182594       113.8142 
 592   0.0000       4.188673       113.9796 
 593   0.0000       4.192822       114.0925 
 594   0.0000       4.205089       114.4263 
 595   0.0000       4.210579       114.5757 
 596   0.0000       4.217272       114.7578 
 597   0.0000       4.222145       114.8904 
 598   0.0000       4.228406       115.0608 
 599   0.0000       4.231563       115.1467 
 600   0.0000       4.235031       115.2411 
 601   0.0000       4.241850       115.4266 
 602   0.0000       4.256950       115.8375 
 603   0.0000       4.267737       116.1310 
 604   0.0000       4.296080       116.9023 
 605   0.0000       4.298806       116.9765 
 606   0.0000       4.307691       117.2182 
 607   0.0000       4.316800       117.4661 
 608   0.0000       4.323533       117.6493 
 609   0.0000       4.334263       117.9413 
 610   0.0000       4.336506       118.0023 
 611   0.0000       4.345795       118.2551 
 612   0.0000       4.352589       118.4400 
 613   0.0000       4.360410       118.6528 
 614   0.0000       4.362540       118.7108 
 615   0.0000       4.368204       118.8649 
 616   0.0000       4.370512       118.9277 
 617   0.0000       4.374655       119.0404 
 618   0.0000       4.384081       119.2969 
 619   0.0000       4.397962       119.6746 
 620   0.0000       4.400476       119.7430 
 621   0.0000       4.408561       119.9630 
 622   0.0000       4.419080       120.2493 
 623   0.0000       4.425353       120.4200 
 624   0.0000       4.432619       120.6177 
 625   0.0000       4.437716       120.7564 
 626   0.0000       4.450085       121.0930 
 627   0.0000       4.463421       121.4559 
 628   0.0000       4.466755       121.5466 
 629   0.0000       4.477263       121.8325 
 630   0.0000       4.497476       122.3825 
 631   0.0000       4.507474       122.6546 
 632   0.0000       4.511879       122.7745 
 633   0.0000       4.525179       123.1364 
 634   0.0000       4.533317       123.3578 
 635   0.0000       4.539520       123.5266 
 636   0.0000       4.547265       123.7374 
 637   0.0000       4.555995       123.9749 
 638   0.0000       4.564132       124.1963 
 639   0.0000       4.570173       124.3607 
 640   0.0000       4.582655       124.7004 
 641   0.0000       4.587983       124.8454 
 642   0.0000       4.589825       124.8955 
 643   0.0000       4.602610       125.2434 
 644   0.0000       4.613092       125.5286 
 645   0.0000       4.621716       125.7633 
 646   0.0000       4.625505       125.8664 
 647   0.0000       4.636686       126.1706 
 648   0.0000       4.640913       126.2857 
 649   0.0000       4.650322       126.5417 
 650   0.0000       4.654180       126.6467 
 651   0.0000       4.660398       126.8159 
 652   0.0000       4.677504       127.2813 
 653   0.0000       4.678951       127.3207 
 654   0.0000       4.688483       127.5801 
 655   0.0000       4.693130       127.7065 
 656   0.0000       4.701671       127.9390 
 657   0.0000       4.716254       128.3358 
 658   0.0000       4.732100       128.7670 
 659   0.0000       4.735678       128.8644 
 660   0.0000       4.756359       129.4271 
 661   0.0000       4.759301       129.5072 
 662   0.0000       4.766061       129.6911 
 663   0.0000       4.795599       130.4949 
 664   0.0000       4.799773       130.6085 
 665   0.0000       4.818938       131.1300 
 666   0.0000       4.825136       131.2986 
 667   0.0000       4.830587       131.4470 
 668   0.0000       4.863657       132.3468 
 669   0.0000       4.887789       133.0035 
 670   0.0000       4.909774       133.6017 
 671   0.0000       4.915881       133.7679 
 672   0.0000       4.931374       134.1895 
 673   0.0000       4.959429       134.9529 
 674   0.0000       4.967653       135.1767 
 675   0.0000       4.984074       135.6235 
 676   0.0000       5.013892       136.4349 
 677   0.0000       5.020609       136.6177 
 678   0.0000       5.031991       136.9274 
 679   0.0000       5.046883       137.3327 
 680   0.0000       5.054639       137.5437 
 681   0.0000       5.076357       138.1347 
 682   0.0000       5.088050       138.4529 
 683   0.0000       5.097434       138.7082 
 684   0.0000       5.109830       139.0455 
 685   0.0000       5.118493       139.2813 
 686   0.0000       5.131066       139.6234 
 687   0.0000       5.140890       139.8907 
 688   0.0000       5.145676       140.0210 
 689   0.0000       5.149997       140.1385 
 690   0.0000       5.162453       140.4775 
 691   0.0000       5.170438       140.6948 
 692   0.0000       5.187700       141.1645 
 693   0.0000       5.190006       141.2272 
 694   0.0000       5.204697       141.6270 
 695   0.0000       5.212148       141.8298 
 696   0.0000       5.221409       142.0818 
 697   0.0000       5.225049       142.1808 
 698   0.0000       5.227989       142.2608 
 699   0.0000       5.254928       142.9939 
 700   0.0000       5.264297       143.2488 
 701   0.0000       5.277423       143.6060 
 702   0.0000       5.297762       144.1594 
 703   0.0000       5.317876       144.7068 
 704   0.0000       5.327561       144.9703 
 705   0.0000       5.334014       145.1459 
 706   0.0000       5.344724       145.4373 
 707   0.0000       5.357659       145.7893 
 708   0.0000       5.368552       146.0857 
 709   0.0000       5.383065       146.4806 
 710   0.0000       5.399982       146.9410 
 711   0.0000       5.412365       147.2779 
 712   0.0000       5.439596       148.0189 
 713   0.0000       5.446914       148.2181 
 714   0.0000       5.468672       148.8101 
 715   0.0000       5.487784       149.3302 
 716   0.0000       5.503388       149.7548 
 717   0.0000       5.513215       150.0222 
 718   0.0000       5.520771       150.2278 
 719   0.0000       5.539688       150.7426 
 720   0.0000       5.546148       150.9183 
 721   0.0000       5.548806       150.9907 
 722   0.0000       5.556257       151.1934 
 723   0.0000       5.576164       151.7351 
 724   0.0000       5.586998       152.0300 
 725   0.0000       5.606424       152.5586 
 726   0.0000       5.615255       152.7989 
 727   0.0000       5.618800       152.8953 
 728   0.0000       5.634438       153.3208 
 729   0.0000       5.638202       153.4233 
 730   0.0000       5.639741       153.4652 
 731   0.0000       5.652621       153.8156 
 732   0.0000       5.669561       154.2766 
 733   0.0000       5.684699       154.6885 
 734   0.0000       5.704178       155.2186 
 735   0.0000       5.710056       155.3785 
 736   0.0000       5.729576       155.9097 
 737   0.0000       5.739897       156.1905 
 738   0.0000       5.745099       156.3321 
 739   0.0000       5.753601       156.5634 
 740   0.0000       5.768702       156.9744 
 741   0.0000       5.787143       157.4762 
 742   0.0000       5.806760       158.0100 
 743   0.0000       5.810726       158.1179 
 744   0.0000       5.821220       158.4035 
 745   0.0000       5.841968       158.9680 
 746   0.0000       5.857071       159.3790 
 747   0.0000       5.871465       159.7707 
 748   0.0000       5.908951       160.7907 
 749   0.0000       5.928808       161.3311 
 750   0.0000       5.934923       161.4975 
 751   0.0000       5.958730       162.1453 
 752   0.0000       5.975185       162.5931 
 753   0.0000       5.988536       162.9563 
 754   0.0000       6.011654       163.5854 
 755   0.0000       6.023693       163.9130 
 756   0.0000       6.060424       164.9125 
 757   0.0000       6.066192       165.0695 
 758   0.0000       6.081066       165.4742 
 759   0.0000       6.103138       166.0748 
 760   0.0000       6.121857       166.5842 
 761   0.0000       6.168566       167.8552 
 762   0.0000       6.206533       168.8883 
 763   0.0000       6.222262       169.3164 
 764   0.0000       6.227014       169.4457 
 765   0.0000       6.254517       170.1940 
 766   0.0000       6.299287       171.4123 
 767   0.0000       6.302317       171.4948 
 768   0.0000       6.331930       172.3006 
 769   0.0000       6.351676       172.8379 
 770   0.0000       6.372205       173.3965 
 771   0.0000       6.388131       173.8299 
 772   0.0000       6.404040       174.2628 
 773   0.0000       6.453436       175.6069 
 774   0.0000       6.459339       175.7676 
 775   0.0000       6.502938       176.9539 
 776   0.0000       6.504591       176.9989 
 777   0.0000       6.549939       178.2329 
 778   0.0000       6.558248       178.4590 
 779   0.0000       6.601107       179.6253 
 780   0.0000       6.673569       181.5970 
 781   0.0000       6.680386       181.7825 
 782   0.0000       6.726111       183.0268 
 783   0.0000       6.761440       183.9881 
 784   0.0000       6.830041       185.8549 
 785   0.0000       6.884906       187.3478 
 786   0.0000       6.906173       187.9265 
 787   0.0000       6.914039       188.1406 
 788   0.0000       6.921886       188.3541 
 789   0.0000       7.050291       191.8482 
 790   0.0000       7.062112       192.1698 
 791   0.0000       7.082073       192.7130 
 792   0.0000       7.084199       192.7709 
 793   0.0000       7.147053       194.4812 
 794   0.0000       7.167565       195.0394 
 795   0.0000       7.262241       197.6156 
 796   0.0000       7.282816       198.1755 
 797   0.0000       7.289384       198.3542 
 798   0.0000       7.341085       199.7611 
 799   0.0000       7.358345       200.2308 
 800   0.0000       7.458833       202.9652 
 801   0.0000       7.516579       204.5365 
 802   0.0000       7.579247       206.2418 
 803   0.0000       7.585019       206.3989 
 804   0.0000       7.708668       209.7635 
 805   0.0000       7.817962       212.7376 
 806   0.0000       7.836908       213.2531 
 807   0.0000       7.936444       215.9616 
 808   0.0000       7.997327       217.6183 
 809   0.0000       9.354649       254.5529 
 810   0.0000       9.460351       257.4292 
 811   0.0000      10.816309       294.3267 
 812   0.0000      11.414256       310.5977 
 813   0.0000      11.943723       325.0052 
 814   0.0000      12.572238       342.1080 
 815   0.0000      12.913343       351.3899 
 816   0.0000      13.063013       355.4626 
 817   0.0000      13.109834       356.7367 
 818   0.0000      13.190092       358.9207 
 819   0.0000      13.385396       364.2351 
 820   0.0000      13.521225       367.9312 
 821   0.0000      13.722299       373.4027 
 822   0.0000      13.899119       378.2143 
 823   0.0000      13.939600       379.3158 
 824   0.0000      14.062030       382.6473 
 825   0.0000      14.599331       397.2680 
 826   0.0000      14.893705       405.2783 
 827   0.0000      15.967021       434.4847 

                    ********************************
                    * MULLIKEN POPULATION ANALYSIS *
                    ********************************

-----------------------
MULLIKEN ATOMIC CHARGES
-----------------------
   0 C :   -0.268447
   1 C :    0.015436
   2 O :   -0.348970
   3 C :    0.477812
   4 O :   -0.436921
   5 C :   -0.225195
   6 C :    0.148432
   7 C :   -0.274358
   8 N :   -0.119986
   9 C :    0.210067
  10 S :   -0.440004
  11 N :   -0.202882
  12 C :    0.044611
  13 C :    0.068048
  14 C :   -0.178490
  15 C :   -0.134105
  16 C :   -0.277760
  17 C :    0.315428
  18 O :   -0.356855
  19 C :   -0.268054
  20 H :    0.099099
  21 H :    0.091729
  22 H :    0.091051
  23 H :    0.124135
  24 H :    0.103768
  25 H :    0.132090
  26 H :    0.130792
  27 H :    0.094772
  28 H :    0.197321
  29 H :    0.194369
  30 H :    0.151349
  31 H :    0.148137
  32 H :    0.159350
  33 H :    0.129157
  34 H :    0.240490
  35 H :    0.164585
Sum of atomic charges:   -0.0000000

--------------------------------
MULLIKEN REDUCED ORBITAL CHARGES
--------------------------------
  0 C s       :     3.256647  s :     3.256647
      pz      :     0.944796  p :     2.935710
      px      :     0.992733
      py      :     0.998181
      dz2     :     0.014266  d :     0.071619
      dxz     :     0.012919
      dyz     :     0.018820
      dx2y2   :     0.005372
      dxy     :     0.020242
      f0      :     0.000496  f :     0.004471
      f+1     :     0.000635
      f-1     :     0.000799
      f+2     :     0.000424
      f-2     :     0.001408
      f+3     :     0.000088
      f-3     :     0.000620
  1 C s       :     3.177063  s :     3.177063
      pz      :     0.894837  p :     2.644735
      px      :     0.871140
      py      :     0.878759
      dz2     :     0.026577  d :     0.151197
      dxz     :     0.025809
      dyz     :     0.038949
      dx2y2   :     0.022097
      dxy     :     0.037765
      f0      :     0.000998  f :     0.011569
      f+1     :     0.001870
      f-1     :     0.001685
      f+2     :     0.001449
      f-2     :     0.002453
      f+3     :     0.001391
      f-3     :     0.001722
  2 O s       :     3.720062  s :     3.720062
      pz      :     1.740140  p :     4.592607
      px      :     1.613868
      py      :     1.238599
      dz2     :     0.003766  d :     0.034037
      dxz     :     0.004490
      dyz     :     0.006369
      dx2y2   :     0.010229
      dxy     :     0.009183
      f0      :     0.000287  f :     0.002264
      f+1     :     0.000115
      f-1     :     0.000421
      f+2     :     0.000227
      f-2     :     0.000298
[...]
 15 C s       :     2.705825  s :     2.705825
      pz      :     0.957534  p :     2.797421
      px      :     0.866822
      py      :     0.973066
      dz2     :     0.124059  d :     0.416830
      dxz     :     0.073117
      dyz     :     0.088585
      dx2y2   :     0.087859
      dxy     :     0.043210
      f0      :     0.006127  f :     0.041040
      f+1     :     0.005311
      f-1     :     0.008205
      f+2     :     0.007342
      f-2     :     0.006879
      f+3     :     0.002732
      f-3     :     0.004444
 16 C s       :     2.701800  s :     2.701800
      pz      :     0.959895  p :     2.869099
      px      :     0.928699
      py      :     0.980505
      dz2     :     0.072802  d :     0.390193
      dxz     :     0.045749
      dyz     :     0.119020
      dx2y2   :     0.073735
      dxy     :     0.078887
      f0      :     0.006598  f :     0.040269
      f+1     :     0.004426
      f-1     :     0.006111
      f+2     :     0.007118
      f-2     :     0.004357
      f+3     :     0.006675
      f-3     :     0.004985
 17 C s       :     2.701664  s :     2.701664
      pz      :     0.853735  p :     2.680627
      px      :     0.816854
      py      :     1.010038
      dz2     :     0.159875  d :     0.708041
      dxz     :     0.104961
      dyz     :     0.194386
      dx2y2   :     0.115187
      dxy     :     0.133631
      f0      :     0.018527  f :     0.099195
      f+1     :     0.011685
      f-1     :     0.016106
      f+2     :     0.019282
      f-2     :     0.014253
      f+3     :     0.010734
      f-3     :     0.008609
 18 O s       :     3.177189  s :     3.177189
      pz      :     1.310780  p :     4.347254
      px      :     1.534277
      py      :     1.502197
      dz2     :     0.014105  d :     0.075487
      dxz     :     0.014908
      dyz     :     0.028005
      dx2y2   :     0.007577
      dxy     :     0.010892
      f0      :     0.000801  f :     0.005066
      f+1     :     0.000508
      f-1     :     0.000970
      f+2     :     0.001074
      f-2     :     0.000963
      f+3     :     0.000421
      f-3     :     0.000328
 19 C s       :     2.695138  s :     2.695138
      pz      :     0.962214  p :     2.844789
      px      :     0.914039
      py      :     0.968535
      dz2     :     0.105332  d :     0.387641
      dxz     :     0.067453
      dyz     :     0.092257
      dx2y2   :     0.077800
      dxy     :     0.044800
      f0      :     0.005977  f :     0.040794
      f+1     :     0.006093
      f-1     :     0.007997
      f+2     :     0.007024
      f-2     :     0.007004
      f+3     :     0.002640
      f-3     :     0.004060
 20 H s       :     0.847842  s :     0.847842
      pz      :     0.053693  p :     0.150442
      px      :     0.040945
      py      :     0.055803
      dz2     :     0.006759  d :     0.027490
      dxz     :     0.004296
      dyz     :     0.006826
      dx2y2   :     0.004069
      dxy     :     0.005541
 21 H s       :     0.847577  s :     0.847577
      pz      :     0.046285  p :     0.150863
      px      :     0.050965
      py      :     0.053613
      dz2     :     0.004437  d :     0.027397
      dxz     :     0.004700
      dyz     :     0.005343
      dx2y2   :     0.007138
      dxy     :     0.005780
 22 H s       :     0.851595  s :     0.851595
      pz      :     0.039822  p :     0.150670
      px      :     0.063908
      py      :     0.046940
      dz2     :     0.002812  d :     0.027501
      dxz     :     0.006480
      dyz     :     0.002908
      dx2y2   :     0.007841
      dxy     :     0.007459
 23 H s       :     0.848848  s :     0.848848
      pz      :     0.040208  p :     0.151950
      px      :     0.065905
      py      :     0.045838
      dz2     :     0.002975  d :     0.027222
      dxz     :     0.006740
      dyz     :     0.003187
      dx2y2   :     0.007445
      dxy     :     0.006875
 24 H s       :     0.856496  s :     0.856496
      pz      :     0.051429  p :     0.145459
      px      :     0.036870
      py      :     0.057160
      dz2     :     0.005160  d :     0.026942
      dxz     :     0.004459
      dyz     :     0.007246
      dx2y2   :     0.004718
      dxy     :     0.005360
 25 H s       :     0.825646  s :     0.825646
      pz      :     0.042699  p :     0.151070
      px      :     0.070349
      py      :     0.038023
      dz2     :     0.004322  d :     0.027743
      dxz     :     0.008008
      dyz     :     0.000810
      dx2y2   :     0.006834
      dxy     :     0.007769
 26 H s       :     0.825289  s :     0.825289
      pz      :     0.074718  p :     0.151054
      px      :     0.039146
      py      :     0.037190
      dz2     :     0.009549  d :     0.027759
      dxz     :     0.009309
      dyz     :     0.008510
      dx2y2   :     0.000227
      dxy     :     0.000164
 27 H s       :     0.845406  s :     0.845406
      pz      :     0.041960  p :     0.150391
      px      :     0.039716
      py      :     0.068715
      dz2     :     0.003311  d :     0.027705
      dxz     :     0.000652
      dyz     :     0.008231
      dx2y2   :     0.007318
      dxy     :     0.008193
 28 H s       :     0.741983  s :     0.741983
      pz      :     0.078722  p :     0.253790
      px      :     0.053885
      py      :     0.121182
      dz2     :     0.005379  d :     0.061837
      dxz     :     0.000361
      dyz     :     0.022100
      dx2y2   :     0.016099
      dxy     :     0.017899
 29 H s       :     0.748970  s :     0.748970
      pz      :     0.096810  p :     0.254157
      px      :     0.102808
      py      :     0.054540
      dz2     :     0.011781  d :     0.061404
      dxz     :     0.014370
      dyz     :     0.007719
      dx2y2   :     0.014189
      dxy     :     0.013344
 30 H s       :     0.833968  s :     0.833968
      pz      :     0.057400  p :     0.149171
      px      :     0.038946
      py      :     0.052825
      dz2     :     0.007084  d :     0.028494
      dxz     :     0.005146
      dyz     :     0.007118
      dx2y2   :     0.003801
      dxy     :     0.005345
 31 H s       :     0.846062  s :     0.846062
      pz      :     0.062814  p :     0.156968
      px      :     0.053307
      py      :     0.040847
      dz2     :     0.007535  d :     0.027542
      dxz     :     0.006231
      dyz     :     0.006560
      dx2y2   :     0.003632
      dxy     :     0.003583
 32 H s       :     0.843772  s :     0.843772
      pz      :     0.034687  p :     0.151427
      px      :     0.038500
      py      :     0.078241
      dz2     :     0.002720  d :     0.026472
      dxz     :     0.000104
      dyz     :     0.008322
      dx2y2   :     0.007652
      dxy     :     0.007674
 33 H s       :     0.848782  s :     0.848782
      pz      :     0.060856  p :     0.159172
      px      :     0.051676
      py      :     0.046640
      dz2     :     0.007524  d :     0.027770
      dxz     :     0.005645
      dyz     :     0.006740
      dx2y2   :     0.004033
      dxy     :     0.003828
 34 H s       :     0.706600  s :     0.706600
      pz      :     0.106211  p :     0.347897
      px      :     0.101021
      py      :     0.140665
      dz2     :     0.023757  d :     0.099594
      dxz     :     0.014720
      dyz     :     0.023996
      dx2y2   :     0.017753
      dxy     :     0.019369
 35 H s       :     0.839042  s :     0.839042
      pz      :     0.035143  p :     0.156719
      px      :     0.042147
      py      :     0.079429
      dz2     :     0.002755  d :     0.028025
      dxz     :     0.000107
      dyz     :     0.008789
      dx2y2   :     0.007713
      dxy     :     0.008662


                      *****************************
                      * MAYER POPULATION ANALYSIS *
                      *****************************

  NA   - Mulliken gross atomic population
  ZA   - Total nuclear charge
  QA   - Mulliken gross atomic charge
  VA   - Mayer's total valence
  BVA  - Mayer's bonded valence
  FA   - Mayer's free valence

  ATOM       NA         ZA         QA         VA         BVA        FA
  0 C      6.2684     6.0000    -0.2684     3.8930     3.8930    -0.0000
  1 C      5.9846     6.0000     0.0154     3.8405     3.8405    -0.0000
  2 O      8.3490     8.0000    -0.3490     2.0720     2.0720    -0.0000
  3 C      5.5222     6.0000     0.4778     4.2275     4.2275    -0.0000
  4 O      8.4369     8.0000    -0.4369     2.0806     2.0806    -0.0000
  5 C      6.2252     6.0000    -0.2252     3.6387     3.6387    -0.0000
  6 C      5.8516     6.0000     0.1484     3.8897     3.8897    -0.0000
  7 C      6.2744     6.0000    -0.2744     3.9055     3.9055    -0.0000
  8 N      7.1200     7.0000    -0.1200     3.3084     3.3084     0.0000
  9 C      5.7899     6.0000     0.2101     4.1527     4.1527    -0.0000
 10 S     16.4400    16.0000    -0.4400     1.7552     1.7552     0.0000
 11 N      7.2029     7.0000    -0.2029     3.2537     3.2537     0.0000
 12 C      5.9554     6.0000     0.0446     3.9531     3.9531     0.0000
 13 C      5.9320     6.0000     0.0680     3.7102     3.7102     0.0000
 14 C      6.1785     6.0000    -0.1785     3.8556     3.8556    -0.0000
 15 C      6.1341     6.0000    -0.1341     3.8071     3.8071     0.0000
 16 C      6.2778     6.0000    -0.2778     3.7967     3.7967     0.0000
 17 C      5.6846     6.0000     0.3154     3.8754     3.8754    -0.0000
 18 O      8.3569     8.0000    -0.3569     2.1189     2.1189    -0.0000
 19 C      6.2681     6.0000    -0.2681     3.8628     3.8628     0.0000
 20 H      0.9009     1.0000     0.0991     0.9852     0.9852     0.0000
 21 H      0.9083     1.0000     0.0917     0.9844     0.9844     0.0000
 22 H      0.9089     1.0000     0.0911     0.9836     0.9836    -0.0000
 23 H      0.8759     1.0000     0.1241     0.9882     0.9882     0.0000
 24 H      0.8962     1.0000     0.1038     0.9762     0.9762    -0.0000
 25 H      0.8679     1.0000     0.1321     0.9807     0.9807    -0.0000
 26 H      0.8692     1.0000     0.1308     0.9812     0.9812    -0.0000
 27 H      0.9052     1.0000     0.0948     0.9859     0.9859     0.0000
 28 H      0.8027     1.0000     0.1973     1.0230     1.0230     0.0000
 29 H      0.8056     1.0000     0.1944     1.0190     1.0190    -0.0000
 30 H      0.8487     1.0000     0.1513     0.9934     0.9934     0.0000
 31 H      0.8519     1.0000     0.1481     0.9863     0.9863    -0.0000
 32 H      0.8407     1.0000     0.1593     0.9774     0.9774     0.0000
 33 H      0.8708     1.0000     0.1292     0.9922     0.9922     0.0000
 34 H      0.7595     1.0000     0.2405     1.0108     1.0108    -0.0000
 35 H      0.8354     1.0000     0.1646     0.9876     0.9876     0.0000

  Mayer bond orders larger than 0.100000
B(  0-C ,  1-C ) :   0.9706 B(  0-C , 20-H ) :   0.9789 B(  0-C , 21-H ) :   0.9754 
B(  0-C , 22-H ) :   0.9791 B(  1-C ,  2-O ) :   0.8849 B(  1-C , 23-H ) :   0.9744 
B(  1-C , 24-H ) :   0.9808 B(  2-O ,  3-C ) :   1.1766 B(  3-C ,  4-O ) :   1.9664 
B(  3-C ,  5-C ) :   1.0571 B(  5-C ,  6-C ) :   1.6567 B(  5-C , 12-C ) :   0.9719 
B(  6-C ,  7-C ) :   0.9674 B(  6-C ,  8-N ) :   1.1653 B(  7-C , 25-H ) :   0.9609 
B(  7-C , 26-H ) :   0.9600 B(  7-C , 27-H ) :   0.9903 B(  8-N ,  9-C ) :   1.1825 
B(  8-N , 28-H ) :   0.9480 B(  9-C , 10-S ) :   1.6078 B(  9-C , 11-N ) :   1.3047 
B( 11-N , 12-C ) :   0.9896 B( 11-N , 29-H ) :   0.9517 B( 12-C , 13-C ) :   0.9362 
B( 12-C , 30-H ) :   1.0036 B( 13-C , 14-C ) :   1.3558 B( 13-C , 19-C ) :   1.3825 
B( 14-C , 15-C ) :   1.3935 B( 14-C , 31-H ) :   0.9718 B( 15-C , 16-C ) :   1.3640 
B( 15-C , 32-H ) :   0.9709 B( 16-C , 17-C ) :   1.3316 B( 16-C , 33-H ) :   0.9854 
B( 17-C , 18-O ) :   1.1096 B( 17-C , 19-C ) :   1.3737 B( 18-O , 34-H ) :   0.9801 
B( 19-C , 35-H ) :   0.9583 

-------
TIMINGS
-------

Total SCF time: 0 days 1 hours 38 min 46 sec 

Total time                  ....    5926.890 sec
Sum of individual times     ....    5915.373 sec  ( 99.8%)

Fock matrix formation       ....    5877.379 sec  ( 99.2%)
Diagonalization             ....       1.765 sec  (  0.0%)
Density matrix formation    ....       0.268 sec  (  0.0%)
Population analysis         ....       1.256 sec  (  0.0%)
Initial guess               ....       5.198 sec  (  0.1%)
Orbital Transformation      ....       0.000 sec  (  0.0%)
Orbital Orthonormalization  ....       0.000 sec  (  0.0%)
DIIS solution               ....      19.679 sec  (  0.3%)
SOSCF solution              ....       8.212 sec  (  0.1%)

Maximum memory used throughout the entire SCF-calculation: 724.8 MB

------------------------------------------------------------------------------
                                ORCA  MP2 
------------------------------------------------------------------------------

Freezing NCore=48 chemical core electrons

-------------
RI-MP2 ENERGY
-------------
Dimension of the basis                    ...  828
Memory devoted to MP2                     ...  256 MB   
Data format for buffers                   ... DOUBLE
Compression type for matrix containers    ... UNCOMPRESSED
Overall scaling of the MP2 energy         ...   1.000e+00
Calculating two index integrals           ... done (    0.099 sec)
Cholesky decomposition of V**-1           ... done (    0.689 sec)

-----------------
RI-TRANSFORMATION (AUX index driven)
-----------------

Dimension of the orbital-basis         ... 828
Dimension of the aux-basis             ... 2141
Transformation of internal/external MOs...   24-  76 to   77- 827
Number Format for Storage              ... Double (8 Byte)
Integral mode                          ... Direct

First Phase: integral generation and transformation of MO indices
  Aux angular momentum 0               ... done (   10.469 sec)
  Aux angular momentum 1               ... done (   15.927 sec)
  Aux angular momentum 2               ... done (   23.782 sec)
  Aux angular momentum 3               ... done (   19.276 sec)
  Aux angular momentum 4               ... done (    6.943 sec)
Closing buffer VIA ( 0.63 GB; CompressionRatio= 1.00)
  Phase 1 completed in    77.937 sec
Second Phase: sorting and transformation of aux index

IA-Transformation
Memory available                       ... 158 MB 
Max. # MO pairs treated in a batch     ... 11    
# of internal orbitals                 ... 53
# batches for internal orbitals        ... 5
Closing buffer IAV ( 0.63 GB; CompressionRatio= 1.00)
(ia|v) transformation done in   398.735 sec

  Phase 2 completed in   398.991 sec
RI-Integral transformation completed in   477.071 sec
Opening buffers                              ... done

Starting loop over batches of integrals:

Operator 0  - window                       ... ( 24- 76)x( 77-827)
Operator 0  - Memory available             ...   256 MB
Operator 0  - Memory needed per MO         ...  12.3 MB
Operator 0  - Number of orbitals per batch ... 13
Operator 0  - Number of batches            ... 5

OPERATOR  0   PASS   0:  MOs    24 ...   36
  Reading integrals       ... ok
  Internal MO  26
  Internal MO  29
  Internal MO  32
  Internal MO  35
OPERATOR  0   PASS   1:  MOs    37 ...   49
  Reading integrals       ... ok
  Internal MO  38
  Internal MO  41
  Internal MO  44
  Internal MO  47
OPERATOR  0   PASS   2:  MOs    50 ...   62
  Reading integrals       ... ok
  Internal MO  50
  Internal MO  53
  Internal MO  56
  Internal MO  59
  Internal MO  62
OPERATOR  0   PASS   3:  MOs    63 ...   75
  Reading integrals       ... ok
  Internal MO  65
  Internal MO  68
  Internal MO  71
  Internal MO  74
OPERATOR  0   PASS   4:  MOs    76 ...   76
  Reading integrals       ... ok
Time spent in pair loops =   668.925 sec
Deleting buffer (Ka|jb)[aa] ...done

-----------------------------------------------
 RI-MP2 CORRELATION ENERGY:     -3.529766651 Eh
-----------------------------------------------


-------
TIMINGS
-------

Total time                : 1148.628 sec
Integral trafo            :  477.081 sec ( 41.5%)
I/O of integrals          :   34.490 sec (  3.0%)
K(i,j) Operators          :  113.917 sec (  9.9%)
T(i,j) pair energies      :    4.260 sec (  0.4%)
V-calculation             :    0.099 sec (  0.0%)
V**(-1/2)                 :    0.689 sec (  0.1%)
Gamma(ia|P)               :    0.000 sec (  0.0%)
Gamma-Trafo               :    0.000 sec (  0.0%)
D(virtual)                :    0.000 sec (  0.0%)
D(internal)               :    0.000 sec (  0.0%)
W(virtual)                :    0.000 sec (  0.0%)
W(internal)               :    0.000 sec (  0.0%)
L(virtual)                :    0.000 sec (  0.0%)
L(internal)               :    0.000 sec (  0.0%)
G(D)                      :    0.000 sec (  0.0%)
G(Z)                      :    0.000 sec (  0.0%)
Z-Vector Solution         :    0.000 sec (  0.0%)
3-Index Derivative        :    0.000 sec (  0.0%)
2-Index Derivative        :    0.000 sec (  0.0%)
Separable Gradient        :    0.000 sec (  0.0%)


---------------------------------------
MP2 TOTAL ENERGY:    -1274.350292870 Eh
---------------------------------------

Maximum memory used throughout the entire MP2-calculation: 303.5 MB

-------------------------   --------------------
FINAL SINGLE POINT ENERGY     -1274.350292869909
-------------------------   --------------------


                            ***************************************
                            *     ORCA property calculations      *
                            ***************************************


  WARNING: The energy has been calculated at the MP2 level but the densities
           used in the property calculations are still SCF densities
           MP2 response densities have not been calculated 
           use %mp2 Density relaxed end
           or  %mp2 Density unrelaxed end

                                    ---------------------
                                    Active property flags
                                    ---------------------
   (+) Dipole Moment


------------------------------------------------------------------------------
                       ORCA ELECTRIC PROPERTIES CALCULATION
------------------------------------------------------------------------------

Dipole Moment Calculation                       ... on
Quadrupole Moment Calculation                   ... off
Polarizability Calculation                      ... off
GBWName                                         ... CONFS/Conf806.orca.gbw
Electron density file                           ... CONFS/Conf806.orca.scfp
The origin for moment calculation is the CENTER OF MASS  = (32.857552, 31.470481 35.413892)

-------------
DIPOLE MOMENT
-------------
                                X             Y             Z
Electronic contribution:      8.74367       9.73158      10.17106
Nuclear contribution   :     -9.92804     -11.34848     -10.55424
                        -----------------------------------------
Total Dipole Moment    :     -1.18437      -1.61690      -0.38318
                        -----------------------------------------
Magnitude (a.u.)       :      2.04057
Magnitude (Debye)      :      5.18673



--------------------
Rotational spectrum 
--------------------
 
Rotational constants in cm-1:     0.010768     0.008751     0.006067 
Rotational constants in MHz :   322.804399   262.359927   181.895731 

 Dipole components along the rotational axes: 
x,y,z [a.u.] :    -2.026049    -0.236819     0.054657 
x,y,z [Debye]:    -5.149806    -0.601945     0.138928 

 

Timings for individual modules:

Sum of individual times         ...     7084.623 sec (= 118.077 min)
GTO integral calculation        ...        4.038 sec (=   0.067 min)   0.1 %
SCF iterations                  ...     5927.112 sec (=  98.785 min)  83.7 %
MP2 module                      ...     1153.473 sec (=  19.225 min)  16.3 %
                             ****ORCA TERMINATED NORMALLY****
TOTAL RUN TIME: 0 days 1 hours 58 minutes 14 seconds 799 msec
