
                                        *****************
                                        * O   R   C   A *
                                        *****************

                                            #,                                       
                                            ###                                      
                                            ####                                     
                                            #####                                    
                                            ######                                   
                                           ########,                                 
                                     ,,################,,,,,                         
                               ,,#################################,,                 
                          ,,##########################################,,             
                       ,#########################################, ''#####,          
                    ,#############################################,,   '####,        
                  ,##################################################,,,,####,       
                ,###########''''           ''''###############################       
              ,#####''   ,,,,##########,,,,          '''####'''          '####       
            ,##' ,,,,###########################,,,                        '##       
           ' ,,###''''                  '''############,,,                           
         ,,##''                                '''############,,,,        ,,,,,,###''
      ,#''                                            '''#######################'''  
     '                                                          ''''####''''         
             ,#######,   #######,   ,#######,      ##                                
            ,#'     '#,  ##    ##  ,#'     '#,    #''#        ######   ,####,        
            ##       ##  ##   ,#'  ##            #'  '#       #        #'  '#        
            ##       ##  #######   ##           ,######,      #####,   #    #        
            '#,     ,#'  ##    ##  '#,     ,#' ,#      #,         ##   #,  ,#        
             '#######'   ##     ##  '#######'  #'      '#     #####' # '####'        



                  #######################################################
                  #                        -***-                        #
                  #          Department of theory and spectroscopy      #
                  #    Directorship and core code : Frank Neese         #
                  #        Max Planck Institute fuer Kohlenforschung    #
                  #                Kaiser Wilhelm Platz 1               #
                  #                 D-45470 Muelheim/Ruhr               #
                  #                      Germany                        #
                  #                                                     #
                  #                  All rights reserved                #
                  #                        -***-                        #
                  #######################################################


                         Program Version 5.0.0 -  RELEASE  -
                                (SVN: $Rev: 19529$)
                ($Date: 2021-06-28 11:36:33 +0200 (Mo, 28 Jun 2021) $)


 With contributions from (in alphabetic order):
   Daniel Aravena         : Magnetic Suceptibility
   Michael Atanasov       : Ab Initio Ligand Field Theory (pilot matlab implementation)
   Alexander A. Auer      : GIAO ZORA, VPT2 properties, NMR spectrum
   Ute Becker             : Parallelization
   Giovanni Bistoni       : ED, misc. LED, open-shell LED, HFLD
   Martin Brehm           : Molecular dynamics
   Dmytro Bykov           : SCF Hessian
   Vijay G. Chilkuri      : MRCI spin determinant printing, contributions to CSF-ICE
   Dipayan Datta          : RHF DLPNO-CCSD density
   Achintya Kumar Dutta   : EOM-CC, STEOM-CC
   Dmitry Ganyushin       : Spin-Orbit,Spin-Spin,Magnetic field MRCI
   Miquel Garcia          : C-PCM Hessian, Gaussian charge scheme
   Yang Guo               : DLPNO-NEVPT2, F12-NEVPT2, CIM, IAO-localization
   Andreas Hansen         : Spin unrestricted coupled pair/coupled cluster methods
   Benjamin Helmich-Paris : MC-RPA, TRAH-SCF, COSX integrals
   Lee Huntington         : MR-EOM, pCC
   Robert Izsak           : Overlap fitted RIJCOSX, COSX-SCS-MP3, EOM
   Marcus Kettner         : VPT2
   Christian Kollmar      : KDIIS, OOCD, Brueckner-CCSD(T), CCSD density, CASPT2, CASPT2-K
   Simone Kossmann        : Meta GGA functionals, TD-DFT gradient, OOMP2, MP2 Hessian
   Martin Krupicka        : Initial AUTO-CI
   Lucas Lang             : DCDCAS
   Marvin Lechner         : AUTO-CI (C++ implementation), FIC-MRCC
   Dagmar Lenk            : GEPOL surface, SMD
   Dimitrios Liakos       : Extrapolation schemes; Compound Job, initial MDCI parallelization
   Dimitrios Manganas     : Further ROCIS development; embedding schemes
   Dimitrios Pantazis     : SARC Basis sets
   Anastasios Papadopoulos: AUTO-CI, single reference methods and gradients
   Taras Petrenko         : DFT Hessian,TD-DFT gradient, ASA, ECA, R-Raman, ABS, FL, XAS/XES, NRVS
   Peter Pinski           : DLPNO-MP2, DLPNO-MP2 Gradient
   Christoph Reimann      : Effective Core Potentials
   Marius Retegan         : Local ZFS, SOC
   Christoph Riplinger    : Optimizer, TS searches, QM/MM, DLPNO-CCSD(T), (RO)-DLPNO pert. Triples
   Tobias Risthaus        : Range-separated hybrids, TD-DFT gradient, RPA, STAB
   Michael Roemelt        : Original ROCIS implementation
   Masaaki Saitow         : Open-shell DLPNO-CCSD energy and density
   Barbara Sandhoefer     : DKH picture change effects
   Avijit Sen             : IP-ROCIS
   Kantharuban Sivalingam : CASSCF convergence, NEVPT2, FIC-MRCI
   Bernardo de Souza      : ESD, SOC TD-DFT
   Georgi Stoychev        : AutoAux, RI-MP2 NMR
   Willem Van den Heuvel  : Paramagnetic NMR
   Boris Wezisla          : Elementary symmetry handling
   Frank Wennmohs         : Technical directorship


 We gratefully acknowledge several colleagues who have allowed us to
 interface, adapt or use parts of their codes:
   Stefan Grimme, W. Hujo, H. Kruse, P. Pracht,  : VdW corrections, initial TS optimization,
                  C. Bannwarth, S. Ehlert          DFT functionals, gCP, sTDA/sTD-DF
   Ed Valeev, F. Pavosevic, A. Kumar             : LibInt (2-el integral package), F12 methods
   Garnet Chan, S. Sharma, J. Yang, R. Olivares  : DMRG
   Ulf Ekstrom                                   : XCFun DFT Library
   Mihaly Kallay                                 : mrcc  (arbitrary order and MRCC methods)
   Jiri Pittner, Ondrej Demel                    : Mk-CCSD
   Frank Weinhold                                : gennbo (NPA and NBO analysis)
   Christopher J. Cramer and Donald G. Truhlar   : smd solvation model
   Lars Goerigk                                  : TD-DFT with DH, B97 family of functionals
   V. Asgeirsson, H. Jonsson                     : NEB implementation
   FAccTs GmbH                                   : IRC, NEB, NEB-TS, DLPNO-Multilevel, CI-OPT
                                                   MM, QMMM, 2- and 3-layer-ONIOM, Crystal-QMMM,
                                                   LR-CPCM, SF, NACMEs, symmetry and pop. for TD-DFT,
                                                   nearIR, NL-DFT gradient (VV10), updates on ESD,
                                                   ML-optimized integration grids
   S Lehtola, MJT Oliveira, MAL Marques          : LibXC Library
   Liviu Ungur et al                             : ANISO software


 Your calculation uses the libint2 library for the computation of 2-el integrals
 For citations please refer to: http://libint.valeyev.net

 Your ORCA version has been built with support for libXC version: 5.1.0
 For citations please refer to: https://tddft.org/programs/libxc/

 This ORCA versions uses:
   CBLAS   interface :  Fast vector & matrix operations
   LAPACKE interface :  Fast linear algebra routines
   SCALAPACK package :  Parallel linear algebra routines
   Shared memory     :  Shared parallel matrices
   BLAS/LAPACK       :  OpenBLAS 0.3.15  USE64BITINT DYNAMIC_ARCH NO_AFFINITY Zen SINGLE_THREADED
        Core in use  :  Zen
   Copyright (c) 2011-2014, The OpenBLAS Project


================================================================================

----- Orbital basis set information -----
Your calculation utilizes the basis: cc-pVTZ 
       H, B-Ne : Obtained from the ccRepo (grant-hill.group.shef.ac.uk/ccrepo) Feb. 2017
                 T. H. Dunning, Jr., J. Chem. Phys. 90, 1007 (1989)
            He : Obtained from the ccRepo (grant-hill.group.shef.ac.uk/ccrepo) Feb. 2017
                 D. E. Woon, T. H. Dunning, Jr., J. Chem. Phys. 100, 2975 (1994)
  Li-Be, Na-Mg : Obtained from the ccRepo (grant-hill.group.shef.ac.uk/ccrepo) Feb. 2017
                 B. P. Prascher, D. E. Woon, K. A. Peterson, T. H. Dunning, Jr., A. K. Wilson, Theor. Chem. Acc. 128, 69 (2011)
         Al-Ar : Obtained from the ccRepo (grant-hill.group.shef.ac.uk/ccrepo) Feb. 2017
                 D. E. Woon, T. H. Dunning, Jr., J. Chem. Phys. 98, 1358 (1993)
            Ca : Obtained from the Peterson Research Group Website (tyr0.chem.wsu.edu/~kipeters) Feb. 2017
                 J. Koput, K. A. Peterson, J. Phys. Chem. 106, 9595 (2002)
         Sc-Zn : Obtained from the ccRepo (grant-hill.group.shef.ac.uk/ccrepo) Feb. 2017
                 N. B. Balabanov, K. A. Peterson, J. Chem. Phys. 123, 064107 (2005)
                 N. B. Balabanov, K. A. Peterson, J. Chem. Phys. 125, 074110 (2006)
         Ga-Kr : Obtained from the ccRepo (grant-hill.group.shef.ac.uk/ccrepo) Feb. 2017
                 A. K. Wilson, D. E. Woon, K. A. Peterson, T. H. Dunning, Jr., J. Chem. Phys. 110, 7667 (1999)
             Y : Obtained from the ccRepo (grant-hill.group.shef.ac.uk/ccrepo) Feb. 2017
                 K. A. Peterson, D. Figgen, M. Dolg, H. Stoll, J. Chem. Phys. 126, 124101 (2007)
        Ag, Au : Obtained from the Peterson Research Group Website (tyr0.chem.wsu.edu/~kipeters) Feb. 2017
                 K. A. Peterson, C. Puzzarini, Theor. Chem. Acc. 114, 283 (2005)

----- AuxC basis set information -----
Your calculation utilizes the auxiliary basis: cc-pVTZ/C 
  Obtained from the EMSL Basis Set Exchange (bse.pnl.gov) Feb. 2017
  H-He, B-F, Al-Ar, Ga-Kr : F. Weigend, A. Kohn, C. Hattig, J. Chem. Phys. 116, 3175 (2002)
             Li-Be, Na-Mg : C. Haettig, Phys. Chem. Chem. Phys. 7, 59 (2005)
                       Ne : C. Haettig, Phys. Chem. Chem. Phys. 7, 59 (2005)
                            F. Weigend, A. Kohn, C. Hattig, J. Chem. Phys. 116, 3175 (2002)
                    Sc-Zn : J. G. Hill, J. A. Platts, J. Chem. Phys. 128, 044104 (2008)

================================================================================
                                        WARNINGS
                       Please study these warnings very carefully!
================================================================================


WARNING: No MP2 level density has been requested!
         To caclulate MP2 level properties use
         %mp2 Density relaxed end
         or
         %mp2 Density unrelaxed end

WARNING: Post HF methods need fully converged wavefunctions
  ===> : Setting SCFConvForced true
         You can overwrite this default with %scf ConvForced false 


INFO   : the flag for use of the SHARK integral package has been found!

================================================================================
                                       INPUT FILE
================================================================================
NAME = CONFS/Conf616.orca
|  1> ! ri-mp2 cc-pvtz cc-pvtz/c TightSCF NoKeepInts
|  2> 
|  3> %scf
|  4>   MaxCore 4096
|  5> end
|  6> *xyz  0  1
|  7>     C       15.0606153   14.0979344   15.5424789
|  8>     C       16.0634400   14.0502584   16.7150644
|  9>     O       17.0551883   15.1030716   16.6692221
| 10>     C       16.7580290   16.4362405   16.5497206
| 11>     O       15.8239418   16.8615463   15.8941644
| 12>     C       17.5621532   17.2810067   17.5018046
| 13>     C       17.4524099   18.6337505   17.5453040
| 14>     C       16.5582850   19.5108447   16.6947658
| 15>     N       18.2473159   19.3747690   18.4249090
| 16>     C       19.2401388   18.8559471   19.2119603
| 17>     S       20.1983568   19.8158100   20.1587598
| 18>     N       19.4036380   17.4950965   19.1727131
| 19>     C       18.5234230   16.5531988   18.4579674
| 20>     C       17.7796578   15.6823677   19.4670575
| 21>     C       18.1097082   14.3216805   19.6126059
| 22>     C       17.4211694   13.5133683   20.5327287
| 23>     C       16.3968009   14.0707148   21.3169038
| 24>     C       16.0703840   15.4269299   21.1797411
| 25>     O       15.0833146   15.9683887   21.9368813
| 26>     C       16.7564765   16.2284466   20.2622188
| 27>     H       14.3067781   14.8804166   15.6923527
| 28>     H       14.5286627   13.1427588   15.4589142
| 29>     H       15.5777742   14.2848920   14.5930674
| 30>     H       15.5096147   14.1092508   17.6616268
| 31>     H       16.5829745   13.0837708   16.6986304
| 32>     H       15.5017965   19.2858032   16.8894966
| 33>     H       16.7396329   19.3287070   15.6278652
| 34>     H       16.7086163   20.5815199   16.8759508
| 35>     H       18.1421970   20.3759223   18.4659696
| 36>     H       20.1192069   17.1387153   19.7929820
| 37>     H       19.1676797   15.9041715   17.8482214
| 38>     H       18.8992154   13.8877944   19.0047051
| 39>     H       17.6832833   12.4619130   20.6377760
| 40>     H       15.8631616   13.4511971   22.0302829
| 41>     H       14.7591784   15.2766938   22.5330249
| 42>     H       16.4927814   17.2771023   20.1761628
| 43> *
| 44> 
| 45>                          ****END OF INPUT****
================================================================================

                       ****************************
                       * Single Point Calculation *
                       ****************************

---------------------------------
CARTESIAN COORDINATES (ANGSTROEM)
---------------------------------
  C     15.060615   14.097934   15.542479
  C     16.063440   14.050258   16.715064
  O     17.055188   15.103072   16.669222
  C     16.758029   16.436241   16.549721
  O     15.823942   16.861546   15.894164
  C     17.562153   17.281007   17.501805
  C     17.452410   18.633751   17.545304
  C     16.558285   19.510845   16.694766
  N     18.247316   19.374769   18.424909
  C     19.240139   18.855947   19.211960
  S     20.198357   19.815810   20.158760
  N     19.403638   17.495096   19.172713
  C     18.523423   16.553199   18.457967
  C     17.779658   15.682368   19.467057
  C     18.109708   14.321680   19.612606
  C     17.421169   13.513368   20.532729
  C     16.396801   14.070715   21.316904
  C     16.070384   15.426930   21.179741
  O     15.083315   15.968389   21.936881
  C     16.756477   16.228447   20.262219
  H     14.306778   14.880417   15.692353
  H     14.528663   13.142759   15.458914
  H     15.577774   14.284892   14.593067
  H     15.509615   14.109251   17.661627
  H     16.582974   13.083771   16.698630
  H     15.501796   19.285803   16.889497
  H     16.739633   19.328707   15.627865
  H     16.708616   20.581520   16.875951
  H     18.142197   20.375922   18.465970
  H     20.119207   17.138715   19.792982
  H     19.167680   15.904171   17.848221
  H     18.899215   13.887794   19.004705
  H     17.683283   12.461913   20.637776
  H     15.863162   13.451197   22.030283
  H     14.759178   15.276694   22.533025
  H     16.492781   17.277102   20.176163

----------------------------
CARTESIAN COORDINATES (A.U.)
----------------------------
  NO LB      ZA    FRAG     MASS         X           Y           Z
   0 C     6.0000    0    12.011   28.460438   26.641235   29.371029
   1 C     6.0000    0    12.011   30.355502   26.551140   31.586894
   2 O     8.0000    0    15.999   32.229635   28.540669   31.500265
   3 C     6.0000    0    12.011   31.668085   31.059993   31.274440
   4 O     8.0000    0    15.999   29.902916   31.863705   30.035618
   5 C     6.0000    0    12.011   33.187660   32.656370   33.073618
   6 C     6.0000    0    12.011   32.980275   35.212685   33.155819
   7 C     6.0000    0    12.011   31.290624   36.870153   31.548535
   8 N     7.0000    0    14.007   34.482430   36.613007   34.818032
   9 C     6.0000    0    12.011   36.358593   35.632576   36.305343
  10 S    16.0000    0    32.060   38.169363   37.446454   38.094535
  11 N     7.0000    0    14.007   36.667562   33.060941   36.231177
  12 C     6.0000    0    12.011   35.004197   31.281012   34.880503
  13 C     6.0000    0    12.011   33.598684   29.635380   36.787407
  14 C     6.0000    0    12.011   34.222389   27.064054   37.062454
  15 C     6.0000    0    12.011   32.921239   25.536565   38.801234
  16 C     6.0000    0    12.011   30.985463   26.589797   40.283110
  17 C     6.0000    0    12.011   30.368625   29.152673   40.023910
  18 O     8.0000    0    15.999   28.503334   30.175881   41.454698
  19 C     6.0000    0    12.011   31.665152   30.667320   38.290044
  20 H     1.0000    0     1.008   27.035892   28.119912   29.654249
  21 H     1.0000    0     1.008   27.455194   24.836215   29.213114
  22 H     1.0000    0     1.008   29.437727   26.994534   27.576901
  23 H     1.0000    0     1.008   29.308924   26.662620   33.375638
  24 H     1.0000    0     1.008   31.337280   24.724744   31.555838
  25 H     1.0000    0     1.008   29.294150   36.444886   31.916523
  26 H     1.0000    0     1.008   31.633322   36.525963   29.532385
  27 H     1.0000    0     1.008   31.574709   38.893436   31.890925
  28 H     1.0000    0     1.008   34.283784   38.504913   34.895625
  29 H     1.0000    0     1.008   38.019791   32.387478   37.403315
  30 H     1.0000    0     1.008   36.221665   30.054529   33.728250
  31 H     1.0000    0     1.008   35.714341   26.244128   35.913688
  32 H     1.0000    0     1.008   33.416563   23.549603   38.999745
  33 H     1.0000    0     1.008   29.977031   25.419079   41.631201
  34 H     1.0000    0     1.008   27.890805   28.868768   42.581246
  35 H     1.0000    0     1.008   31.166840   32.648992   38.127422

--------------------------------
INTERNAL COORDINATES (ANGSTROEM)
--------------------------------
 C      0   0   0     0.000000000000     0.00000000     0.00000000
 C      1   0   0     1.543660304185     0.00000000     0.00000000
 O      2   1   0     1.447094275131   113.49628899     0.00000000
 C      3   2   1     1.371103050105   124.16895041    52.59195841
 O      4   3   2     1.217849683695   123.55326899   325.01817952
 C      4   3   2     1.505559565326   112.00585803   135.14334347
 C      6   4   3     1.357884964986   122.41620860   178.82987499
 C      7   6   4     1.513991017851   127.36321575   359.78874023
 N      7   6   4     1.398101899792   120.14661672   181.63567771
 C      9   7   6     1.369059247628   124.96948698     5.32704268
 S     10   9   7     1.654070075759   121.95555425   176.17544674
 N     10   9   7     1.371198995999   116.49485889   356.36613967
 C     12  10   9     1.474045840250   125.22874647   353.94067226
 C     13  12  10     1.526367029052   109.57081013   247.38461499
 C     14  13  12     1.407688623072   120.37004595   251.48463832
 C     15  14  13     1.405019664935   120.59099664   180.49038039
 C     16  15  14     1.405310119623   119.63546245   359.80691497
 C     17  16  15     1.401670787434   119.92621230   359.84832054
 O     18  17  16     1.356740548141   120.06359988   180.10232901
 C     18  17  16     1.398212827123   120.30461434     0.21859662
 H      1   2   3     1.096818614606   111.39105377   282.79357636
 H      1   2   3     1.096502190863   110.25201931   163.70438084
 H      1   2   3     1.097173034840   110.87704590    43.98891895
 H      2   1   3     1.098263603727   108.99186818   122.31545816
 H      2   1   3     1.097398949334   108.86748098   239.17005001
 H      8   7   6     1.097602711286   110.48760478    63.41604561
 H      8   7   6     1.097423388158   110.63533531   304.72560803
 H      8   7   6     1.096254025251   113.07725910   184.12622666
 H      9   7   6     1.007493864056   119.53800540   181.51009200
 H     12  10   9     1.011820101929   114.60372134   182.37979179
 H     13  12  10     1.099132983836   107.23510602   129.94264592
 H     15  14  13     1.086794437447   119.89399156     0.08386331
 H     16  15  14     1.088713405681   120.05421263   179.96735236
 H     17  16  15     1.085118806138   119.92658343   180.11029461
 H     19  18  17     0.968965067821   107.56704196     2.68316531
 H     20  18  17     1.084720940170   119.14079953   180.39395447

---------------------------
INTERNAL COORDINATES (A.U.)
---------------------------
 C      0   0   0     0.000000000000     0.00000000     0.00000000
 C      1   0   0     2.917095218715     0.00000000     0.00000000
 O      2   1   0     2.734611869963   113.49628899     0.00000000
 C      3   2   1     2.591009266082   124.16895041    52.59195841
 O      4   3   2     2.301402374466   123.55326899   325.01817952
 C      4   3   2     2.845095256771   112.00585803   135.14334347
 C      6   4   3     2.566030705192   122.41620860   178.82987499
 C      7   6   4     2.861028392955   127.36321575   359.78874023
 N      7   6   4     2.642029697923   120.14661672   181.63567771
 C      9   7   6     2.587147039129   124.96948698     5.32704268
 S     10   9   7     3.125739449498   121.95555425   176.17544674
 N     10   9   7     2.591190577546   116.49485889   356.36613967
 C     12  10   9     2.785542946919   125.22874647   353.94067226
 C     13  12  10     2.884415664755   109.57081013   247.38461499
 C     14  13  12     2.660145979443   120.37004595   251.48463832
 C     15  14  13     2.655102379501   120.59099664   180.49038039
 C     16  15  14     2.655651259315   119.63546245   359.80691497
 C     17  16  15     2.648773918167   119.92621230   359.84832054
 O     18  17  16     2.563868070773   120.06359988   180.10232901
 C     18  17  16     2.642239320199   120.30461434     0.21859662
 H      1   2   3     2.072686800193   111.39105377   282.79357636
 H      1   2   3     2.072088845976   110.25201931   163.70438084
 H      1   2   3     2.073356557370   110.87704590    43.98891895
 H      2   1   3     2.075417433898   108.99186818   122.31545816
 H      2   1   3     2.073783473895   108.86748098   239.17005001
 H      8   7   6     2.074168528181   110.48760478    63.41604561
 H      8   7   6     2.073829656578   110.63533531   304.72560803
 H      8   7   6     2.071619880934   113.07725910   184.12622666
 H      9   7   6     1.903887484672   119.53800540   181.51009200
 H     12  10   9     1.912062889442   114.60372134   182.37979179
 H     13  12  10     2.077060324210   107.23510602   129.94264592
 H     15  14  13     2.053743850644   119.89399156     0.08386331
 H     16  15  14     2.057370175065   120.05421263   179.96735236
 H     17  16  15     2.050577366369   119.92658343   180.11029461
 H     19  18  17     1.831078611518   107.56704196     2.68316531
 H     20  18  17     2.049825508650   119.14079953   180.39395447

---------------------
BASIS SET INFORMATION
---------------------
There are 5 groups of distinct atoms

 Group   1 Type C   : 18s5p2d1f contracted to 4s3p2d1f pattern {8811/311/11/1}
 Group   2 Type O   : 18s5p2d1f contracted to 4s3p2d1f pattern {8811/311/11/1}
 Group   3 Type N   : 18s5p2d1f contracted to 4s3p2d1f pattern {8811/311/11/1}
 Group   4 Type S   : 41s16p2d1f contracted to 5s4p2d1f pattern {13131311/7711/11/1}
 Group   5 Type H   : 5s2p1d contracted to 3s2p1d pattern {311/11/1}

Atom   0C    basis set group =>   1
Atom   1C    basis set group =>   1
Atom   2O    basis set group =>   2
Atom   3C    basis set group =>   1
Atom   4O    basis set group =>   2
Atom   5C    basis set group =>   1
Atom   6C    basis set group =>   1
Atom   7C    basis set group =>   1
Atom   8N    basis set group =>   3
Atom   9C    basis set group =>   1
Atom  10S    basis set group =>   4
Atom  11N    basis set group =>   3
Atom  12C    basis set group =>   1
Atom  13C    basis set group =>   1
Atom  14C    basis set group =>   1
Atom  15C    basis set group =>   1
Atom  16C    basis set group =>   1
Atom  17C    basis set group =>   1
Atom  18O    basis set group =>   2
Atom  19C    basis set group =>   1
Atom  20H    basis set group =>   5
Atom  21H    basis set group =>   5
Atom  22H    basis set group =>   5
Atom  23H    basis set group =>   5
Atom  24H    basis set group =>   5
Atom  25H    basis set group =>   5
Atom  26H    basis set group =>   5
Atom  27H    basis set group =>   5
Atom  28H    basis set group =>   5
Atom  29H    basis set group =>   5
Atom  30H    basis set group =>   5
Atom  31H    basis set group =>   5
Atom  32H    basis set group =>   5
Atom  33H    basis set group =>   5
Atom  34H    basis set group =>   5
Atom  35H    basis set group =>   5
---------------------------------
AUXILIARY/C BASIS SET INFORMATION
---------------------------------
There are 5 groups of distinct atoms

 Group   1 Type C   : 8s6p5d3f1g contracted to 8s6p5d3f1g pattern {11111111/111111/11111/111/1}
 Group   2 Type O   : 8s6p5d3f1g contracted to 8s6p5d3f1g pattern {11111111/111111/11111/111/1}
 Group   3 Type N   : 8s6p5d3f1g contracted to 8s6p5d3f1g pattern {11111111/111111/11111/111/1}
 Group   4 Type S   : 10s8p7d5f2g contracted to 10s8p7d5f2g pattern {1111111111/11111111/1111111/11111/11}
 Group   5 Type H   : 4s3p2d1f contracted to 4s3p2d1f pattern {1111/111/11/1}

Atom   0C    basis set group =>   1
Atom   1C    basis set group =>   1
Atom   2O    basis set group =>   2
Atom   3C    basis set group =>   1
Atom   4O    basis set group =>   2
Atom   5C    basis set group =>   1
Atom   6C    basis set group =>   1
Atom   7C    basis set group =>   1
Atom   8N    basis set group =>   3
Atom   9C    basis set group =>   1
Atom  10S    basis set group =>   4
Atom  11N    basis set group =>   3
Atom  12C    basis set group =>   1
Atom  13C    basis set group =>   1
Atom  14C    basis set group =>   1
Atom  15C    basis set group =>   1
Atom  16C    basis set group =>   1
Atom  17C    basis set group =>   1
Atom  18O    basis set group =>   2
Atom  19C    basis set group =>   1
Atom  20H    basis set group =>   5
Atom  21H    basis set group =>   5
Atom  22H    basis set group =>   5
Atom  23H    basis set group =>   5
Atom  24H    basis set group =>   5
Atom  25H    basis set group =>   5
Atom  26H    basis set group =>   5
Atom  27H    basis set group =>   5
Atom  28H    basis set group =>   5
Atom  29H    basis set group =>   5
Atom  30H    basis set group =>   5
Atom  31H    basis set group =>   5
Atom  32H    basis set group =>   5
Atom  33H    basis set group =>   5
Atom  34H    basis set group =>   5
Atom  35H    basis set group =>   5
------------------------------------------------------------------------------
                           ORCA GTO INTEGRAL CALCULATION
------------------------------------------------------------------------------
------------------------------------------------------------------------------
                   ___                                                        
                  /   \      - P O W E R E D   B Y -                         
                 /     \                                                     
                 |  |  |   _    _      __       _____    __    __             
                 |  |  |  | |  | |    /  \     |  _  \  |  |  /  |          
                  \  \/   | |  | |   /    \    | | | |  |  | /  /          
                 / \  \   | |__| |  /  /\  \   | |_| |  |  |/  /          
                |  |  |   |  __  | /  /__\  \  |    /   |      \           
                |  |  |   | |  | | |   __   |  |    \   |  |\   \          
                \     /   | |  | | |  |  |  |  | |\  \  |  | \   \       
                 \___/    |_|  |_| |__|  |__|  |_| \__\ |__|  \__/        
                                                                              
                      - O R C A' S   B I G   F R I E N D -                    
                                      &                                       
                       - I N T E G R A L  F E E D E R -                       
                                                                              
 v1 FN, 2020, v2 2021                                                         
------------------------------------------------------------------------------


Reading SHARK input file CONFS/Conf616.orca.SHARKINP.tmp ... ok
----------------------
SHARK INTEGRAL PACKAGE
----------------------

Number of atoms                             ...     36
Number of basis functions                   ...    828
Number of shells                            ...    298
Maximum angular momentum                    ...      3
Integral batch strategy                     ... SHARK/LIBINT Hybrid
RI-J (if used) integral strategy            ... SPLIT-RIJ (Revised 2003 algorithm where possible)
Printlevel                                  ...      1
Contraction scheme used                     ... SEGMENTED contraction
Coulomb Range Separation                    ... NOT USED
Exchange Range Separation                   ... NOT USED
Finite Nucleus Model                        ... NOT USED
Auxiliary Coulomb fitting basis             ... NOT available
Auxiliary J/K fitting basis                 ... NOT available
Auxiliary Correlation fitting basis         ... AVAILABLE
   # of basis functions in Aux-C            ...   2141
   # of shells in Aux-C                     ...    629
   Maximum angular momentum in Aux-C        ...      4
Auxiliary 'external' fitting basis          ... NOT available
Integral threshold                          ...     2.500000e-11
Primitive cut-off                           ...     2.500000e-12
Primitive pair pre-selection threshold      ...     2.500000e-12

Calculating pre-screening integrals         ... done (  0.8 sec) Dimension = 298
Organizing shell pair data                  ... done (  1.2 sec)
Shell pair information
Total number of shell pairs                 ...     44551
Shell pairs after pre-screening             ...     33164
Total number of primitive shell pairs       ...    234348
Primitive shell pairs kept                  ...     95159
          la=0 lb=0:   6625 shell pairs
          la=1 lb=0:   9201 shell pairs
          la=1 lb=1:   3241 shell pairs
          la=2 lb=0:   5293 shell pairs
          la=2 lb=1:   3637 shell pairs
          la=2 lb=2:   1050 shell pairs
          la=3 lb=0:   1923 shell pairs
          la=3 lb=1:   1315 shell pairs
          la=3 lb=2:    731 shell pairs
          la=3 lb=3:    148 shell pairs

Calculating one electron integrals          ... done (  0.3 sec)
Calculating RI/C V-Matrix + Cholesky decomp.... done (  1.2 sec)
Calculating Nuclear repulsion               ... done (  0.0 sec) ENN=   1706.633522567748 Eh

SHARK setup successfully completed in   4.2 seconds

Maximum memory used throughout the entire GTOINT-calculation: 493.5 MB
-------------------------------------------------------------------------------
                                 ORCA SCF
-------------------------------------------------------------------------------

------------
SCF SETTINGS
------------
Hamiltonian:
 Ab initio Hamiltonian  Method          .... Hartree-Fock(GTOs)


General Settings:
 Integral files         IntName         .... CONFS/Conf616.orca
 Hartree-Fock type      HFTyp           .... RHF
 Total Charge           Charge          ....    0
 Multiplicity           Mult            ....    1
 Number of Electrons    NEL             ....  154
 Basis Dimension        Dim             ....  828
 Nuclear Repulsion      ENuc            ....   1706.6335225677 Eh

Convergence Acceleration:
 DIIS                   CNVDIIS         .... on
   Start iteration      DIISMaxIt       ....    12
   Startup error        DIISStart       ....  0.200000
   # of expansion vecs  DIISMaxEq       ....     5
   Bias factor          DIISBfac        ....   1.050
   Max. coefficient     DIISMaxC        ....  10.000
 Trust-Rad. Augm. Hess. CNVTRAH         .... auto
   Auto Start mean grad. ratio tolernc. ....  1.125000
   Auto Start start iteration           ....    20
   Auto Start num. interpolation iter.  ....    10
   Max. Number of Micro iterations      ....    16
   Max. Number of Macro iterations      .... Maxiter - #DIIS iter
   Number of Davidson start vectors     ....     2
   Converg. threshold I  (grad. norm)   ....   1.000e-05
   Converg. threshold II (energy diff.) ....   1.000e-08
   Grad. Scal. Fac. for Micro threshold ....   0.100
   Minimum threshold for Micro iter.    ....   0.010
   NR start threshold (gradient norm)   ....   0.001
   Initial trust radius                 ....   0.400
   Minimum AH scaling param. (alpha)    ....   1.000
   Maximum AH scaling param. (alpha)    .... 1000.000
   Orbital update algorithm             .... Taylor
   White noise on init. David. guess    .... on
   Maximum white noise                  ....   0.010
   Quad. conv. algorithm                .... NR
 SOSCF                  CNVSOSCF        .... on
   Start iteration      SOSCFMaxIt      ....   150
   Startup grad/error   SOSCFStart      ....  0.003300
 Level Shifting         CNVShift        .... on
   Level shift para.    LevelShift      ....    0.2500
   Turn off err/grad.   ShiftErr        ....    0.0010
 Zerner damping         CNVZerner       .... off
 Static damping         CNVDamp         .... on
   Fraction old density DampFac         ....    0.7000
   Max. Damping (<1)    DampMax         ....    0.9800
   Min. Damping (>=0)   DampMin         ....    0.0000
   Turn off err/grad.   DampErr         ....    0.1000
 Fernandez-Rico         CNVRico         .... off

SCF Procedure:
 Maximum # iterations   MaxIter         ....   125
 SCF integral mode      SCFMode         .... Direct
   Integral package                     .... SHARK and LIBINT hybrid scheme
 Reset frequency        DirectResetFreq ....    20
 Integral Threshold     Thresh          ....  2.500e-11 Eh
 Primitive CutOff       TCut            ....  2.500e-12 Eh

Convergence Tolerance:
 Convergence Check Mode ConvCheckMode   .... Total+1el-Energy
 Convergence forced     ConvForced      .... 1
 Energy Change          TolE            ....  1.000e-08 Eh
 1-El. energy change                    ....  1.000e-05 Eh
 Orbital Gradient       TolG            ....  1.000e-05
 Orbital Rotation angle TolX            ....  1.000e-05
 DIIS Error             TolErr          ....  5.000e-07


Diagonalization of the overlap matrix:
Smallest eigenvalue                        ... 3.420e-05
Time for diagonalization                   ...    0.107 sec
Threshold for overlap eigenvalues          ... 1.000e-08
Number of eigenvalues below threshold      ... 0
Time for construction of square roots      ...    0.495 sec
Total time needed                          ...    0.602 sec

Time for model grid setup =    1.528 sec

------------------------------
INITIAL GUESS: MODEL POTENTIAL
------------------------------
Loading Hartree-Fock densities                     ... done
Calculating cut-offs                               ... done
Initializing the effective Hamiltonian             ... done
Setting up the integral package (SHARK)            ... done
Starting the Coulomb interaction                   ... done (   3.7 sec)
Reading the grid                                   ... done
Mapping shells                                     ... done
Starting the XC term evaluation                    ... done (   1.1 sec)
Transforming the Hamiltonian                       ... done (   0.1 sec)
Diagonalizing the Hamiltonian                      ... done (   0.2 sec)
Back transforming the eigenvectors                 ... done (   0.1 sec)
Now organizing SCF variables                       ... done
                      ------------------
                      INITIAL GUESS DONE (   6.9 sec)
                      ------------------
--------------
SCF ITERATIONS
--------------
ITER       Energy         Delta-E        Max-DP      RMS-DP      [F,P]     Damp
               ***  Starting incremental Fock matrix formation  ***
  0  -1270.0073254036   0.000000000000 0.04930835  0.00042640  0.3020675 0.7000
  1  -1270.2754433921  -0.268117988523 0.03607350  0.00034177  0.1775851 0.7000
                               ***Turning on DIIS***
  2  -1270.4426796429  -0.167236250737 0.02583099  0.00023136  0.1096304 0.7000
  3  -1272.5908440945  -2.148164451636 0.06311466  0.00051092  0.0828683 0.0000
  4  -1270.7499911659   1.840852928618 0.00658516  0.00009273  0.0069601 0.0000
  5  -1270.8115541650  -0.061562999154 0.00309178  0.00004876  0.0050448 0.0000
                      *** Initiating the SOSCF procedure ***
                           *** Shutting down DIIS ***
                      *** Re-Reading the Fockian *** 
                      *** Removing any level shift *** 
ITER      Energy       Delta-E        Grad      Rot      Max-DP    RMS-DP
  6  -1270.79126804   0.0202861246  0.001636  0.001636  0.001720  0.000025
               *** Restarting incremental Fock matrix formation ***
  7  -1270.80601602  -0.0147479767  0.000969  0.002485  0.001252  0.000015
  8  -1270.80606301  -0.0000469965  0.000420  0.002819  0.001387  0.000017
  9  -1270.80608077  -0.0000177547  0.000168  0.000344  0.000358  0.000004
 10  -1270.80608304  -0.0000022717  0.000055  0.000149  0.000120  0.000001
 11  -1270.80608327  -0.0000002264  0.000025  0.000127  0.000058  0.000001
 12  -1270.80608334  -0.0000000711  0.000010  0.000042  0.000034  0.000000
 13  -1270.80608334   0.0000000020  0.000003  0.000011  0.000006  0.000000
                  ***Gradient check signals convergence***
              ***Rediagonalizing the Fockian in SOSCF/NRSCF***

               *****************************************************
               *                     SUCCESS                       *
               *           SCF CONVERGED AFTER  14 CYCLES          *
               *****************************************************


----------------
TOTAL SCF ENERGY
----------------

Total Energy       :        -1270.80608332 Eh          -34580.39156 eV

Components:
Nuclear Repulsion  :         1706.63352257 Eh           46439.85911 eV
Electronic Energy  :        -2977.43960589 Eh          -81020.25067 eV
One Electron Energy:        -5134.57325100 Eh         -139718.84133 eV
Two Electron Energy:         2157.13364511 Eh           58698.59066 eV

Virial components:
Potential Energy   :        -2539.73133723 Eh          -69109.60315 eV
Kinetic Energy     :         1268.92525390 Eh           34529.21159 eV
Virial Ratio       :            2.00148222


---------------
SCF CONVERGENCE
---------------

  Last Energy change         ...    1.3029e-08  Tolerance :   1.0000e-08
  Last MAX-Density change    ...    1.6194e-06  Tolerance :   1.0000e-07
  Last RMS-Density change    ...    2.8691e-08  Tolerance :   5.0000e-09
  Last Orbital Gradient      ...    1.2967e-06  Tolerance :   1.0000e-05
  Last Orbital Rotation      ...    2.9625e-06  Tolerance :   1.0000e-05

             **** THE GBW FILE WAS UPDATED (CONFS/Conf616.orca.gbw) ****
             **** DENSITY CONFS/Conf616.orca.scfp WAS UPDATED ****
             **** ENERGY FILE WAS UPDATED (CONFS/Conf616.orca.en.tmp) ****
             **** THE GBW FILE WAS UPDATED (CONFS/Conf616.orca.gbw) ****
             **** DENSITY CONFS/Conf616.orca.scfp WAS UPDATED ****
----------------
ORBITAL ENERGIES
----------------

  NO   OCC          E(Eh)            E(eV) 
   0   2.0000     -91.888665     -2500.4177 
   1   2.0000     -20.598239      -560.5066 
   2   2.0000     -20.592737      -560.3569 
   3   2.0000     -20.543293      -559.0114 
   4   2.0000     -15.628758      -425.2801 
   5   2.0000     -15.608021      -424.7158 
   6   2.0000     -11.396415      -310.1122 
   7   2.0000     -11.383718      -309.7667 
   8   2.0000     -11.335334      -308.4501 
   9   2.0000     -11.315667      -307.9150 
  10   2.0000     -11.308841      -307.7292 
  11   2.0000     -11.300028      -307.4894 
  12   2.0000     -11.261085      -306.4297 
  13   2.0000     -11.258124      -306.3491 
  14   2.0000     -11.257031      -306.3194 
  15   2.0000     -11.252004      -306.1826 
  16   2.0000     -11.244628      -305.9819 
  17   2.0000     -11.239786      -305.8501 
  18   2.0000     -11.239455      -305.8411 
  19   2.0000     -11.218576      -305.2730 
  20   2.0000      -8.893733      -242.0108 
  21   2.0000      -6.575310      -178.9233 
  22   2.0000      -6.573304      -178.8687 
  23   2.0000      -6.572718      -178.8527 
  24   2.0000      -1.444339       -39.3025 
  25   2.0000      -1.417888       -38.5827 
  26   2.0000      -1.354459       -36.8567 
  27   2.0000      -1.339854       -36.4593 
  28   2.0000      -1.238429       -33.6994 
  29   2.0000      -1.158794       -31.5324 
  30   2.0000      -1.119783       -30.4708 
  31   2.0000      -1.043230       -28.3877 
  32   2.0000      -1.033566       -28.1248 
  33   2.0000      -1.016688       -27.6655 
  34   2.0000      -0.995114       -27.0784 
  35   2.0000      -0.983492       -26.7622 
  36   2.0000      -0.922770       -25.1099 
  37   2.0000      -0.892449       -24.2848 
  38   2.0000      -0.847430       -23.0597 
  39   2.0000      -0.839075       -22.8324 
  40   2.0000      -0.835412       -22.7327 
  41   2.0000      -0.820506       -22.3271 
  42   2.0000      -0.748593       -20.3702 
  43   2.0000      -0.731879       -19.9155 
  44   2.0000      -0.719081       -19.5672 
  45   2.0000      -0.696923       -18.9642 
  46   2.0000      -0.688393       -18.7321 
  47   2.0000      -0.678870       -18.4730 
  48   2.0000      -0.668718       -18.1967 
  49   2.0000      -0.658007       -17.9053 
  50   2.0000      -0.650258       -17.6944 
  51   2.0000      -0.645550       -17.5663 
  52   2.0000      -0.635140       -17.2831 
  53   2.0000      -0.608494       -16.5580 
  54   2.0000      -0.602025       -16.3819 
  55   2.0000      -0.599476       -16.3126 
  56   2.0000      -0.595811       -16.2128 
  57   2.0000      -0.581734       -15.8298 
  58   2.0000      -0.575840       -15.6694 
  59   2.0000      -0.570713       -15.5299 
  60   2.0000      -0.562900       -15.3173 
  61   2.0000      -0.538805       -14.6616 
  62   2.0000      -0.534672       -14.5492 
  63   2.0000      -0.525725       -14.3057 
  64   2.0000      -0.520525       -14.1642 
  65   2.0000      -0.513101       -13.9622 
  66   2.0000      -0.501315       -13.6415 
  67   2.0000      -0.497845       -13.5470 
  68   2.0000      -0.484297       -13.1784 
  69   2.0000      -0.463607       -12.6154 
  70   2.0000      -0.454738       -12.3741 
  71   2.0000      -0.439186       -11.9509 
  72   2.0000      -0.353727        -9.6254 
  73   2.0000      -0.350834        -9.5467 
  74   2.0000      -0.328301        -8.9335 
  75   2.0000      -0.323064        -8.7910 
  76   2.0000      -0.316082        -8.6010 
  77   0.0000       0.074585         2.0296 
  78   0.0000       0.104968         2.8563 
  79   0.0000       0.124539         3.3889 
  80   0.0000       0.131815         3.5869 
  81   0.0000       0.137240         3.7345 
  82   0.0000       0.140871         3.8333 
  83   0.0000       0.149307         4.0629 
  84   0.0000       0.158840         4.3223 
  85   0.0000       0.163031         4.4363 
  86   0.0000       0.170140         4.6297 
  87   0.0000       0.179924         4.8960 
  88   0.0000       0.189235         5.1493 
  89   0.0000       0.195027         5.3070 
  90   0.0000       0.201985         5.4963 
  91   0.0000       0.208011         5.6603 
  92   0.0000       0.211581         5.7574 
  93   0.0000       0.221401         6.0246 
  94   0.0000       0.223972         6.0946 
  95   0.0000       0.234016         6.3679 
  96   0.0000       0.246486         6.7072 
  97   0.0000       0.252177         6.8621 
  98   0.0000       0.262999         7.1566 
  99   0.0000       0.269147         7.3239 
 100   0.0000       0.293721         7.9926 
 101   0.0000       0.304391         8.2829 
 102   0.0000       0.317189         8.6312 
 103   0.0000       0.318493         8.6666 
 104   0.0000       0.331924         9.0321 
 105   0.0000       0.336242         9.1496 
 106   0.0000       0.340322         9.2606 
 107   0.0000       0.347036         9.4433 
 108   0.0000       0.358897         9.7661 
 109   0.0000       0.364071         9.9069 
 110   0.0000       0.370438        10.0801 
 111   0.0000       0.378648        10.3035 
 112   0.0000       0.380846        10.3634 
 113   0.0000       0.389421        10.5967 
 114   0.0000       0.394936        10.7468 
 115   0.0000       0.405811        11.0427 
 116   0.0000       0.421488        11.4693 
 117   0.0000       0.429941        11.6993 
 118   0.0000       0.434198        11.8151 
 119   0.0000       0.438372        11.9287 
 120   0.0000       0.445420        12.1205 
 121   0.0000       0.450078        12.2472 
 122   0.0000       0.457280        12.4432 
 123   0.0000       0.463677        12.6173 
 124   0.0000       0.465235        12.6597 
 125   0.0000       0.474750        12.9186 
 126   0.0000       0.478044        13.0082 
 127   0.0000       0.482233        13.1222 
 128   0.0000       0.488171        13.2838 
 129   0.0000       0.497761        13.5448 
 130   0.0000       0.502620        13.6770 
 131   0.0000       0.505986        13.7686 
 132   0.0000       0.513072        13.9614 
 133   0.0000       0.517426        14.0799 
 134   0.0000       0.520900        14.1744 
 135   0.0000       0.527718        14.3599 
 136   0.0000       0.537335        14.6216 
 137   0.0000       0.539235        14.6733 
 138   0.0000       0.542168        14.7531 
 139   0.0000       0.550592        14.9824 
 140   0.0000       0.562106        15.2957 
 141   0.0000       0.563963        15.3462 
 142   0.0000       0.564809        15.3692 
 143   0.0000       0.569549        15.4982 
 144   0.0000       0.573880        15.6161 
 145   0.0000       0.580529        15.7970 
 146   0.0000       0.582390        15.8476 
 147   0.0000       0.596118        16.2212 
 148   0.0000       0.598059        16.2740 
 149   0.0000       0.599997        16.3267 
 150   0.0000       0.602773        16.4023 
 151   0.0000       0.609567        16.5872 
 152   0.0000       0.611558        16.6413 
 153   0.0000       0.612433        16.6652 
 154   0.0000       0.618519        16.8308 
 155   0.0000       0.625339        17.0164 
 156   0.0000       0.628819        17.1110 
 157   0.0000       0.635272        17.2866 
 158   0.0000       0.641185        17.4475 
 159   0.0000       0.643321        17.5057 
 160   0.0000       0.650376        17.6976 
 161   0.0000       0.652009        17.7421 
 162   0.0000       0.656443        17.8627 
 163   0.0000       0.663837        18.0639 
 164   0.0000       0.666941        18.1484 
 165   0.0000       0.671385        18.2693 
 166   0.0000       0.675507        18.3815 
 167   0.0000       0.682710        18.5775 
 168   0.0000       0.685943        18.6655 
 169   0.0000       0.696031        18.9400 
 170   0.0000       0.701898        19.0996 
 171   0.0000       0.709958        19.3189 
 172   0.0000       0.714658        19.4468 
 173   0.0000       0.721604        19.6358 
 174   0.0000       0.728597        19.8261 
 175   0.0000       0.731523        19.9058 
 176   0.0000       0.739101        20.1120 
 177   0.0000       0.742227        20.1970 
 178   0.0000       0.751453        20.4481 
 179   0.0000       0.759261        20.6605 
 180   0.0000       0.769012        20.9259 
 181   0.0000       0.770352        20.9623 
 182   0.0000       0.776121        21.1193 
 183   0.0000       0.780384        21.2353 
 184   0.0000       0.801094        21.7989 
 185   0.0000       0.803976        21.8773 
 186   0.0000       0.819048        22.2874 
 187   0.0000       0.826938        22.5021 
 188   0.0000       0.829675        22.5766 
 189   0.0000       0.833272        22.6745 
 190   0.0000       0.838679        22.8216 
 191   0.0000       0.850891        23.1539 
 192   0.0000       0.860158        23.4061 
 193   0.0000       0.863374        23.4936 
 194   0.0000       0.866600        23.5814 
 195   0.0000       0.870902        23.6985 
 196   0.0000       0.884181        24.0598 
 197   0.0000       0.887615        24.1532 
 198   0.0000       0.891374        24.2555 
 199   0.0000       0.905255        24.6332 
 200   0.0000       0.909064        24.7369 
 201   0.0000       0.920635        25.0517 
 202   0.0000       0.923053        25.1175 
 203   0.0000       0.938141        25.5281 
 204   0.0000       0.943896        25.6847 
 205   0.0000       0.946651        25.7597 
 206   0.0000       0.960031        26.1238 
 207   0.0000       0.965961        26.2851 
 208   0.0000       0.968895        26.3650 
 209   0.0000       0.979302        26.6482 
 210   0.0000       0.984057        26.7776 
 211   0.0000       0.989670        26.9303 
 212   0.0000       0.997131        27.1333 
 213   0.0000       1.004728        27.3400 
 214   0.0000       1.014259        27.5994 
 215   0.0000       1.022868        27.8337 
 216   0.0000       1.026563        27.9342 
 217   0.0000       1.033325        28.1182 
 218   0.0000       1.041234        28.3334 
 219   0.0000       1.048957        28.5436 
 220   0.0000       1.052909        28.6511 
 221   0.0000       1.061245        28.8779 
 222   0.0000       1.064796        28.9746 
 223   0.0000       1.068823        29.0842 
 224   0.0000       1.082479        29.4558 
 225   0.0000       1.091035        29.6886 
 226   0.0000       1.096319        29.8324 
 227   0.0000       1.102067        29.9888 
 228   0.0000       1.107251        30.1298 
 229   0.0000       1.121760        30.5246 
 230   0.0000       1.132835        30.8260 
 231   0.0000       1.137367        30.9493 
 232   0.0000       1.141357        31.0579 
 233   0.0000       1.148418        31.2500 
 234   0.0000       1.155900        31.4536 
 235   0.0000       1.162277        31.6272 
 236   0.0000       1.170919        31.8623 
 237   0.0000       1.175343        31.9827 
 238   0.0000       1.184393        32.2290 
 239   0.0000       1.186466        32.2854 
 240   0.0000       1.191677        32.4272 
 241   0.0000       1.197256        32.5790 
 242   0.0000       1.204683        32.7811 
 243   0.0000       1.212337        32.9894 
 244   0.0000       1.219989        33.1976 
 245   0.0000       1.226450        33.3734 
 246   0.0000       1.233824        33.5740 
 247   0.0000       1.236921        33.6583 
 248   0.0000       1.247265        33.9398 
 249   0.0000       1.252323        34.0774 
 250   0.0000       1.260295        34.2944 
 251   0.0000       1.273504        34.6538 
 252   0.0000       1.275515        34.7085 
 253   0.0000       1.280749        34.8510 
 254   0.0000       1.293117        35.1875 
 255   0.0000       1.303467        35.4692 
 256   0.0000       1.311891        35.6984 
 257   0.0000       1.326755        36.1028 
 258   0.0000       1.330311        36.1996 
 259   0.0000       1.341396        36.5012 
 260   0.0000       1.349982        36.7349 
 261   0.0000       1.356013        36.8990 
 262   0.0000       1.365730        37.1634 
 263   0.0000       1.372878        37.3579 
 264   0.0000       1.376572        37.4584 
 265   0.0000       1.390474        37.8367 
 266   0.0000       1.402649        38.1680 
 267   0.0000       1.405441        38.2440 
 268   0.0000       1.409569        38.3563 
 269   0.0000       1.420286        38.6480 
 270   0.0000       1.424370        38.7591 
 271   0.0000       1.430106        38.9152 
 272   0.0000       1.433825        39.0164 
 273   0.0000       1.447035        39.3758 
 274   0.0000       1.457767        39.6679 
 275   0.0000       1.465312        39.8732 
 276   0.0000       1.470105        40.0036 
 277   0.0000       1.477252        40.1981 
 278   0.0000       1.485977        40.4355 
 279   0.0000       1.494723        40.6735 
 280   0.0000       1.500800        40.8388 
 281   0.0000       1.504445        40.9380 
 282   0.0000       1.504836        40.9487 
 283   0.0000       1.516477        41.2654 
 284   0.0000       1.523550        41.4579 
 285   0.0000       1.528450        41.5913 
 286   0.0000       1.534122        41.7456 
 287   0.0000       1.538402        41.8621 
 288   0.0000       1.549230        42.1567 
 289   0.0000       1.552033        42.2330 
 290   0.0000       1.560400        42.4606 
 291   0.0000       1.561772        42.4980 
 292   0.0000       1.569961        42.7208 
 293   0.0000       1.572953        42.8022 
 294   0.0000       1.582915        43.0733 
 295   0.0000       1.584926        43.1280 
 296   0.0000       1.599021        43.5116 
 297   0.0000       1.609146        43.7871 
 298   0.0000       1.616727        43.9934 
 299   0.0000       1.631226        44.3879 
 300   0.0000       1.642141        44.6849 
 301   0.0000       1.645968        44.7891 
 302   0.0000       1.657480        45.1023 
 303   0.0000       1.659749        45.1641 
 304   0.0000       1.665071        45.3089 
 305   0.0000       1.669627        45.4329 
 306   0.0000       1.681702        45.7614 
 307   0.0000       1.691792        46.0360 
 308   0.0000       1.703602        46.3574 
 309   0.0000       1.705182        46.4004 
 310   0.0000       1.709022        46.5049 
 311   0.0000       1.724694        46.9313 
 312   0.0000       1.733843        47.1803 
 313   0.0000       1.738640        47.3108 
 314   0.0000       1.752826        47.6968 
 315   0.0000       1.773946        48.2715 
 316   0.0000       1.778733        48.4018 
 317   0.0000       1.787675        48.6451 
 318   0.0000       1.789544        48.6960 
 319   0.0000       1.800052        48.9819 
 320   0.0000       1.812996        49.3341 
 321   0.0000       1.816247        49.4226 
 322   0.0000       1.820474        49.5376 
 323   0.0000       1.836665        49.9782 
 324   0.0000       1.850020        50.3416 
 325   0.0000       1.853396        50.4335 
 326   0.0000       1.860801        50.6350 
 327   0.0000       1.889460        51.4148 
 328   0.0000       1.902287        51.7639 
 329   0.0000       1.916221        52.1430 
 330   0.0000       1.920145        52.2498 
 331   0.0000       1.929776        52.5119 
 332   0.0000       1.937253        52.7153 
 333   0.0000       1.950738        53.0823 
 334   0.0000       1.967927        53.5500 
 335   0.0000       1.974700        53.7343 
 336   0.0000       1.987654        54.0868 
 337   0.0000       2.001910        54.4747 
 338   0.0000       2.004226        54.5378 
 339   0.0000       2.021905        55.0188 
 340   0.0000       2.032598        55.3098 
 341   0.0000       2.042382        55.5760 
 342   0.0000       2.052004        55.8379 
 343   0.0000       2.075768        56.4845 
 344   0.0000       2.082249        56.6609 
 345   0.0000       2.114803        57.5467 
 346   0.0000       2.120916        57.7131 
 347   0.0000       2.127658        57.8965 
 348   0.0000       2.149821        58.4996 
 349   0.0000       2.156722        58.6874 
 350   0.0000       2.171916        59.1008 
 351   0.0000       2.177990        59.2661 
 352   0.0000       2.211005        60.1645 
 353   0.0000       2.223244        60.4975 
 354   0.0000       2.229239        60.6607 
 355   0.0000       2.251712        61.2722 
 356   0.0000       2.264877        61.6304 
 357   0.0000       2.286284        62.2130 
 358   0.0000       2.298543        62.5465 
 359   0.0000       2.308985        62.8307 
 360   0.0000       2.312170        62.9173 
 361   0.0000       2.330707        63.4218 
 362   0.0000       2.334949        63.5372 
 363   0.0000       2.345773        63.8317 
 364   0.0000       2.362797        64.2950 
 365   0.0000       2.380947        64.7888 
 366   0.0000       2.392578        65.1054 
 367   0.0000       2.401320        65.3432 
 368   0.0000       2.416997        65.7698 
 369   0.0000       2.429144        66.1004 
 370   0.0000       2.459803        66.9346 
 371   0.0000       2.462251        67.0012 
 372   0.0000       2.473005        67.2939 
 373   0.0000       2.477732        67.4225 
 374   0.0000       2.480383        67.4947 
 375   0.0000       2.509011        68.2737 
 376   0.0000       2.512757        68.3756 
 377   0.0000       2.517555        68.5062 
 378   0.0000       2.539286        69.0975 
 379   0.0000       2.559551        69.6489 
 380   0.0000       2.567176        69.8564 
 381   0.0000       2.577529        70.1381 
 382   0.0000       2.587189        70.4010 
 383   0.0000       2.589329        70.4592 
 384   0.0000       2.612620        71.0930 
 385   0.0000       2.623720        71.3951 
 386   0.0000       2.640386        71.8486 
 387   0.0000       2.648866        72.0793 
 388   0.0000       2.655591        72.2623 
 389   0.0000       2.665438        72.5302 
 390   0.0000       2.690346        73.2080 
 391   0.0000       2.700029        73.4715 
 392   0.0000       2.705950        73.6326 
 393   0.0000       2.718848        73.9836 
 394   0.0000       2.730342        74.2964 
 395   0.0000       2.739015        74.5324 
 396   0.0000       2.744303        74.6763 
 397   0.0000       2.750999        74.8585 
 398   0.0000       2.763089        75.1875 
 399   0.0000       2.782212        75.7078 
 400   0.0000       2.789888        75.9167 
 401   0.0000       2.799977        76.1912 
 402   0.0000       2.813581        76.5614 
 403   0.0000       2.822666        76.8087 
 404   0.0000       2.823873        76.8415 
 405   0.0000       2.836325        77.1803 
 406   0.0000       2.840991        77.3073 
 407   0.0000       2.853347        77.6435 
 408   0.0000       2.858444        77.7822 
 409   0.0000       2.862442        77.8910 
 410   0.0000       2.872216        78.1570 
 411   0.0000       2.885248        78.5116 
 412   0.0000       2.887374        78.5694 
 413   0.0000       2.903815        79.0168 
 414   0.0000       2.908852        79.1539 
 415   0.0000       2.919792        79.4516 
 416   0.0000       2.930633        79.7466 
 417   0.0000       2.936994        79.9197 
 418   0.0000       2.944969        80.1367 
 419   0.0000       2.957033        80.4650 
 420   0.0000       2.966554        80.7240 
 421   0.0000       2.977579        81.0241 
 422   0.0000       2.993320        81.4524 
 423   0.0000       2.995305        81.5064 
 424   0.0000       2.997620        81.5694 
 425   0.0000       3.006928        81.8227 
 426   0.0000       3.009563        81.8944 
 427   0.0000       3.022462        82.2454 
 428   0.0000       3.031384        82.4881 
 429   0.0000       3.038152        82.6723 
 430   0.0000       3.050215        83.0006 
 431   0.0000       3.053734        83.0963 
 432   0.0000       3.065620        83.4198 
 433   0.0000       3.067378        83.4676 
 434   0.0000       3.076456        83.7146 
 435   0.0000       3.087054        84.0030 
 436   0.0000       3.090065        84.0850 
 437   0.0000       3.101345        84.3919 
 438   0.0000       3.109059        84.6018 
 439   0.0000       3.116119        84.7939 
 440   0.0000       3.120988        84.9264 
 441   0.0000       3.124930        85.0337 
 442   0.0000       3.128658        85.1351 
 443   0.0000       3.137152        85.3663 
 444   0.0000       3.142271        85.5055 
 445   0.0000       3.150807        85.7378 
 446   0.0000       3.155129        85.8554 
 447   0.0000       3.168873        86.2294 
 448   0.0000       3.183984        86.6406 
 449   0.0000       3.187512        86.7366 
 450   0.0000       3.196069        86.9695 
 451   0.0000       3.201816        87.1258 
 452   0.0000       3.218473        87.5791 
 453   0.0000       3.227175        87.8159 
 454   0.0000       3.230092        87.8953 
 455   0.0000       3.237654        88.1011 
 456   0.0000       3.238658        88.1284 
 457   0.0000       3.250610        88.4536 
 458   0.0000       3.259629        88.6990 
 459   0.0000       3.265518        88.8593 
 460   0.0000       3.271736        89.0285 
 461   0.0000       3.274183        89.0951 
 462   0.0000       3.277954        89.1977 
 463   0.0000       3.288611        89.4877 
 464   0.0000       3.301302        89.8330 
 465   0.0000       3.303145        89.8832 
 466   0.0000       3.307522        90.0022 
 467   0.0000       3.312884        90.1482 
 468   0.0000       3.317950        90.2860 
 469   0.0000       3.327005        90.5324 
 470   0.0000       3.334665        90.7408 
 471   0.0000       3.338011        90.8319 
 472   0.0000       3.347494        91.0899 
 473   0.0000       3.352983        91.2393 
 474   0.0000       3.357732        91.3685 
 475   0.0000       3.366536        91.6081 
 476   0.0000       3.368710        91.6673 
 477   0.0000       3.378407        91.9311 
 478   0.0000       3.384679        92.1018 
 479   0.0000       3.386983        92.1645 
 480   0.0000       3.397240        92.4436 
 481   0.0000       3.403292        92.6083 
 482   0.0000       3.406096        92.6846 
 483   0.0000       3.411416        92.8293 
 484   0.0000       3.417123        92.9846 
 485   0.0000       3.422359        93.1271 
 486   0.0000       3.428464        93.2932 
 487   0.0000       3.431825        93.3847 
 488   0.0000       3.436937        93.5238 
 489   0.0000       3.438186        93.5578 
 490   0.0000       3.443430        93.7005 
 491   0.0000       3.449140        93.8559 
 492   0.0000       3.451942        93.9321 
 493   0.0000       3.456034        94.0435 
 494   0.0000       3.462653        94.2236 
 495   0.0000       3.472573        94.4935 
 496   0.0000       3.480217        94.7015 
 497   0.0000       3.485928        94.8569 
 498   0.0000       3.491273        95.0024 
 499   0.0000       3.504520        95.3628 
 500   0.0000       3.506968        95.4295 
 501   0.0000       3.517007        95.7026 
 502   0.0000       3.523787        95.8871 
 503   0.0000       3.539638        96.3184 
 504   0.0000       3.545981        96.4911 
 505   0.0000       3.554823        96.7316 
 506   0.0000       3.560432        96.8843 
 507   0.0000       3.572459        97.2115 
 508   0.0000       3.580580        97.4325 
 509   0.0000       3.582577        97.4869 
 510   0.0000       3.586556        97.5951 
 511   0.0000       3.602943        98.0411 
 512   0.0000       3.608886        98.2028 
 513   0.0000       3.611537        98.2749 
 514   0.0000       3.615960        98.3953 
 515   0.0000       3.621074        98.5344 
 516   0.0000       3.628084        98.7252 
 517   0.0000       3.634140        98.8900 
 518   0.0000       3.638023        98.9956 
 519   0.0000       3.645432        99.1972 
 520   0.0000       3.650575        99.3372 
 521   0.0000       3.652685        99.3946 
 522   0.0000       3.660373        99.6038 
 523   0.0000       3.666691        99.7757 
 524   0.0000       3.668382        99.8217 
 525   0.0000       3.675805       100.0237 
 526   0.0000       3.682473       100.2052 
 527   0.0000       3.684180       100.2516 
 528   0.0000       3.697760       100.6212 
 529   0.0000       3.709322       100.9358 
 530   0.0000       3.709846       100.9500 
 531   0.0000       3.719425       101.2107 
 532   0.0000       3.721231       101.2598 
 533   0.0000       3.742493       101.8384 
 534   0.0000       3.745351       101.9162 
 535   0.0000       3.750649       102.0603 
 536   0.0000       3.754904       102.1761 
 537   0.0000       3.759692       102.3064 
 538   0.0000       3.763183       102.4014 
 539   0.0000       3.769416       102.5710 
 540   0.0000       3.780018       102.8595 
 541   0.0000       3.783770       102.9616 
 542   0.0000       3.795026       103.2679 
 543   0.0000       3.808270       103.6283 
 544   0.0000       3.814237       103.7907 
 545   0.0000       3.816816       103.8608 
 546   0.0000       3.823114       104.0322 
 547   0.0000       3.825991       104.1105 
 548   0.0000       3.832621       104.2909 
 549   0.0000       3.847681       104.7007 
 550   0.0000       3.861278       105.0707 
 551   0.0000       3.862611       105.1070 
 552   0.0000       3.875889       105.4683 
 553   0.0000       3.886125       105.7468 
 554   0.0000       3.892810       105.9288 
 555   0.0000       3.897381       106.0531 
 556   0.0000       3.906128       106.2912 
 557   0.0000       3.912703       106.4701 
 558   0.0000       3.923134       106.7539 
 559   0.0000       3.933723       107.0421 
 560   0.0000       3.943271       107.3019 
 561   0.0000       3.950782       107.5062 
 562   0.0000       3.959554       107.7449 
 563   0.0000       3.963320       107.8474 
 564   0.0000       3.972752       108.1041 
 565   0.0000       3.983776       108.4041 
 566   0.0000       3.987585       108.5077 
 567   0.0000       4.001086       108.8751 
 568   0.0000       4.013658       109.2172 
 569   0.0000       4.016286       109.2887 
 570   0.0000       4.020564       109.4051 
 571   0.0000       4.037995       109.8794 
 572   0.0000       4.043164       110.0201 
 573   0.0000       4.047101       110.1272 
 574   0.0000       4.061545       110.5203 
 575   0.0000       4.071613       110.7942 
 576   0.0000       4.077747       110.9611 
 577   0.0000       4.086765       111.2065 
 578   0.0000       4.095075       111.4326 
 579   0.0000       4.107688       111.7759 
 580   0.0000       4.118461       112.0690 
 581   0.0000       4.123849       112.2156 
 582   0.0000       4.134034       112.4928 
 583   0.0000       4.138160       112.6050 
 584   0.0000       4.143468       112.7495 
 585   0.0000       4.149271       112.9074 
 586   0.0000       4.158120       113.1482 
 587   0.0000       4.164996       113.3353 
 588   0.0000       4.173743       113.5733 
 589   0.0000       4.178183       113.6941 
 590   0.0000       4.186776       113.9280 
 591   0.0000       4.192426       114.0817 
 592   0.0000       4.201074       114.3170 
 593   0.0000       4.205356       114.4336 
 594   0.0000       4.210331       114.5689 
 595   0.0000       4.219380       114.8152 
 596   0.0000       4.221173       114.8639 
 597   0.0000       4.228177       115.0545 
 598   0.0000       4.229862       115.1004 
 599   0.0000       4.235745       115.2605 
 600   0.0000       4.251495       115.6891 
 601   0.0000       4.255514       115.7984 
 602   0.0000       4.261886       115.9718 
 603   0.0000       4.272538       116.2617 
 604   0.0000       4.288712       116.7018 
 605   0.0000       4.297027       116.9281 
 606   0.0000       4.312625       117.3525 
 607   0.0000       4.317764       117.4923 
 608   0.0000       4.327246       117.7504 
 609   0.0000       4.331969       117.8789 
 610   0.0000       4.336193       117.9938 
 611   0.0000       4.345059       118.2351 
 612   0.0000       4.352464       118.4366 
 613   0.0000       4.355622       118.5225 
 614   0.0000       4.362930       118.7214 
 615   0.0000       4.375757       119.0704 
 616   0.0000       4.377864       119.1277 
 617   0.0000       4.386569       119.3646 
 618   0.0000       4.393749       119.5600 
 619   0.0000       4.400188       119.7352 
 620   0.0000       4.415630       120.1554 
 621   0.0000       4.421962       120.3277 
 622   0.0000       4.430535       120.5610 
 623   0.0000       4.434118       120.6585 
 624   0.0000       4.438465       120.7768 
 625   0.0000       4.453019       121.1728 
 626   0.0000       4.458509       121.3222 
 627   0.0000       4.468169       121.5851 
 628   0.0000       4.473331       121.7255 
 629   0.0000       4.490342       122.1884 
 630   0.0000       4.500332       122.4603 
 631   0.0000       4.508086       122.6713 
 632   0.0000       4.520635       123.0127 
 633   0.0000       4.527166       123.1904 
 634   0.0000       4.534015       123.3768 
 635   0.0000       4.540520       123.5538 
 636   0.0000       4.550500       123.8254 
 637   0.0000       4.556774       123.9961 
 638   0.0000       4.564996       124.2199 
 639   0.0000       4.575802       124.5139 
 640   0.0000       4.587389       124.8292 
 641   0.0000       4.596522       125.0777 
 642   0.0000       4.605544       125.3232 
 643   0.0000       4.607689       125.3816 
 644   0.0000       4.616501       125.6214 
 645   0.0000       4.622450       125.7833 
 646   0.0000       4.632861       126.0665 
 647   0.0000       4.635934       126.1502 
 648   0.0000       4.639203       126.2391 
 649   0.0000       4.649923       126.5308 
 650   0.0000       4.657326       126.7323 
 651   0.0000       4.662061       126.8611 
 652   0.0000       4.675479       127.2262 
 653   0.0000       4.688824       127.5894 
 654   0.0000       4.694798       127.7520 
 655   0.0000       4.713230       128.2535 
 656   0.0000       4.717141       128.3599 
 657   0.0000       4.733727       128.8113 
 658   0.0000       4.738803       128.9494 
 659   0.0000       4.743227       129.0698 
 660   0.0000       4.744811       129.1129 
 661   0.0000       4.766335       129.6986 
 662   0.0000       4.780606       130.0869 
 663   0.0000       4.794069       130.4533 
 664   0.0000       4.814155       130.9998 
 665   0.0000       4.816684       131.0686 
 666   0.0000       4.831121       131.4615 
 667   0.0000       4.839969       131.7023 
 668   0.0000       4.864279       132.3638 
 669   0.0000       4.881408       132.8299 
 670   0.0000       4.907921       133.5513 
 671   0.0000       4.916297       133.7792 
 672   0.0000       4.944871       134.5568 
 673   0.0000       4.948929       134.6672 
 674   0.0000       4.965047       135.1058 
 675   0.0000       4.993953       135.8924 
 676   0.0000       5.012425       136.3950 
 677   0.0000       5.022605       136.6720 
 678   0.0000       5.025254       136.7441 
 679   0.0000       5.040937       137.1709 
 680   0.0000       5.052143       137.4758 
 681   0.0000       5.064087       137.8008 
 682   0.0000       5.085827       138.3924 
 683   0.0000       5.090409       138.5171 
 684   0.0000       5.110625       139.0672 
 685   0.0000       5.115627       139.2033 
 686   0.0000       5.127353       139.5224 
 687   0.0000       5.134111       139.7063 
 688   0.0000       5.145715       140.0220 
 689   0.0000       5.159234       140.3899 
 690   0.0000       5.175048       140.8202 
 691   0.0000       5.184000       141.0638 
 692   0.0000       5.190348       141.2366 
 693   0.0000       5.195697       141.3821 
 694   0.0000       5.205426       141.6469 
 695   0.0000       5.211162       141.8029 
 696   0.0000       5.216713       141.9540 
 697   0.0000       5.226231       142.2130 
 698   0.0000       5.234376       142.4346 
 699   0.0000       5.246982       142.7776 
 700   0.0000       5.266865       143.3187 
 701   0.0000       5.274048       143.5141 
 702   0.0000       5.277843       143.6174 
 703   0.0000       5.317612       144.6996 
 704   0.0000       5.320873       144.7883 
 705   0.0000       5.333013       145.1187 
 706   0.0000       5.345138       145.4486 
 707   0.0000       5.360488       145.8663 
 708   0.0000       5.372829       146.2021 
 709   0.0000       5.383033       146.4798 
 710   0.0000       5.393693       146.7698 
 711   0.0000       5.408613       147.1758 
 712   0.0000       5.424959       147.6206 
 713   0.0000       5.447528       148.2348 
 714   0.0000       5.468486       148.8051 
 715   0.0000       5.486531       149.2961 
 716   0.0000       5.492182       149.4499 
 717   0.0000       5.512179       149.9940 
 718   0.0000       5.517406       150.1363 
 719   0.0000       5.529468       150.4645 
 720   0.0000       5.536975       150.6688 
 721   0.0000       5.545413       150.8984 
 722   0.0000       5.551718       151.0699 
 723   0.0000       5.574614       151.6930 
 724   0.0000       5.587848       152.0531 
 725   0.0000       5.600699       152.4028 
 726   0.0000       5.610911       152.6807 
 727   0.0000       5.621528       152.9695 
 728   0.0000       5.632520       153.2687 
 729   0.0000       5.636893       153.3877 
 730   0.0000       5.641670       153.5176 
 731   0.0000       5.665485       154.1657 
 732   0.0000       5.673996       154.3973 
 733   0.0000       5.684235       154.6759 
 734   0.0000       5.694123       154.9450 
 735   0.0000       5.708813       155.3447 
 736   0.0000       5.730140       155.9250 
 737   0.0000       5.738188       156.1440 
 738   0.0000       5.747855       156.4071 
 739   0.0000       5.757521       156.6701 
 740   0.0000       5.766224       156.9069 
 741   0.0000       5.778507       157.2412 
 742   0.0000       5.796025       157.7179 
 743   0.0000       5.810199       158.1036 
 744   0.0000       5.817499       158.3022 
 745   0.0000       5.843298       159.0042 
 746   0.0000       5.859288       159.4393 
 747   0.0000       5.902004       160.6017 
 748   0.0000       5.909216       160.7979 
 749   0.0000       5.933174       161.4499 
 750   0.0000       5.971919       162.5042 
 751   0.0000       5.976288       162.6231 
 752   0.0000       5.980231       162.7304 
 753   0.0000       5.991828       163.0459 
 754   0.0000       6.008756       163.5066 
 755   0.0000       6.014732       163.6692 
 756   0.0000       6.052365       164.6932 
 757   0.0000       6.066082       165.0665 
 758   0.0000       6.073834       165.2774 
 759   0.0000       6.096462       165.8932 
 760   0.0000       6.117597       166.4683 
 761   0.0000       6.164986       167.7578 
 762   0.0000       6.217730       169.1930 
 763   0.0000       6.228158       169.4768 
 764   0.0000       6.243089       169.8831 
 765   0.0000       6.263878       170.4488 
 766   0.0000       6.284607       171.0129 
 767   0.0000       6.305221       171.5738 
 768   0.0000       6.332231       172.3088 
 769   0.0000       6.349077       172.7672 
 770   0.0000       6.369687       173.3280 
 771   0.0000       6.387413       173.8104 
 772   0.0000       6.406590       174.3322 
 773   0.0000       6.448858       175.4823 
 774   0.0000       6.459462       175.7709 
 775   0.0000       6.500630       176.8911 
 776   0.0000       6.503007       176.9558 
 777   0.0000       6.548840       178.2030 
 778   0.0000       6.555432       178.3824 
 779   0.0000       6.593908       179.4294 
 780   0.0000       6.658895       181.1977 
 781   0.0000       6.689312       182.0254 
 782   0.0000       6.732248       183.1938 
 783   0.0000       6.791563       184.8078 
 784   0.0000       6.816019       185.4733 
 785   0.0000       6.900539       187.7732 
 786   0.0000       6.910258       188.0377 
 787   0.0000       6.920576       188.3184 
 788   0.0000       6.940671       188.8653 
 789   0.0000       7.046187       191.7365 
 790   0.0000       7.052510       191.9086 
 791   0.0000       7.070429       192.3961 
 792   0.0000       7.080291       192.6645 
 793   0.0000       7.146056       194.4541 
 794   0.0000       7.221351       196.5029 
 795   0.0000       7.244996       197.1464 
 796   0.0000       7.261669       197.6000 
 797   0.0000       7.280890       198.1231 
 798   0.0000       7.342275       199.7935 
 799   0.0000       7.375110       200.6869 
 800   0.0000       7.434165       202.2939 
 801   0.0000       7.576399       206.1643 
 802   0.0000       7.582834       206.3394 
 803   0.0000       7.593599       206.6323 
 804   0.0000       7.728368       210.2996 
 805   0.0000       7.815220       212.6629 
 806   0.0000       7.832326       213.1284 
 807   0.0000       7.933989       215.8948 
 808   0.0000       7.945869       216.2181 
 809   0.0000       9.323810       253.7138 
 810   0.0000       9.518333       259.0070 
 811   0.0000      10.815408       294.3022 
 812   0.0000      11.350145       308.8532 
 813   0.0000      11.758769       319.9724 
 814   0.0000      12.566184       341.9433 
 815   0.0000      12.906474       351.2030 
 816   0.0000      13.009987       354.0197 
 817   0.0000      13.076281       355.8237 
 818   0.0000      13.162286       358.1640 
 819   0.0000      13.377701       364.0257 
 820   0.0000      13.556870       368.9012 
 821   0.0000      13.706456       372.9716 
 822   0.0000      13.922478       378.8499 
 823   0.0000      13.943846       379.4313 
 824   0.0000      14.058435       382.5495 
 825   0.0000      14.586124       396.9086 
 826   0.0000      14.808315       402.9547 
 827   0.0000      15.981213       434.8709 

                    ********************************
                    * MULLIKEN POPULATION ANALYSIS *
                    ********************************

-----------------------
MULLIKEN ATOMIC CHARGES
-----------------------
   0 C :   -0.278560
   1 C :    0.043698
   2 O :   -0.378783
   3 C :    0.465292
   4 O :   -0.424691
   5 C :   -0.223124
   6 C :    0.155139
   7 C :   -0.271404
   8 N :   -0.121936
   9 C :    0.213617
  10 S :   -0.441045
  11 N :   -0.206787
  12 C :    0.069402
  13 C :    0.046048
  14 C :   -0.180202
  15 C :   -0.131761
  16 C :   -0.280930
  17 C :    0.313857
  18 O :   -0.355845
  19 C :   -0.263292
  20 H :    0.113817
  21 H :    0.092055
  22 H :    0.099674
  23 H :    0.096776
  24 H :    0.100016
  25 H :    0.131820
  26 H :    0.130255
  27 H :    0.095301
  28 H :    0.197270
  29 H :    0.194866
  30 H :    0.149092
  31 H :    0.150068
  32 H :    0.161401
  33 H :    0.131502
  34 H :    0.240996
  35 H :    0.166396
Sum of atomic charges:    0.0000000

--------------------------------
MULLIKEN REDUCED ORBITAL CHARGES
--------------------------------
  0 C s       :     3.252732  s :     3.252732
      pz      :     0.946639  p :     2.948488
      px      :     0.985515
      py      :     1.016335
      dz2     :     0.022694  d :     0.072924
      dxz     :     0.018855
      dyz     :     0.003473
      dx2y2   :     0.007361
      dxy     :     0.020541
      f0      :     0.000468  f :     0.004416
      f+1     :     0.001724
      f-1     :     0.000153
      f+2     :     0.000588
      f-2     :     0.000395
      f+3     :     0.000823
      f-3     :     0.000264
  1 C s       :     3.174410  s :     3.174410
      pz      :     0.985256  p :     2.619531
      px      :     0.812657
      py      :     0.821619
      dz2     :     0.028822  d :     0.150930
      dxz     :     0.034784
      dyz     :     0.018491
      dx2y2   :     0.026406
      dxy     :     0.042426
      f0      :     0.001493  f :     0.011432
      f+1     :     0.002010
      f-1     :     0.000924
      f+2     :     0.000573
      f-2     :     0.002151
      f+3     :     0.002369
      f-3     :     0.001912
  2 O s       :     3.716236  s :     3.716236
      pz      :     1.826367  p :     4.628344
      px      :     1.603349
      py      :     1.198628
      dz2     :     0.003980  d :     0.031938
      dxz     :     0.002436
      dyz     :     0.004837
      dx2y2   :     0.009128
      dxy     :     0.011557
      f0      :     0.000254  f :     0.002265
      f+1     :     0.000178
      f-1     :     0.000534
      f+2     :     0.000176
      f-2     :     0.000129
[...]
 15 C s       :     2.705874  s :     2.705874
      pz      :     0.910810  p :     2.796360
      px      :     0.919498
      py      :     0.966051
      dz2     :     0.100788  d :     0.417592
      dxz     :     0.069662
      dyz     :     0.064436
      dx2y2   :     0.107346
      dxy     :     0.075359
      f0      :     0.003622  f :     0.041096
      f+1     :     0.005507
      f-1     :     0.006484
      f+2     :     0.007466
      f-2     :     0.006171
      f+3     :     0.006242
      f-3     :     0.005603
 16 C s       :     2.701689  s :     2.701689
      pz      :     0.941689  p :     2.870836
      px      :     0.954019
      py      :     0.975128
      dz2     :     0.048841  d :     0.390133
      dxz     :     0.055443
      dyz     :     0.093304
      dx2y2   :     0.091964
      dxy     :     0.100581
      f0      :     0.004336  f :     0.040263
      f+1     :     0.004622
      f-1     :     0.004616
      f+2     :     0.006373
      f-2     :     0.004985
      f+3     :     0.008875
      f-3     :     0.006456
 17 C s       :     2.701657  s :     2.701657
      pz      :     0.853023  p :     2.680244
      px      :     0.819624
      py      :     1.007597
      dz2     :     0.134115  d :     0.708855
      dxz     :     0.103376
      dyz     :     0.152064
      dx2y2   :     0.156108
      dxy     :     0.163192
      f0      :     0.010513  f :     0.099238
      f+1     :     0.014950
      f-1     :     0.011048
      f+2     :     0.017248
      f-2     :     0.014178
      f+3     :     0.016923
      f-3     :     0.014378
 18 O s       :     3.177106  s :     3.177106
      pz      :     1.405952  p :     4.346616
      px      :     1.433561
      py      :     1.507103
      dz2     :     0.008873  d :     0.075455
      dxz     :     0.016927
      dyz     :     0.020296
      dx2y2   :     0.013060
      dxy     :     0.016299
      f0      :     0.000623  f :     0.005059
      f+1     :     0.000669
      f-1     :     0.000494
      f+2     :     0.000737
      f-2     :     0.001069
      f+3     :     0.000696
      f-3     :     0.000772
 19 C s       :     2.695076  s :     2.695076
      pz      :     0.937834  p :     2.846080
      px      :     0.943845
      py      :     0.964401
      dz2     :     0.081427  d :     0.387585
      dxz     :     0.068715
      dyz     :     0.066977
      dx2y2   :     0.093218
      dxy     :     0.077248
      f0      :     0.003585  f :     0.040764
      f+1     :     0.005830
      f-1     :     0.006008
      f+2     :     0.007409
      f-2     :     0.006752
      f+3     :     0.006009
      f-3     :     0.005171
 20 H s       :     0.845988  s :     0.845988
      pz      :     0.037947  p :     0.153460
      px      :     0.055310
      py      :     0.060202
      dz2     :     0.002660  d :     0.027783
      dxz     :     0.004834
      dyz     :     0.004006
      dx2y2   :     0.009015
      dxy     :     0.007267
 21 H s       :     0.850560  s :     0.850560
      pz      :     0.039766  p :     0.152180
      px      :     0.047645
      py      :     0.064770
      dz2     :     0.002264  d :     0.027518
      dxz     :     0.002738
      dyz     :     0.006512
      dx2y2   :     0.008110
      dxy     :     0.007894
 22 H s       :     0.847277  s :     0.847277
      pz      :     0.065041  p :     0.149845
      px      :     0.044752
      py      :     0.040053
      dz2     :     0.009088  d :     0.027602
      dxz     :     0.007363
      dyz     :     0.006475
      dx2y2   :     0.001869
      dxy     :     0.002807
 23 H s       :     0.855383  s :     0.855383
      pz      :     0.071784  p :     0.146344
      px      :     0.045374
      py      :     0.029187
      dz2     :     0.009448  d :     0.027084
      dxz     :     0.008376
      dyz     :     0.005004
      dx2y2   :     0.001608
      dxy     :     0.002648
 24 H s       :     0.853837  s :     0.853837
      pz      :     0.041127  p :     0.143742
      px      :     0.039046
      py      :     0.063569
      dz2     :     0.002647  d :     0.026951
      dxz     :     0.002949
      dyz     :     0.007054
      dx2y2   :     0.006798
      dxy     :     0.007503
 25 H s       :     0.825956  s :     0.825956
      pz      :     0.039835  p :     0.151254
      px      :     0.072217
      py      :     0.039203
      dz2     :     0.003017  d :     0.027748
      dxz     :     0.008617
      dyz     :     0.000401
      dx2y2   :     0.007608
      dxy     :     0.008104
 26 H s       :     0.825531  s :     0.825531
      pz      :     0.072917  p :     0.150889
      px      :     0.039608
      py      :     0.038364
      dz2     :     0.009524  d :     0.027762
      dxz     :     0.008758
      dyz     :     0.008278
      dx2y2   :     0.000926
      dxy     :     0.000275
 27 H s       :     0.845376  s :     0.845376
      pz      :     0.039996  p :     0.150358
      px      :     0.039516
      py      :     0.070846
      dz2     :     0.002974  d :     0.027706
      dxz     :     0.000253
      dyz     :     0.008655
      dx2y2   :     0.007123
      dxy     :     0.008701
 28 H s       :     0.742049  s :     0.742049
      pz      :     0.068301  p :     0.253763
      px      :     0.064073
      py      :     0.121389
      dz2     :     0.005340  d :     0.061834
      dxz     :     0.000592
      dyz     :     0.020293
      dx2y2   :     0.016129
      dxy     :     0.019479
 29 H s       :     0.749152  s :     0.749152
      pz      :     0.102920  p :     0.254236
      px      :     0.102032
      py      :     0.049284
      dz2     :     0.016717  d :     0.061419
      dxz     :     0.013559
      dyz     :     0.008759
      dx2y2   :     0.012098
      dxy     :     0.010286
 30 H s       :     0.833108  s :     0.833108
      pz      :     0.050258  p :     0.149017
      px      :     0.048119
      py      :     0.050640
      dz2     :     0.005261  d :     0.028482
      dxz     :     0.005977
      dyz     :     0.005791
      dx2y2   :     0.004989
      dxy     :     0.006463
 31 H s       :     0.844954  s :     0.844954
      pz      :     0.054489  p :     0.157468
      px      :     0.063372
      py      :     0.039608
      dz2     :     0.005523  d :     0.027548
      dxz     :     0.006446
      dyz     :     0.004066
      dx2y2   :     0.005780
      dxy     :     0.005733
 32 H s       :     0.843281  s :     0.843281
      pz      :     0.036823  p :     0.151320
      px      :     0.038592
      py      :     0.075905
      dz2     :     0.002696  d :     0.026449
      dxz     :     0.000571
      dyz     :     0.007553
      dx2y2   :     0.007702
      dxy     :     0.007927
 33 H s       :     0.848505  s :     0.848505
      pz      :     0.059933  p :     0.159133
      px      :     0.050418
      py      :     0.048783
      dz2     :     0.006667  d :     0.027763
      dxz     :     0.005298
      dyz     :     0.006036
      dx2y2   :     0.005069
      dxy     :     0.004694
 34 H s       :     0.706334  s :     0.706334
      pz      :     0.115324  p :     0.347709
      px      :     0.090243
      py      :     0.142142
      dz2     :     0.024575  d :     0.099546
      dxz     :     0.013296
      dyz     :     0.023778
      dx2y2   :     0.018906
      dxy     :     0.018991
 35 H s       :     0.838395  s :     0.838395
      pz      :     0.038798  p :     0.157147
      px      :     0.040829
      py      :     0.077520
      dz2     :     0.002771  d :     0.028044
      dxz     :     0.000603
      dyz     :     0.008263
      dx2y2   :     0.007971
      dxy     :     0.008436


                      *****************************
                      * MAYER POPULATION ANALYSIS *
                      *****************************

  NA   - Mulliken gross atomic population
  ZA   - Total nuclear charge
  QA   - Mulliken gross atomic charge
  VA   - Mayer's total valence
  BVA  - Mayer's bonded valence
  FA   - Mayer's free valence

  ATOM       NA         ZA         QA         VA         BVA        FA
  0 C      6.2786     6.0000    -0.2786     3.8767     3.8767    -0.0000
  1 C      5.9563     6.0000     0.0437     3.8699     3.8699    -0.0000
  2 O      8.3788     8.0000    -0.3788     2.0233     2.0233     0.0000
  3 C      5.5347     6.0000     0.4653     4.2053     4.2053     0.0000
  4 O      8.4247     8.0000    -0.4247     2.0814     2.0814    -0.0000
  5 C      6.2231     6.0000    -0.2231     3.6766     3.6766     0.0000
  6 C      5.8449     6.0000     0.1551     3.8775     3.8775    -0.0000
  7 C      6.2714     6.0000    -0.2714     3.9036     3.9036    -0.0000
  8 N      7.1219     7.0000    -0.1219     3.3078     3.3078    -0.0000
  9 C      5.7864     6.0000     0.2136     4.1514     4.1514     0.0000
 10 S     16.4410    16.0000    -0.4410     1.7534     1.7534    -0.0000
 11 N      7.2068     7.0000    -0.2068     3.2504     3.2504     0.0000
 12 C      5.9306     6.0000     0.0694     3.9323     3.9323     0.0000
 13 C      5.9540     6.0000     0.0460     3.7195     3.7195     0.0000
 14 C      6.1802     6.0000    -0.1802     3.8456     3.8456    -0.0000
 15 C      6.1318     6.0000    -0.1318     3.8000     3.8000     0.0000
 16 C      6.2809     6.0000    -0.2809     3.7939     3.7939     0.0000
 17 C      5.6861     6.0000     0.3139     3.8764     3.8764    -0.0000
 18 O      8.3558     8.0000    -0.3558     2.1202     2.1202     0.0000
 19 C      6.2633     6.0000    -0.2633     3.8536     3.8536     0.0000
 20 H      0.8862     1.0000     0.1138     0.9872     0.9872    -0.0000
 21 H      0.9079     1.0000     0.0921     0.9794     0.9794    -0.0000
 22 H      0.9003     1.0000     0.0997     0.9864     0.9864    -0.0000
 23 H      0.9032     1.0000     0.0968     0.9676     0.9676    -0.0000
 24 H      0.9000     1.0000     0.1000     0.9774     0.9774    -0.0000
 25 H      0.8682     1.0000     0.1318     0.9798     0.9798    -0.0000
 26 H      0.8697     1.0000     0.1303     0.9809     0.9809     0.0000
 27 H      0.9047     1.0000     0.0953     0.9860     0.9860    -0.0000
 28 H      0.8027     1.0000     0.1973     1.0227     1.0227    -0.0000
 29 H      0.8051     1.0000     0.1949     1.0189     1.0189     0.0000
 30 H      0.8509     1.0000     0.1491     0.9938     0.9938    -0.0000
 31 H      0.8499     1.0000     0.1501     0.9857     0.9857     0.0000
 32 H      0.8386     1.0000     0.1614     0.9766     0.9766     0.0000
 33 H      0.8685     1.0000     0.1315     0.9915     0.9915     0.0000
 34 H      0.7590     1.0000     0.2410     1.0104     1.0104     0.0000
 35 H      0.8336     1.0000     0.1664     0.9863     0.9863     0.0000

  Mayer bond orders larger than 0.100000
B(  0-C ,  1-C ) :   0.9810 B(  0-C , 20-H ) :   0.9725 B(  0-C , 21-H ) :   0.9767 
B(  0-C , 22-H ) :   0.9760 B(  1-C ,  2-O ) :   0.8888 B(  1-C , 23-H ) :   0.9707 
B(  1-C , 24-H ) :   0.9821 B(  2-O ,  3-C ) :   1.1134 B(  3-C ,  4-O ) :   1.9850 
B(  3-C ,  5-C ) :   1.0729 B(  5-C ,  6-C ) :   1.6528 B(  5-C , 12-C ) :   0.9732 
B(  6-C ,  7-C ) :   0.9666 B(  6-C ,  8-N ) :   1.1607 B(  7-C , 25-H ) :   0.9595 
B(  7-C , 26-H ) :   0.9611 B(  7-C , 27-H ) :   0.9909 B(  8-N ,  9-C ) :   1.1836 
B(  8-N , 28-H ) :   0.9478 B(  9-C , 10-S ) :   1.6054 B(  9-C , 11-N ) :   1.3066 
B( 11-N , 12-C ) :   0.9812 B( 11-N , 29-H ) :   0.9515 B( 12-C , 13-C ) :   0.9355 
B( 12-C , 30-H ) :   1.0017 B( 13-C , 14-C ) :   1.3555 B( 13-C , 19-C ) :   1.3841 
B( 14-C , 15-C ) :   1.3918 B( 14-C , 31-H ) :   0.9734 B( 15-C , 16-C ) :   1.3629 
B( 15-C , 32-H ) :   0.9706 B( 16-C , 17-C ) :   1.3308 B( 16-C , 33-H ) :   0.9846 
B( 17-C , 18-O ) :   1.1118 B( 17-C , 19-C ) :   1.3706 B( 18-O , 34-H ) :   0.9796 
B( 19-C , 35-H ) :   0.9580 

-------
TIMINGS
-------

Total SCF time: 0 days 1 hours 35 min 26 sec 

Total time                  ....    5726.188 sec
Sum of individual times     ....    5715.937 sec  ( 99.8%)

Fock matrix formation       ....    5696.495 sec  ( 99.5%)
Diagonalization             ....       1.308 sec  (  0.0%)
Density matrix formation    ....       0.198 sec  (  0.0%)
Population analysis         ....       0.459 sec  (  0.0%)
Initial guess               ....       5.369 sec  (  0.1%)
Orbital Transformation      ....       0.000 sec  (  0.0%)
Orbital Orthonormalization  ....       0.000 sec  (  0.0%)
DIIS solution               ....       4.444 sec  (  0.1%)
SOSCF solution              ....       6.135 sec  (  0.1%)

Maximum memory used throughout the entire SCF-calculation: 735.9 MB

------------------------------------------------------------------------------
                                ORCA  MP2 
------------------------------------------------------------------------------

Freezing NCore=48 chemical core electrons

-------------
RI-MP2 ENERGY
-------------
Dimension of the basis                    ...  828
Memory devoted to MP2                     ...  256 MB   
Data format for buffers                   ... DOUBLE
Compression type for matrix containers    ... UNCOMPRESSED
Overall scaling of the MP2 energy         ...   1.000e+00
Calculating two index integrals           ... done (    0.108 sec)
Cholesky decomposition of V**-1           ... done (    0.496 sec)

-----------------
RI-TRANSFORMATION (AUX index driven)
-----------------

Dimension of the orbital-basis         ... 828
Dimension of the aux-basis             ... 2141
Transformation of internal/external MOs...   24-  76 to   77- 827
Number Format for Storage              ... Double (8 Byte)
Integral mode                          ... Direct

First Phase: integral generation and transformation of MO indices
  Aux angular momentum 0               ... done (    6.483 sec)
  Aux angular momentum 1               ... done (   10.215 sec)
  Aux angular momentum 2               ... done (   22.108 sec)
  Aux angular momentum 3               ... done (   13.480 sec)
  Aux angular momentum 4               ... done (    3.149 sec)
Closing buffer VIA ( 0.63 GB; CompressionRatio= 1.00)
  Phase 1 completed in    56.064 sec
Second Phase: sorting and transformation of aux index

IA-Transformation
Memory available                       ... 157 MB 
Max. # MO pairs treated in a batch     ... 11    
# of internal orbitals                 ... 53
# batches for internal orbitals        ... 5
Closing buffer IAV ( 0.63 GB; CompressionRatio= 1.00)
(ia|v) transformation done in   105.280 sec

  Phase 2 completed in   105.330 sec
RI-Integral transformation completed in   161.402 sec
Opening buffers                              ... done

Starting loop over batches of integrals:

Operator 0  - window                       ... ( 24- 76)x( 77-827)
Operator 0  - Memory available             ...   256 MB
Operator 0  - Memory needed per MO         ...  12.3 MB
Operator 0  - Number of orbitals per batch ... 13
Operator 0  - Number of batches            ... 5

OPERATOR  0   PASS   0:  MOs    24 ...   36
  Reading integrals       ... ok
  Internal MO  26
  Internal MO  29
  Internal MO  32
  Internal MO  35
OPERATOR  0   PASS   1:  MOs    37 ...   49
  Reading integrals       ... ok
  Internal MO  38
  Internal MO  41
  Internal MO  44
  Internal MO  47
OPERATOR  0   PASS   2:  MOs    50 ...   62
  Reading integrals       ... ok
  Internal MO  50
  Internal MO  53
  Internal MO  56
  Internal MO  59
  Internal MO  62
OPERATOR  0   PASS   3:  MOs    63 ...   75
  Reading integrals       ... ok
  Internal MO  65
  Internal MO  68
  Internal MO  71
  Internal MO  74
OPERATOR  0   PASS   4:  MOs    76 ...   76
  Reading integrals       ... ok
Time spent in pair loops =   195.737 sec
Deleting buffer (Ka|jb)[aa] ...done

-----------------------------------------------
 RI-MP2 CORRELATION ENERGY:     -3.531588326 Eh
-----------------------------------------------


-------
TIMINGS
-------

Total time                :  358.838 sec
Integral trafo            :  161.429 sec ( 45.0%)
I/O of integrals          :    3.968 sec (  1.1%)
K(i,j) Operators          :   85.804 sec ( 23.9%)
T(i,j) pair energies      :    3.047 sec (  0.8%)
V-calculation             :    0.108 sec (  0.0%)
V**(-1/2)                 :    0.496 sec (  0.1%)
Gamma(ia|P)               :    0.000 sec (  0.0%)
Gamma-Trafo               :    0.000 sec (  0.0%)
D(virtual)                :    0.000 sec (  0.0%)
D(internal)               :    0.000 sec (  0.0%)
W(virtual)                :    0.000 sec (  0.0%)
W(internal)               :    0.000 sec (  0.0%)
L(virtual)                :    0.000 sec (  0.0%)
L(internal)               :    0.000 sec (  0.0%)
G(D)                      :    0.000 sec (  0.0%)
G(Z)                      :    0.000 sec (  0.0%)
Z-Vector Solution         :    0.000 sec (  0.0%)
3-Index Derivative        :    0.000 sec (  0.0%)
2-Index Derivative        :    0.000 sec (  0.0%)
Separable Gradient        :    0.000 sec (  0.0%)


---------------------------------------
MP2 TOTAL ENERGY:    -1274.337671648 Eh
---------------------------------------

Maximum memory used throughout the entire MP2-calculation: 304.1 MB

-------------------------   --------------------
FINAL SINGLE POINT ENERGY     -1274.337671648346
-------------------------   --------------------


                            ***************************************
                            *     ORCA property calculations      *
                            ***************************************


  WARNING: The energy has been calculated at the MP2 level but the densities
           used in the property calculations are still SCF densities
           MP2 response densities have not been calculated 
           use %mp2 Density relaxed end
           or  %mp2 Density unrelaxed end

                                    ---------------------
                                    Active property flags
                                    ---------------------
   (+) Dipole Moment


------------------------------------------------------------------------------
                       ORCA ELECTRIC PROPERTIES CALCULATION
------------------------------------------------------------------------------

Dipole Moment Calculation                       ... on
Quadrupole Moment Calculation                   ... off
Polarizability Calculation                      ... off
GBWName                                         ... CONFS/Conf616.orca.gbw
Electron density file                           ... CONFS/Conf616.orca.scfp
The origin for moment calculation is the CENTER OF MASS  = (32.905345, 31.501843 35.338691)

-------------
DIPOLE MOMENT
-------------
                                X             Y             Z
Electronic contribution:     10.39030       9.89678       8.50919
Nuclear contribution   :    -11.40668     -11.59528      -8.71466
                        -----------------------------------------
Total Dipole Moment    :     -1.01638      -1.69850      -0.20547
                        -----------------------------------------
Magnitude (a.u.)       :      1.99002
Magnitude (Debye)      :      5.05822



--------------------
Rotational spectrum 
--------------------
 
Rotational constants in cm-1:     0.011907     0.008690     0.006167 
Rotational constants in MHz :   356.962133   260.520707   184.877268 

 Dipole components along the rotational axes: 
x,y,z [a.u.] :    -1.981358    -0.182282    -0.034081 
x,y,z [Debye]:    -5.036211    -0.463323    -0.086626 

 

Timings for individual modules:

Sum of individual times         ...     6092.368 sec (= 101.539 min)
GTO integral calculation        ...        4.652 sec (=   0.078 min)   0.1 %
SCF iterations                  ...     5726.684 sec (=  95.445 min)  94.0 %
MP2 module                      ...      361.032 sec (=   6.017 min)   5.9 %
                             ****ORCA TERMINATED NORMALLY****
TOTAL RUN TIME: 0 days 1 hours 41 minutes 34 seconds 909 msec
