
                                        *****************
                                        * O   R   C   A *
                                        *****************

                                            #,                                       
                                            ###                                      
                                            ####                                     
                                            #####                                    
                                            ######                                   
                                           ########,                                 
                                     ,,################,,,,,                         
                               ,,#################################,,                 
                          ,,##########################################,,             
                       ,#########################################, ''#####,          
                    ,#############################################,,   '####,        
                  ,##################################################,,,,####,       
                ,###########''''           ''''###############################       
              ,#####''   ,,,,##########,,,,          '''####'''          '####       
            ,##' ,,,,###########################,,,                        '##       
           ' ,,###''''                  '''############,,,                           
         ,,##''                                '''############,,,,        ,,,,,,###''
      ,#''                                            '''#######################'''  
     '                                                          ''''####''''         
             ,#######,   #######,   ,#######,      ##                                
            ,#'     '#,  ##    ##  ,#'     '#,    #''#        ######   ,####,        
            ##       ##  ##   ,#'  ##            #'  '#       #        #'  '#        
            ##       ##  #######   ##           ,######,      #####,   #    #        
            '#,     ,#'  ##    ##  '#,     ,#' ,#      #,         ##   #,  ,#        
             '#######'   ##     ##  '#######'  #'      '#     #####' # '####'        



                  #######################################################
                  #                        -***-                        #
                  #          Department of theory and spectroscopy      #
                  #    Directorship and core code : Frank Neese         #
                  #        Max Planck Institute fuer Kohlenforschung    #
                  #                Kaiser Wilhelm Platz 1               #
                  #                 D-45470 Muelheim/Ruhr               #
                  #                      Germany                        #
                  #                                                     #
                  #                  All rights reserved                #
                  #                        -***-                        #
                  #######################################################


                         Program Version 5.0.0 -  RELEASE  -
                                (SVN: $Rev: 19529$)
                ($Date: 2021-06-28 11:36:33 +0200 (Mo, 28 Jun 2021) $)


 With contributions from (in alphabetic order):
   Daniel Aravena         : Magnetic Suceptibility
   Michael Atanasov       : Ab Initio Ligand Field Theory (pilot matlab implementation)
   Alexander A. Auer      : GIAO ZORA, VPT2 properties, NMR spectrum
   Ute Becker             : Parallelization
   Giovanni Bistoni       : ED, misc. LED, open-shell LED, HFLD
   Martin Brehm           : Molecular dynamics
   Dmytro Bykov           : SCF Hessian
   Vijay G. Chilkuri      : MRCI spin determinant printing, contributions to CSF-ICE
   Dipayan Datta          : RHF DLPNO-CCSD density
   Achintya Kumar Dutta   : EOM-CC, STEOM-CC
   Dmitry Ganyushin       : Spin-Orbit,Spin-Spin,Magnetic field MRCI
   Miquel Garcia          : C-PCM Hessian, Gaussian charge scheme
   Yang Guo               : DLPNO-NEVPT2, F12-NEVPT2, CIM, IAO-localization
   Andreas Hansen         : Spin unrestricted coupled pair/coupled cluster methods
   Benjamin Helmich-Paris : MC-RPA, TRAH-SCF, COSX integrals
   Lee Huntington         : MR-EOM, pCC
   Robert Izsak           : Overlap fitted RIJCOSX, COSX-SCS-MP3, EOM
   Marcus Kettner         : VPT2
   Christian Kollmar      : KDIIS, OOCD, Brueckner-CCSD(T), CCSD density, CASPT2, CASPT2-K
   Simone Kossmann        : Meta GGA functionals, TD-DFT gradient, OOMP2, MP2 Hessian
   Martin Krupicka        : Initial AUTO-CI
   Lucas Lang             : DCDCAS
   Marvin Lechner         : AUTO-CI (C++ implementation), FIC-MRCC
   Dagmar Lenk            : GEPOL surface, SMD
   Dimitrios Liakos       : Extrapolation schemes; Compound Job, initial MDCI parallelization
   Dimitrios Manganas     : Further ROCIS development; embedding schemes
   Dimitrios Pantazis     : SARC Basis sets
   Anastasios Papadopoulos: AUTO-CI, single reference methods and gradients
   Taras Petrenko         : DFT Hessian,TD-DFT gradient, ASA, ECA, R-Raman, ABS, FL, XAS/XES, NRVS
   Peter Pinski           : DLPNO-MP2, DLPNO-MP2 Gradient
   Christoph Reimann      : Effective Core Potentials
   Marius Retegan         : Local ZFS, SOC
   Christoph Riplinger    : Optimizer, TS searches, QM/MM, DLPNO-CCSD(T), (RO)-DLPNO pert. Triples
   Tobias Risthaus        : Range-separated hybrids, TD-DFT gradient, RPA, STAB
   Michael Roemelt        : Original ROCIS implementation
   Masaaki Saitow         : Open-shell DLPNO-CCSD energy and density
   Barbara Sandhoefer     : DKH picture change effects
   Avijit Sen             : IP-ROCIS
   Kantharuban Sivalingam : CASSCF convergence, NEVPT2, FIC-MRCI
   Bernardo de Souza      : ESD, SOC TD-DFT
   Georgi Stoychev        : AutoAux, RI-MP2 NMR
   Willem Van den Heuvel  : Paramagnetic NMR
   Boris Wezisla          : Elementary symmetry handling
   Frank Wennmohs         : Technical directorship


 We gratefully acknowledge several colleagues who have allowed us to
 interface, adapt or use parts of their codes:
   Stefan Grimme, W. Hujo, H. Kruse, P. Pracht,  : VdW corrections, initial TS optimization,
                  C. Bannwarth, S. Ehlert          DFT functionals, gCP, sTDA/sTD-DF
   Ed Valeev, F. Pavosevic, A. Kumar             : LibInt (2-el integral package), F12 methods
   Garnet Chan, S. Sharma, J. Yang, R. Olivares  : DMRG
   Ulf Ekstrom                                   : XCFun DFT Library
   Mihaly Kallay                                 : mrcc  (arbitrary order and MRCC methods)
   Jiri Pittner, Ondrej Demel                    : Mk-CCSD
   Frank Weinhold                                : gennbo (NPA and NBO analysis)
   Christopher J. Cramer and Donald G. Truhlar   : smd solvation model
   Lars Goerigk                                  : TD-DFT with DH, B97 family of functionals
   V. Asgeirsson, H. Jonsson                     : NEB implementation
   FAccTs GmbH                                   : IRC, NEB, NEB-TS, DLPNO-Multilevel, CI-OPT
                                                   MM, QMMM, 2- and 3-layer-ONIOM, Crystal-QMMM,
                                                   LR-CPCM, SF, NACMEs, symmetry and pop. for TD-DFT,
                                                   nearIR, NL-DFT gradient (VV10), updates on ESD,
                                                   ML-optimized integration grids
   S Lehtola, MJT Oliveira, MAL Marques          : LibXC Library
   Liviu Ungur et al                             : ANISO software


 Your calculation uses the libint2 library for the computation of 2-el integrals
 For citations please refer to: http://libint.valeyev.net

 Your ORCA version has been built with support for libXC version: 5.1.0
 For citations please refer to: https://tddft.org/programs/libxc/

 This ORCA versions uses:
   CBLAS   interface :  Fast vector & matrix operations
   LAPACKE interface :  Fast linear algebra routines
   SCALAPACK package :  Parallel linear algebra routines
   Shared memory     :  Shared parallel matrices
   BLAS/LAPACK       :  OpenBLAS 0.3.15  USE64BITINT DYNAMIC_ARCH NO_AFFINITY Zen SINGLE_THREADED
        Core in use  :  Zen
   Copyright (c) 2011-2014, The OpenBLAS Project


================================================================================

----- Orbital basis set information -----
Your calculation utilizes the basis: cc-pVTZ 
       H, B-Ne : Obtained from the ccRepo (grant-hill.group.shef.ac.uk/ccrepo) Feb. 2017
                 T. H. Dunning, Jr., J. Chem. Phys. 90, 1007 (1989)
            He : Obtained from the ccRepo (grant-hill.group.shef.ac.uk/ccrepo) Feb. 2017
                 D. E. Woon, T. H. Dunning, Jr., J. Chem. Phys. 100, 2975 (1994)
  Li-Be, Na-Mg : Obtained from the ccRepo (grant-hill.group.shef.ac.uk/ccrepo) Feb. 2017
                 B. P. Prascher, D. E. Woon, K. A. Peterson, T. H. Dunning, Jr., A. K. Wilson, Theor. Chem. Acc. 128, 69 (2011)
         Al-Ar : Obtained from the ccRepo (grant-hill.group.shef.ac.uk/ccrepo) Feb. 2017
                 D. E. Woon, T. H. Dunning, Jr., J. Chem. Phys. 98, 1358 (1993)
            Ca : Obtained from the Peterson Research Group Website (tyr0.chem.wsu.edu/~kipeters) Feb. 2017
                 J. Koput, K. A. Peterson, J. Phys. Chem. 106, 9595 (2002)
         Sc-Zn : Obtained from the ccRepo (grant-hill.group.shef.ac.uk/ccrepo) Feb. 2017
                 N. B. Balabanov, K. A. Peterson, J. Chem. Phys. 123, 064107 (2005)
                 N. B. Balabanov, K. A. Peterson, J. Chem. Phys. 125, 074110 (2006)
         Ga-Kr : Obtained from the ccRepo (grant-hill.group.shef.ac.uk/ccrepo) Feb. 2017
                 A. K. Wilson, D. E. Woon, K. A. Peterson, T. H. Dunning, Jr., J. Chem. Phys. 110, 7667 (1999)
             Y : Obtained from the ccRepo (grant-hill.group.shef.ac.uk/ccrepo) Feb. 2017
                 K. A. Peterson, D. Figgen, M. Dolg, H. Stoll, J. Chem. Phys. 126, 124101 (2007)
        Ag, Au : Obtained from the Peterson Research Group Website (tyr0.chem.wsu.edu/~kipeters) Feb. 2017
                 K. A. Peterson, C. Puzzarini, Theor. Chem. Acc. 114, 283 (2005)

----- AuxC basis set information -----
Your calculation utilizes the auxiliary basis: cc-pVTZ/C 
  Obtained from the EMSL Basis Set Exchange (bse.pnl.gov) Feb. 2017
  H-He, B-F, Al-Ar, Ga-Kr : F. Weigend, A. Kohn, C. Hattig, J. Chem. Phys. 116, 3175 (2002)
             Li-Be, Na-Mg : C. Haettig, Phys. Chem. Chem. Phys. 7, 59 (2005)
                       Ne : C. Haettig, Phys. Chem. Chem. Phys. 7, 59 (2005)
                            F. Weigend, A. Kohn, C. Hattig, J. Chem. Phys. 116, 3175 (2002)
                    Sc-Zn : J. G. Hill, J. A. Platts, J. Chem. Phys. 128, 044104 (2008)

================================================================================
                                        WARNINGS
                       Please study these warnings very carefully!
================================================================================


WARNING: No MP2 level density has been requested!
         To caclulate MP2 level properties use
         %mp2 Density relaxed end
         or
         %mp2 Density unrelaxed end

WARNING: Post HF methods need fully converged wavefunctions
  ===> : Setting SCFConvForced true
         You can overwrite this default with %scf ConvForced false 


INFO   : the flag for use of the SHARK integral package has been found!

================================================================================
                                       INPUT FILE
================================================================================
NAME = CONFS/Conf207.orca
|  1> ! ri-mp2 cc-pvtz cc-pvtz/c TightSCF NoKeepInts
|  2> 
|  3> %scf
|  4>   MaxCore 4096
|  5> end
|  6> *xyz  0  1
|  7>     C       14.9395137   15.4102449   17.5819315
|  8>     C       15.6865504   15.2250642   16.2494831
|  9>     O       17.0430480   14.8260797   16.5110725
| 10>     C       18.1162989   15.6762452   16.4654929
| 11>     O       19.2218385   15.1827306   16.3430281
| 12>     C       17.9623124   16.8600808   17.3609283
| 13>     C       17.4365080   18.0295795   16.9310150
| 14>     C       16.9368592   18.3484310   15.5387933
| 15>     N       17.3998952   19.1328929   17.7863877
| 16>     C       17.9902611   19.1803446   19.0222852
| 17>     S       17.9647913   20.5531061   19.9437931
| 18>     N       18.6058429   18.0321055   19.4562285
| 19>     C       18.5746412   16.7300794   18.7591621
| 20>     C       17.8797954   15.6562954   19.5950533
| 21>     C       18.3323848   14.3250224   19.5365942
| 22>     C       17.7048763   13.3185831   20.2890459
| 23>     C       16.6139791   13.6439286   21.1122109
| 24>     C       16.1588450   14.9674967   21.1752175
| 25>     O       15.0985195   15.2831895   21.9605351
| 26>     C       16.7851368   15.9678728   20.4248982
| 27>     H       15.1084818   14.5504158   18.2429956
| 28>     H       13.8604536   15.4999504   17.4083374
| 29>     H       15.2723338   16.3168805   18.0990833
| 30>     H       15.1947527   14.4111827   15.7008287
| 31>     H       15.6237062   16.1194337   15.6238871
| 32>     H       17.2431041   17.5935474   14.8043633
| 33>     H       17.3455913   19.3048686   15.1877180
| 34>     H       15.8428499   18.4261251   15.5195155
| 35>     H       16.9693121   19.9912325   17.4802926
| 36>     H       19.0220008   18.0919381   20.3769754
| 37>     H       19.6187080   16.4105668   18.6242796
| 38>     H       19.1677798   14.0666057   18.8889551
| 39>     H       18.0624666   12.2922817   20.2265244
| 40>     H       16.1247026   12.8688985   21.6926785
| 41>     H       14.8324713   14.4762488   22.4265427
| 42>     H       16.4063879   16.9824505   20.4878665
| 43> *
| 44> 
| 45>                          ****END OF INPUT****
================================================================================

                       ****************************
                       * Single Point Calculation *
                       ****************************

---------------------------------
CARTESIAN COORDINATES (ANGSTROEM)
---------------------------------
  C     14.939514   15.410245   17.581931
  C     15.686550   15.225064   16.249483
  O     17.043048   14.826080   16.511073
  C     18.116299   15.676245   16.465493
  O     19.221839   15.182731   16.343028
  C     17.962312   16.860081   17.360928
  C     17.436508   18.029580   16.931015
  C     16.936859   18.348431   15.538793
  N     17.399895   19.132893   17.786388
  C     17.990261   19.180345   19.022285
  S     17.964791   20.553106   19.943793
  N     18.605843   18.032105   19.456229
  C     18.574641   16.730079   18.759162
  C     17.879795   15.656295   19.595053
  C     18.332385   14.325022   19.536594
  C     17.704876   13.318583   20.289046
  C     16.613979   13.643929   21.112211
  C     16.158845   14.967497   21.175217
  O     15.098519   15.283190   21.960535
  C     16.785137   15.967873   20.424898
  H     15.108482   14.550416   18.242996
  H     13.860454   15.499950   17.408337
  H     15.272334   16.316880   18.099083
  H     15.194753   14.411183   15.700829
  H     15.623706   16.119434   15.623887
  H     17.243104   17.593547   14.804363
  H     17.345591   19.304869   15.187718
  H     15.842850   18.426125   15.519516
  H     16.969312   19.991232   17.480293
  H     19.022001   18.091938   20.376975
  H     19.618708   16.410567   18.624280
  H     19.167780   14.066606   18.888955
  H     18.062467   12.292282   20.226524
  H     16.124703   12.868899   21.692678
  H     14.832471   14.476249   22.426543
  H     16.406388   16.982450   20.487866

----------------------------
CARTESIAN COORDINATES (A.U.)
----------------------------
  NO LB      ZA    FRAG     MASS         X           Y           Z
   0 C     6.0000    0    12.011   28.231589   29.121143   33.225035
   1 C     6.0000    0    12.011   29.643284   28.771202   30.707073
   2 O     8.0000    0    15.999   32.206693   28.017230   31.201405
   3 C     6.0000    0    12.011   34.234843   29.623810   31.115272
   4 O     8.0000    0    15.999   36.324011   28.691203   30.883847
   5 C     6.0000    0    12.011   33.943851   31.860935   32.807400
   6 C     6.0000    0    12.011   32.950225   34.070968   31.994982
   7 C     6.0000    0    12.011   32.006025   34.673510   29.364064
   8 N     7.0000    0    14.007   32.881037   36.155928   33.611402
   9 C     6.0000    0    12.011   33.996667   36.245598   35.946909
  10 S    16.0000    0    32.060   33.948536   38.839742   37.688307
  11 N     7.0000    0    14.007   35.159948   34.075741   36.766943
  12 C     6.0000    0    12.011   35.100985   31.615268   35.449679
  13 C     6.0000    0    12.011   33.787917   29.586111   37.029284
  14 C     6.0000    0    12.011   34.643187   27.070369   36.918813
  15 C     6.0000    0    12.011   33.457367   25.168475   38.340740
  16 C     6.0000    0    12.011   31.395870   25.783288   39.896297
  17 C     6.0000    0    12.011   30.535792   28.284470   40.015362
  18 O     8.0000    0    15.999   28.532067   28.881043   41.499397
  19 C     6.0000    0    12.011   31.719312   30.174907   38.597464
  20 H     1.0000    0     1.008   28.550893   27.496301   34.474266
  21 H     1.0000    0     1.008   26.192461   29.290661   32.896990
  22 H     1.0000    0     1.008   28.860528   30.834436   34.202311
  23 H     1.0000    0     1.008   28.713921   27.233189   29.670266
  24 H     1.0000    0     1.008   29.524526   30.461315   29.524868
  25 H     1.0000    0     1.008   32.584744   33.246986   27.976192
  26 H     1.0000    0     1.008   32.778417   36.480915   28.700628
  27 H     1.0000    0     1.008   29.938647   34.820330   29.327634
  28 H     1.0000    0     1.008   32.067353   37.777955   33.032966
  29 H     1.0000    0     1.008   35.946372   34.188808   38.506903
  30 H     1.0000    0     1.008   37.073985   31.011477   35.194788
  31 H     1.0000    0     1.008   36.221854   26.582032   35.694952
  32 H     1.0000    0     1.008   34.133115   23.229046   38.222592
  33 H     1.0000    0     1.008   30.471272   24.318694   40.993221
  34 H     1.0000    0     1.008   28.029309   27.356146   42.380024
  35 H     1.0000    0     1.008   31.003580   32.092181   38.716457

--------------------------------
INTERNAL COORDINATES (ANGSTROEM)
--------------------------------
 C      0   0   0     0.000000000000     0.00000000     0.00000000
 C      1   0   0     1.538757440749     0.00000000     0.00000000
 O      2   1   0     1.437951106345   109.50227830     0.00000000
 C      3   2   1     1.369936630533   124.11167831   259.12499740
 O      4   3   2     1.216869793700   117.60790060   199.54957243
 C      4   3   2     1.492307986169   113.04806768    55.83378933
 C      6   4   3     1.352413739163   122.36927999   267.56362802
 C      7   6   4     1.513141257234   127.09115284   359.73297761
 N      7   6   4     1.396532638949   119.91224465   184.36734086
 C      9   7   6     1.370483925561   124.63934141     7.11488366
 S     10   9   7     1.653571787482   121.64570091   176.90171618
 N     10   9   7     1.373208203760   116.68779260   357.00945267
 C     12  10   9     1.477209219161   125.33979045   354.07810814
 C     13  12  10     1.527919128315   111.77007660   243.15201522
 C     14  13  12     1.407317459529   119.72410786   214.74361612
 C     15  14  13     1.404589101122   120.78979522   180.40260572
 C     16  15  14     1.404815650740   119.66207237   359.87503547
 C     17  16  15     1.401052959728   119.82790177     0.10105463
 O     18  17  16     1.356715092712   119.98247887   179.44849414
 C     18  17  16     1.398560979061   120.40651490   359.90865926
 H      1   2   3     1.097662081122   110.64028800   311.96043419
 H      1   2   3     1.096609633232   110.51661891   192.24669262
 H      1   2   3     1.095537910980   111.15355866    72.57114916
 H      2   1   3     1.097856877925   107.72720401   117.13114167
 H      2   1   3     1.093259599189   111.66323155   234.51369520
 H      8   7   6     1.096823875207   112.26323270   347.01792233
 H      8   7   6     1.097765311227   110.78726241   228.28008232
 H      8   7   6     1.096934070596   111.12604117   108.59168065
 H      9   7   6     1.007890314061   119.86759473   182.84226477
 H     12  10   9     1.012196715868   114.98216780   180.80664415
 H     13  12  10     1.100162294040   107.08501251   126.11543113
 H     15  14  13     1.088163774766   119.75312748   359.38203768
 H     16  15  14     1.088611190581   119.86807571   179.52373979
 H     17  16  15     1.084898974102   119.88619771   179.81678027
 H     19  18  17     0.969070699845   107.40692169     3.06064063
 H     20  18  17     1.084796591714   118.78323785   179.54702689

---------------------------
INTERNAL COORDINATES (A.U.)
---------------------------
 C      0   0   0     0.000000000000     0.00000000     0.00000000
 C      1   0   0     2.907830149550     0.00000000     0.00000000
 O      2   1   0     2.717333784961   109.50227830     0.00000000
 C      3   2   1     2.588805052535   124.11167831   259.12499740
 O      4   3   2     2.299550650735   117.60790060   199.54957243
 C      4   3   2     2.820053401322   113.04806768    55.83378933
 C      6   4   3     2.555691586771   122.36927999   267.56362802
 C      7   6   4     2.859422578110   127.09115284   359.73297761
 N      7   6   4     2.639064224695   119.91224465   184.36734086
 C      9   7   6     2.589839290252   124.63934141     7.11488366
 S     10   9   7     3.124797821120   121.64570091   176.90171618
 N     10   9   7     2.594987429961   116.68779260   357.00945267
 C     12  10   9     2.791520866717   125.33979045   354.07810814
 C     13  12  10     2.887348707295   111.77007660   243.15201522
 C     14  13  12     2.659444581995   119.72410786   214.74361612
 C     15  14  13     2.654288731810   120.78979522   180.40260572
 C     16  15  14     2.654716848544   119.66207237   359.87503547
 C     17  16  15     2.647606393007   119.82790177     0.10105463
 O     18  17  16     2.563819966983   119.98247887   179.44849414
 C     18  17  16     2.642897232013   120.40651490   359.90865926
 H      1   2   3     2.074280720911   110.64028800   311.96043419
 H      1   2   3     2.072291882628   110.51661891   192.24669262
 H      1   2   3     2.070266621081   111.15355866    72.57114916
 H      2   1   3     2.074648833520   107.72720401   117.13114167
 H      2   1   3     2.065961235749   111.66323155   234.51369520
 H      8   7   6     2.072696741288   112.26323270   347.01792233
 H      8   7   6     2.074475797539   110.78726241   228.28008232
 H      8   7   6     2.072904980394   111.12604117   108.59168065
 H      9   7   6     1.904636666607   119.86759473   182.84226477
 H     12  10   9     1.912774586646   114.98216780   180.80664415
 H     13  12  10     2.079005438602   107.08501251   126.11543113
 H     15  14  13     2.056331523161   119.75312748   359.38203768
 H     16  15  14     2.057177016520   119.86807571   179.52373979
 H     17  16  15     2.050161944025   119.88619771   179.81678027
 H     19  18  17     1.831278227114   107.40692169     3.06064063
 H     20  18  17     2.049968469350   118.78323785   179.54702689

---------------------
BASIS SET INFORMATION
---------------------
There are 5 groups of distinct atoms

 Group   1 Type C   : 18s5p2d1f contracted to 4s3p2d1f pattern {8811/311/11/1}
 Group   2 Type O   : 18s5p2d1f contracted to 4s3p2d1f pattern {8811/311/11/1}
 Group   3 Type N   : 18s5p2d1f contracted to 4s3p2d1f pattern {8811/311/11/1}
 Group   4 Type S   : 41s16p2d1f contracted to 5s4p2d1f pattern {13131311/7711/11/1}
 Group   5 Type H   : 5s2p1d contracted to 3s2p1d pattern {311/11/1}

Atom   0C    basis set group =>   1
Atom   1C    basis set group =>   1
Atom   2O    basis set group =>   2
Atom   3C    basis set group =>   1
Atom   4O    basis set group =>   2
Atom   5C    basis set group =>   1
Atom   6C    basis set group =>   1
Atom   7C    basis set group =>   1
Atom   8N    basis set group =>   3
Atom   9C    basis set group =>   1
Atom  10S    basis set group =>   4
Atom  11N    basis set group =>   3
Atom  12C    basis set group =>   1
Atom  13C    basis set group =>   1
Atom  14C    basis set group =>   1
Atom  15C    basis set group =>   1
Atom  16C    basis set group =>   1
Atom  17C    basis set group =>   1
Atom  18O    basis set group =>   2
Atom  19C    basis set group =>   1
Atom  20H    basis set group =>   5
Atom  21H    basis set group =>   5
Atom  22H    basis set group =>   5
Atom  23H    basis set group =>   5
Atom  24H    basis set group =>   5
Atom  25H    basis set group =>   5
Atom  26H    basis set group =>   5
Atom  27H    basis set group =>   5
Atom  28H    basis set group =>   5
Atom  29H    basis set group =>   5
Atom  30H    basis set group =>   5
Atom  31H    basis set group =>   5
Atom  32H    basis set group =>   5
Atom  33H    basis set group =>   5
Atom  34H    basis set group =>   5
Atom  35H    basis set group =>   5
---------------------------------
AUXILIARY/C BASIS SET INFORMATION
---------------------------------
There are 5 groups of distinct atoms

 Group   1 Type C   : 8s6p5d3f1g contracted to 8s6p5d3f1g pattern {11111111/111111/11111/111/1}
 Group   2 Type O   : 8s6p5d3f1g contracted to 8s6p5d3f1g pattern {11111111/111111/11111/111/1}
 Group   3 Type N   : 8s6p5d3f1g contracted to 8s6p5d3f1g pattern {11111111/111111/11111/111/1}
 Group   4 Type S   : 10s8p7d5f2g contracted to 10s8p7d5f2g pattern {1111111111/11111111/1111111/11111/11}
 Group   5 Type H   : 4s3p2d1f contracted to 4s3p2d1f pattern {1111/111/11/1}

Atom   0C    basis set group =>   1
Atom   1C    basis set group =>   1
Atom   2O    basis set group =>   2
Atom   3C    basis set group =>   1
Atom   4O    basis set group =>   2
Atom   5C    basis set group =>   1
Atom   6C    basis set group =>   1
Atom   7C    basis set group =>   1
Atom   8N    basis set group =>   3
Atom   9C    basis set group =>   1
Atom  10S    basis set group =>   4
Atom  11N    basis set group =>   3
Atom  12C    basis set group =>   1
Atom  13C    basis set group =>   1
Atom  14C    basis set group =>   1
Atom  15C    basis set group =>   1
Atom  16C    basis set group =>   1
Atom  17C    basis set group =>   1
Atom  18O    basis set group =>   2
Atom  19C    basis set group =>   1
Atom  20H    basis set group =>   5
Atom  21H    basis set group =>   5
Atom  22H    basis set group =>   5
Atom  23H    basis set group =>   5
Atom  24H    basis set group =>   5
Atom  25H    basis set group =>   5
Atom  26H    basis set group =>   5
Atom  27H    basis set group =>   5
Atom  28H    basis set group =>   5
Atom  29H    basis set group =>   5
Atom  30H    basis set group =>   5
Atom  31H    basis set group =>   5
Atom  32H    basis set group =>   5
Atom  33H    basis set group =>   5
Atom  34H    basis set group =>   5
Atom  35H    basis set group =>   5
------------------------------------------------------------------------------
                           ORCA GTO INTEGRAL CALCULATION
------------------------------------------------------------------------------
------------------------------------------------------------------------------
                   ___                                                        
                  /   \      - P O W E R E D   B Y -                         
                 /     \                                                     
                 |  |  |   _    _      __       _____    __    __             
                 |  |  |  | |  | |    /  \     |  _  \  |  |  /  |          
                  \  \/   | |  | |   /    \    | | | |  |  | /  /          
                 / \  \   | |__| |  /  /\  \   | |_| |  |  |/  /          
                |  |  |   |  __  | /  /__\  \  |    /   |      \           
                |  |  |   | |  | | |   __   |  |    \   |  |\   \          
                \     /   | |  | | |  |  |  |  | |\  \  |  | \   \       
                 \___/    |_|  |_| |__|  |__|  |_| \__\ |__|  \__/        
                                                                              
                      - O R C A' S   B I G   F R I E N D -                    
                                      &                                       
                       - I N T E G R A L  F E E D E R -                       
                                                                              
 v1 FN, 2020, v2 2021                                                         
------------------------------------------------------------------------------


Reading SHARK input file CONFS/Conf207.orca.SHARKINP.tmp ... ok
----------------------
SHARK INTEGRAL PACKAGE
----------------------

Number of atoms                             ...     36
Number of basis functions                   ...    828
Number of shells                            ...    298
Maximum angular momentum                    ...      3
Integral batch strategy                     ... SHARK/LIBINT Hybrid
RI-J (if used) integral strategy            ... SPLIT-RIJ (Revised 2003 algorithm where possible)
Printlevel                                  ...      1
Contraction scheme used                     ... SEGMENTED contraction
Coulomb Range Separation                    ... NOT USED
Exchange Range Separation                   ... NOT USED
Finite Nucleus Model                        ... NOT USED
Auxiliary Coulomb fitting basis             ... NOT available
Auxiliary J/K fitting basis                 ... NOT available
Auxiliary Correlation fitting basis         ... AVAILABLE
   # of basis functions in Aux-C            ...   2141
   # of shells in Aux-C                     ...    629
   Maximum angular momentum in Aux-C        ...      4
Auxiliary 'external' fitting basis          ... NOT available
Integral threshold                          ...     2.500000e-11
Primitive cut-off                           ...     2.500000e-12
Primitive pair pre-selection threshold      ...     2.500000e-12

Calculating pre-screening integrals         ... done (  0.8 sec) Dimension = 298
Organizing shell pair data                  ... done (  1.5 sec)
Shell pair information
Total number of shell pairs                 ...     44551
Shell pairs after pre-screening             ...     34975
Total number of primitive shell pairs       ...    234348
Primitive shell pairs kept                  ...     99816
          la=0 lb=0:   6942 shell pairs
          la=1 lb=0:   9695 shell pairs
          la=1 lb=1:   3433 shell pairs
          la=2 lb=0:   5576 shell pairs
          la=2 lb=1:   3840 shell pairs
          la=2 lb=2:   1107 shell pairs
          la=3 lb=0:   2031 shell pairs
          la=3 lb=1:   1397 shell pairs
          la=3 lb=2:    798 shell pairs
          la=3 lb=3:    156 shell pairs

Calculating one electron integrals          ... done (  0.3 sec)
Calculating RI/C V-Matrix + Cholesky decomp.... done (  1.6 sec)
Calculating Nuclear repulsion               ... done (  0.0 sec) ENN=   1740.901500874678 Eh

SHARK setup successfully completed in   4.9 seconds

Maximum memory used throughout the entire GTOINT-calculation: 523.1 MB
-------------------------------------------------------------------------------
                                 ORCA SCF
-------------------------------------------------------------------------------

------------
SCF SETTINGS
------------
Hamiltonian:
 Ab initio Hamiltonian  Method          .... Hartree-Fock(GTOs)


General Settings:
 Integral files         IntName         .... CONFS/Conf207.orca
 Hartree-Fock type      HFTyp           .... RHF
 Total Charge           Charge          ....    0
 Multiplicity           Mult            ....    1
 Number of Electrons    NEL             ....  154
 Basis Dimension        Dim             ....  828
 Nuclear Repulsion      ENuc            ....   1740.9015008747 Eh

Convergence Acceleration:
 DIIS                   CNVDIIS         .... on
   Start iteration      DIISMaxIt       ....    12
   Startup error        DIISStart       ....  0.200000
   # of expansion vecs  DIISMaxEq       ....     5
   Bias factor          DIISBfac        ....   1.050
   Max. coefficient     DIISMaxC        ....  10.000
 Trust-Rad. Augm. Hess. CNVTRAH         .... auto
   Auto Start mean grad. ratio tolernc. ....  1.125000
   Auto Start start iteration           ....    20
   Auto Start num. interpolation iter.  ....    10
   Max. Number of Micro iterations      ....    16
   Max. Number of Macro iterations      .... Maxiter - #DIIS iter
   Number of Davidson start vectors     ....     2
   Converg. threshold I  (grad. norm)   ....   1.000e-05
   Converg. threshold II (energy diff.) ....   1.000e-08
   Grad. Scal. Fac. for Micro threshold ....   0.100
   Minimum threshold for Micro iter.    ....   0.010
   NR start threshold (gradient norm)   ....   0.001
   Initial trust radius                 ....   0.400
   Minimum AH scaling param. (alpha)    ....   1.000
   Maximum AH scaling param. (alpha)    .... 1000.000
   Orbital update algorithm             .... Taylor
   White noise on init. David. guess    .... on
   Maximum white noise                  ....   0.010
   Quad. conv. algorithm                .... NR
 SOSCF                  CNVSOSCF        .... on
   Start iteration      SOSCFMaxIt      ....   150
   Startup grad/error   SOSCFStart      ....  0.003300
 Level Shifting         CNVShift        .... on
   Level shift para.    LevelShift      ....    0.2500
   Turn off err/grad.   ShiftErr        ....    0.0010
 Zerner damping         CNVZerner       .... off
 Static damping         CNVDamp         .... on
   Fraction old density DampFac         ....    0.7000
   Max. Damping (<1)    DampMax         ....    0.9800
   Min. Damping (>=0)   DampMin         ....    0.0000
   Turn off err/grad.   DampErr         ....    0.1000
 Fernandez-Rico         CNVRico         .... off

SCF Procedure:
 Maximum # iterations   MaxIter         ....   125
 SCF integral mode      SCFMode         .... Direct
   Integral package                     .... SHARK and LIBINT hybrid scheme
 Reset frequency        DirectResetFreq ....    20
 Integral Threshold     Thresh          ....  2.500e-11 Eh
 Primitive CutOff       TCut            ....  2.500e-12 Eh

Convergence Tolerance:
 Convergence Check Mode ConvCheckMode   .... Total+1el-Energy
 Convergence forced     ConvForced      .... 1
 Energy Change          TolE            ....  1.000e-08 Eh
 1-El. energy change                    ....  1.000e-05 Eh
 Orbital Gradient       TolG            ....  1.000e-05
 Orbital Rotation angle TolX            ....  1.000e-05
 DIIS Error             TolErr          ....  5.000e-07


Diagonalization of the overlap matrix:
Smallest eigenvalue                        ... 3.241e-05
Time for diagonalization                   ...    0.116 sec
Threshold for overlap eigenvalues          ... 1.000e-08
Number of eigenvalues below threshold      ... 0
Time for construction of square roots      ...    0.099 sec
Total time needed                          ...    0.216 sec

Time for model grid setup =    1.411 sec

------------------------------
INITIAL GUESS: MODEL POTENTIAL
------------------------------
Loading Hartree-Fock densities                     ... done
Calculating cut-offs                               ... done
Initializing the effective Hamiltonian             ... done
Setting up the integral package (SHARK)            ... done
Starting the Coulomb interaction                   ... done (   4.0 sec)
Reading the grid                                   ... done
Mapping shells                                     ... done
Starting the XC term evaluation                    ... done (   1.3 sec)
Transforming the Hamiltonian                       ... done (   0.1 sec)
Diagonalizing the Hamiltonian                      ... done (   0.1 sec)
Back transforming the eigenvectors                 ... done (   0.0 sec)
Now organizing SCF variables                       ... done
                      ------------------
                      INITIAL GUESS DONE (   7.1 sec)
                      ------------------
--------------
SCF ITERATIONS
--------------
ITER       Energy         Delta-E        Max-DP      RMS-DP      [F,P]     Damp
               ***  Starting incremental Fock matrix formation  ***
  0  -1269.9730977038   0.000000000000 0.04930079  0.00044933  0.3124497 0.7000
  1  -1270.2419301259  -0.268832422038 0.03609251  0.00036432  0.1866273 0.7000
                               ***Turning on DIIS***
  2  -1270.4089969325  -0.167066806614 0.02586346  0.00024290  0.1097750 0.7000
  3  -1272.5456087330  -2.136611800537 0.06327445  0.00052170  0.0828632 0.0000
  4  -1270.7211963799   1.824412353152 0.01059933  0.00010136  0.0077934 0.0000
  5  -1270.7782494030  -0.057053023102 0.00421349  0.00005158  0.0043578 0.0000
  6  -1270.7567422030   0.021507199919 0.00190662  0.00002628  0.0038599 0.0000
                      *** Initiating the SOSCF procedure ***
                           *** Shutting down DIIS ***
                      *** Re-Reading the Fockian *** 
                      *** Removing any level shift *** 
ITER      Energy       Delta-E        Grad      Rot      Max-DP    RMS-DP
  7  -1270.77144989  -0.0147076898  0.001271  0.001271  0.001189  0.000015
               *** Restarting incremental Fock matrix formation ***
  8  -1270.77178172  -0.0003318319  0.000664  0.001225  0.000851  0.000008
  9  -1270.77179513  -0.0000134044  0.000264  0.001317  0.001358  0.000011
 10  -1270.77180073  -0.0000055987  0.000063  0.000080  0.000173  0.000002
 11  -1270.77180135  -0.0000006256  0.000047  0.000090  0.000067  0.000001
 12  -1270.77180145  -0.0000000937  0.000007  0.000020  0.000026  0.000000
 13  -1270.77180146  -0.0000000095  0.000005  0.000018  0.000013  0.000000
                  ***Gradient check signals convergence***
              ***Rediagonalizing the Fockian in SOSCF/NRSCF***

               *****************************************************
               *                     SUCCESS                       *
               *           SCF CONVERGED AFTER  14 CYCLES          *
               *****************************************************


----------------
TOTAL SCF ENERGY
----------------

Total Energy       :        -1270.77180147 Eh          -34579.45870 eV

Components:
Nuclear Repulsion  :         1740.90150087 Eh           47372.33820 eV
Electronic Energy  :        -3011.67330234 Eh          -81951.79691 eV
One Electron Energy:        -5202.59127917 Eh         -141569.70597 eV
Two Electron Energy:         2190.91797683 Eh           59617.90907 eV

Virial components:
Potential Energy   :        -2539.83161930 Eh          -69112.33196 eV
Kinetic Energy     :         1269.05981784 Eh           34532.87326 eV
Virial Ratio       :            2.00134902


---------------
SCF CONVERGENCE
---------------

  Last Energy change         ...   -1.0657e-08  Tolerance :   1.0000e-08
  Last MAX-Density change    ...    2.8051e-06  Tolerance :   1.0000e-07
  Last RMS-Density change    ...    4.0075e-08  Tolerance :   5.0000e-09
  Last Orbital Gradient      ...    1.7940e-06  Tolerance :   1.0000e-05
  Last Orbital Rotation      ...    4.0446e-06  Tolerance :   1.0000e-05

             **** THE GBW FILE WAS UPDATED (CONFS/Conf207.orca.gbw) ****
             **** DENSITY CONFS/Conf207.orca.scfp WAS UPDATED ****
             **** ENERGY FILE WAS UPDATED (CONFS/Conf207.orca.en.tmp) ****
             **** THE GBW FILE WAS UPDATED (CONFS/Conf207.orca.gbw) ****
             **** DENSITY CONFS/Conf207.orca.scfp WAS UPDATED ****
----------------
ORBITAL ENERGIES
----------------

  NO   OCC          E(Eh)            E(eV) 
   0   2.0000     -91.888169     -2500.4042 
   1   2.0000     -20.599824      -560.5497 
   2   2.0000     -20.596293      -560.4536 
   3   2.0000     -20.559250      -559.4456 
   4   2.0000     -15.623789      -425.1449 
   5   2.0000     -15.610476      -424.7827 
   6   2.0000     -11.398452      -310.1676 
   7   2.0000     -11.384942      -309.8000 
   8   2.0000     -11.324207      -308.1473 
   9   2.0000     -11.315929      -307.9221 
  10   2.0000     -11.312455      -307.8276 
  11   2.0000     -11.306338      -307.6611 
  12   2.0000     -11.271728      -306.7193 
  13   2.0000     -11.266778      -306.5846 
  14   2.0000     -11.260742      -306.4204 
  15   2.0000     -11.253043      -306.2109 
  16   2.0000     -11.242398      -305.9212 
  17   2.0000     -11.238105      -305.8044 
  18   2.0000     -11.235353      -305.7295 
  19   2.0000     -11.227993      -305.5292 
  20   2.0000      -8.893304      -241.9991 
  21   2.0000      -6.574903      -178.9122 
  22   2.0000      -6.572866      -178.8568 
  23   2.0000      -6.572300      -178.8414 
  24   2.0000      -1.454875       -39.5892 
  25   2.0000      -1.416120       -38.5346 
  26   2.0000      -1.363392       -37.0998 
  27   2.0000      -1.338290       -36.4167 
  28   2.0000      -1.238426       -33.6993 
  29   2.0000      -1.157511       -31.4975 
  30   2.0000      -1.123926       -30.5836 
  31   2.0000      -1.047065       -28.4921 
  32   2.0000      -1.039126       -28.2761 
  33   2.0000      -1.015716       -27.6390 
  34   2.0000      -1.004252       -27.3271 
  35   2.0000      -0.988260       -26.8919 
  36   2.0000      -0.926564       -25.2131 
  37   2.0000      -0.891308       -24.2537 
  38   2.0000      -0.853085       -23.2136 
  39   2.0000      -0.839079       -22.8325 
  40   2.0000      -0.833089       -22.6695 
  41   2.0000      -0.831491       -22.6260 
  42   2.0000      -0.756771       -20.5928 
  43   2.0000      -0.738031       -20.0828 
  44   2.0000      -0.729569       -19.8526 
  45   2.0000      -0.694574       -18.9003 
  46   2.0000      -0.688453       -18.7338 
  47   2.0000      -0.682381       -18.5685 
  48   2.0000      -0.676086       -18.3972 
  49   2.0000      -0.664621       -18.0853 
  50   2.0000      -0.651493       -17.7280 
  51   2.0000      -0.639476       -17.4010 
  52   2.0000      -0.637390       -17.3443 
  53   2.0000      -0.617094       -16.7920 
  54   2.0000      -0.610989       -16.6259 
  55   2.0000      -0.605214       -16.4687 
  56   2.0000      -0.600790       -16.3483 
  57   2.0000      -0.590134       -16.0584 
  58   2.0000      -0.580469       -15.7954 
  59   2.0000      -0.573141       -15.5959 
  60   2.0000      -0.564327       -15.3561 
  61   2.0000      -0.557567       -15.1722 
  62   2.0000      -0.540095       -14.6967 
  63   2.0000      -0.527342       -14.3497 
  64   2.0000      -0.517112       -14.0713 
  65   2.0000      -0.511750       -13.9254 
  66   2.0000      -0.502897       -13.6845 
  67   2.0000      -0.500148       -13.6097 
  68   2.0000      -0.486721       -13.2443 
  69   2.0000      -0.464783       -12.6474 
  70   2.0000      -0.456933       -12.4338 
  71   2.0000      -0.452157       -12.3038 
  72   2.0000      -0.355815        -9.6822 
  73   2.0000      -0.346755        -9.4357 
  74   2.0000      -0.328005        -8.9255 
  75   2.0000      -0.320679        -8.7261 
  76   2.0000      -0.316692        -8.6176 
  77   0.0000       0.090453         2.4614 
  78   0.0000       0.100173         2.7259 
  79   0.0000       0.111370         3.0305 
  80   0.0000       0.127426         3.4674 
  81   0.0000       0.131074         3.5667 
  82   0.0000       0.140462         3.8222 
  83   0.0000       0.145251         3.9525 
  84   0.0000       0.151304         4.1172 
  85   0.0000       0.159911         4.3514 
  86   0.0000       0.167245         4.5510 
  87   0.0000       0.174387         4.7453 
  88   0.0000       0.184465         5.0195 
  89   0.0000       0.192850         5.2477 
  90   0.0000       0.197099         5.3633 
  91   0.0000       0.206210         5.6113 
  92   0.0000       0.208791         5.6815 
  93   0.0000       0.217262         5.9120 
  94   0.0000       0.218035         5.9330 
  95   0.0000       0.235186         6.3997 
  96   0.0000       0.244544         6.6544 
  97   0.0000       0.246896         6.7184 
  98   0.0000       0.258044         7.0217 
  99   0.0000       0.278103         7.5676 
 100   0.0000       0.285009         7.7555 
 101   0.0000       0.297721         8.1014 
 102   0.0000       0.308709         8.4004 
 103   0.0000       0.314079         8.5465 
 104   0.0000       0.325060         8.8453 
 105   0.0000       0.332904         9.0588 
 106   0.0000       0.342817         9.3285 
 107   0.0000       0.351237         9.5576 
 108   0.0000       0.353567         9.6211 
 109   0.0000       0.365318         9.9408 
 110   0.0000       0.370842        10.0911 
 111   0.0000       0.377879        10.2826 
 112   0.0000       0.385840        10.4992 
 113   0.0000       0.396692        10.7945 
 114   0.0000       0.403255        10.9731 
 115   0.0000       0.410654        11.1745 
 116   0.0000       0.417768        11.3680 
 117   0.0000       0.423897        11.5348 
 118   0.0000       0.436302        11.8724 
 119   0.0000       0.438868        11.9422 
 120   0.0000       0.442937        12.0529 
 121   0.0000       0.450893        12.2694 
 122   0.0000       0.454368        12.3640 
 123   0.0000       0.464235        12.6325 
 124   0.0000       0.469967        12.7885 
 125   0.0000       0.473743        12.8912 
 126   0.0000       0.483959        13.1692 
 127   0.0000       0.491368        13.3708 
 128   0.0000       0.493186        13.4203 
 129   0.0000       0.502493        13.6735 
 130   0.0000       0.503553        13.7024 
 131   0.0000       0.513083        13.9617 
 132   0.0000       0.514251        13.9935 
 133   0.0000       0.520924        14.1751 
 134   0.0000       0.524831        14.2814 
 135   0.0000       0.526705        14.3324 
 136   0.0000       0.538580        14.6555 
 137   0.0000       0.538943        14.6654 
 138   0.0000       0.542267        14.7558 
 139   0.0000       0.551844        15.0164 
 140   0.0000       0.556875        15.1533 
 141   0.0000       0.560662        15.2564 
 142   0.0000       0.570429        15.5222 
 143   0.0000       0.574352        15.6289 
 144   0.0000       0.575214        15.6524 
 145   0.0000       0.583731        15.8841 
 146   0.0000       0.587015        15.9735 
 147   0.0000       0.592047        16.1104 
 148   0.0000       0.593156        16.1406 
 149   0.0000       0.599773        16.3206 
 150   0.0000       0.604014        16.4361 
 151   0.0000       0.605645        16.4804 
 152   0.0000       0.609334        16.5808 
 153   0.0000       0.611128        16.6296 
 154   0.0000       0.617810        16.8115 
 155   0.0000       0.620956        16.8971 
 156   0.0000       0.626346        17.0437 
 157   0.0000       0.633249        17.2316 
 158   0.0000       0.639115        17.3912 
 159   0.0000       0.651294        17.7226 
 160   0.0000       0.657565        17.8933 
 161   0.0000       0.659609        17.9489 
 162   0.0000       0.662151        18.0181 
 163   0.0000       0.667589        18.1660 
 164   0.0000       0.669434        18.2162 
 165   0.0000       0.678507        18.4631 
 166   0.0000       0.679649        18.4942 
 167   0.0000       0.686534        18.6815 
 168   0.0000       0.694846        18.9077 
 169   0.0000       0.699156        19.0250 
 170   0.0000       0.704101        19.1596 
 171   0.0000       0.708570        19.2812 
 172   0.0000       0.719327        19.5739 
 173   0.0000       0.727872        19.8064 
 174   0.0000       0.731962        19.9177 
 175   0.0000       0.743067        20.2199 
 176   0.0000       0.746544        20.3145 
 177   0.0000       0.747758        20.3475 
 178   0.0000       0.757337        20.6082 
 179   0.0000       0.769446        20.9377 
 180   0.0000       0.770825        20.9752 
 181   0.0000       0.783010        21.3068 
 182   0.0000       0.786471        21.4010 
 183   0.0000       0.789720        21.4894 
 184   0.0000       0.799519        21.7560 
 185   0.0000       0.811827        22.0909 
 186   0.0000       0.823364        22.4049 
 187   0.0000       0.834425        22.7058 
 188   0.0000       0.839051        22.8317 
 189   0.0000       0.849644        23.1200 
 190   0.0000       0.854484        23.2517 
 191   0.0000       0.860671        23.4200 
 192   0.0000       0.866989        23.5920 
 193   0.0000       0.871577        23.7168 
 194   0.0000       0.881163        23.9777 
 195   0.0000       0.883596        24.0439 
 196   0.0000       0.890564        24.2335 
 197   0.0000       0.897975        24.4352 
 198   0.0000       0.906399        24.6644 
 199   0.0000       0.911773        24.8106 
 200   0.0000       0.920004        25.0346 
 201   0.0000       0.927542        25.2397 
 202   0.0000       0.932064        25.3627 
 203   0.0000       0.944097        25.6902 
 204   0.0000       0.952241        25.9118 
 205   0.0000       0.962861        26.2008 
 206   0.0000       0.966538        26.3008 
 207   0.0000       0.972507        26.4632 
 208   0.0000       0.980720        26.6867 
 209   0.0000       0.983550        26.7638 
 210   0.0000       0.987456        26.8701 
 211   0.0000       0.998199        27.1624 
 212   0.0000       1.005081        27.3496 
 213   0.0000       1.008443        27.4411 
 214   0.0000       1.012584        27.5538 
 215   0.0000       1.022235        27.8164 
 216   0.0000       1.031587        28.0709 
 217   0.0000       1.035758        28.1844 
 218   0.0000       1.039251        28.2794 
 219   0.0000       1.042108        28.3572 
 220   0.0000       1.053047        28.6549 
 221   0.0000       1.054036        28.6818 
 222   0.0000       1.065134        28.9838 
 223   0.0000       1.078599        29.3502 
 224   0.0000       1.086993        29.5786 
 225   0.0000       1.088444        29.6181 
 226   0.0000       1.093096        29.7447 
 227   0.0000       1.108680        30.1687 
 228   0.0000       1.112691        30.2779 
 229   0.0000       1.115940        30.3663 
 230   0.0000       1.127309        30.6756 
 231   0.0000       1.132607        30.8198 
 232   0.0000       1.140205        31.0266 
 233   0.0000       1.150325        31.3019 
 234   0.0000       1.160501        31.5788 
 235   0.0000       1.171660        31.8825 
 236   0.0000       1.172800        31.9135 
 237   0.0000       1.180586        32.1254 
 238   0.0000       1.189736        32.3744 
 239   0.0000       1.194899        32.5148 
 240   0.0000       1.207128        32.8476 
 241   0.0000       1.211948        32.9788 
 242   0.0000       1.213165        33.0119 
 243   0.0000       1.218655        33.1613 
 244   0.0000       1.221678        33.2435 
 245   0.0000       1.232713        33.5438 
 246   0.0000       1.251670        34.0597 
 247   0.0000       1.253796        34.1175 
 248   0.0000       1.264834        34.4179 
 249   0.0000       1.272958        34.6390 
 250   0.0000       1.282215        34.8908 
 251   0.0000       1.285378        34.9769 
 252   0.0000       1.291588        35.1459 
 253   0.0000       1.298509        35.3342 
 254   0.0000       1.308273        35.5999 
 255   0.0000       1.310614        35.6636 
 256   0.0000       1.317419        35.8488 
 257   0.0000       1.321285        35.9540 
 258   0.0000       1.332233        36.2519 
 259   0.0000       1.336654        36.3722 
 260   0.0000       1.346885        36.6506 
 261   0.0000       1.357406        36.9369 
 262   0.0000       1.365580        37.1593 
 263   0.0000       1.371297        37.3149 
 264   0.0000       1.373345        37.3706 
 265   0.0000       1.390288        37.8317 
 266   0.0000       1.394950        37.9585 
 267   0.0000       1.402468        38.1631 
 268   0.0000       1.416480        38.5444 
 269   0.0000       1.422322        38.7033 
 270   0.0000       1.423462        38.7344 
 271   0.0000       1.429315        38.8937 
 272   0.0000       1.446218        39.3536 
 273   0.0000       1.449155        39.4335 
 274   0.0000       1.452596        39.5272 
 275   0.0000       1.459446        39.7135 
 276   0.0000       1.476189        40.1692 
 277   0.0000       1.484936        40.4072 
 278   0.0000       1.486918        40.4611 
 279   0.0000       1.490752        40.5654 
 280   0.0000       1.496901        40.7327 
 281   0.0000       1.500060        40.8187 
 282   0.0000       1.517233        41.2860 
 283   0.0000       1.523926        41.4681 
 284   0.0000       1.530493        41.6468 
 285   0.0000       1.535573        41.7851 
 286   0.0000       1.548308        42.1316 
 287   0.0000       1.553101        42.2620 
 288   0.0000       1.554483        42.2996 
 289   0.0000       1.563708        42.5506 
 290   0.0000       1.568392        42.6781 
 291   0.0000       1.574135        42.8344 
 292   0.0000       1.583329        43.0846 
 293   0.0000       1.597311        43.4650 
 294   0.0000       1.602892        43.6169 
 295   0.0000       1.606550        43.7164 
 296   0.0000       1.621494        44.1231 
 297   0.0000       1.624392        44.2020 
 298   0.0000       1.628994        44.3272 
 299   0.0000       1.636778        44.5390 
 300   0.0000       1.646163        44.7944 
 301   0.0000       1.654378        45.0179 
 302   0.0000       1.663597        45.2688 
 303   0.0000       1.673066        45.5264 
 304   0.0000       1.679259        45.6950 
 305   0.0000       1.682384        45.7800 
 306   0.0000       1.689861        45.9835 
 307   0.0000       1.709870        46.5279 
 308   0.0000       1.710182        46.5364 
 309   0.0000       1.720743        46.8238 
 310   0.0000       1.730792        47.0972 
 311   0.0000       1.741392        47.3857 
 312   0.0000       1.742902        47.4268 
 313   0.0000       1.752925        47.6995 
 314   0.0000       1.764019        48.0014 
 315   0.0000       1.779205        48.4146 
 316   0.0000       1.783016        48.5183 
 317   0.0000       1.793551        48.8050 
 318   0.0000       1.799230        48.9595 
 319   0.0000       1.811220        49.2858 
 320   0.0000       1.843512        50.1645 
 321   0.0000       1.844622        50.1947 
 322   0.0000       1.853006        50.4229 
 323   0.0000       1.858115        50.5619 
 324   0.0000       1.866831        50.7990 
 325   0.0000       1.877380        51.0861 
 326   0.0000       1.887724        51.3676 
 327   0.0000       1.894305        51.5466 
 328   0.0000       1.908989        51.9462 
 329   0.0000       1.914098        52.0853 
 330   0.0000       1.932609        52.5890 
 331   0.0000       1.941285        52.8251 
 332   0.0000       1.943587        52.8877 
 333   0.0000       1.950831        53.0848 
 334   0.0000       1.974628        53.7324 
 335   0.0000       1.988183        54.1012 
 336   0.0000       1.993065        54.2341 
 337   0.0000       2.011360        54.7319 
 338   0.0000       2.013821        54.7989 
 339   0.0000       2.023409        55.0598 
 340   0.0000       2.033861        55.3442 
 341   0.0000       2.054983        55.9189 
 342   0.0000       2.063090        56.1395 
 343   0.0000       2.088749        56.8377 
 344   0.0000       2.099170        57.1213 
 345   0.0000       2.119874        57.6847 
 346   0.0000       2.125967        57.8505 
 347   0.0000       2.143627        58.3311 
 348   0.0000       2.154073        58.6153 
 349   0.0000       2.181291        59.3560 
 350   0.0000       2.192681        59.6659 
 351   0.0000       2.203441        59.9587 
 352   0.0000       2.212398        60.2024 
 353   0.0000       2.228457        60.6394 
 354   0.0000       2.239847        60.9493 
 355   0.0000       2.265524        61.6480 
 356   0.0000       2.275494        61.9193 
 357   0.0000       2.291059        62.3429 
 358   0.0000       2.296458        62.4898 
 359   0.0000       2.307392        62.7873 
 360   0.0000       2.313702        62.9590 
 361   0.0000       2.329044        63.3765 
 362   0.0000       2.338823        63.6426 
 363   0.0000       2.352143        64.0051 
 364   0.0000       2.363797        64.3222 
 365   0.0000       2.376755        64.6748 
 366   0.0000       2.378372        64.7188 
 367   0.0000       2.394899        65.1685 
 368   0.0000       2.413957        65.6871 
 369   0.0000       2.437803        66.3360 
 370   0.0000       2.449092        66.6432 
 371   0.0000       2.453211        66.7553 
 372   0.0000       2.465476        67.0890 
 373   0.0000       2.488263        67.7091 
 374   0.0000       2.496950        67.9455 
 375   0.0000       2.510411        68.3117 
 376   0.0000       2.521147        68.6039 
 377   0.0000       2.525974        68.7352 
 378   0.0000       2.543754        69.2191 
 379   0.0000       2.552335        69.4526 
 380   0.0000       2.583386        70.2975 
 381   0.0000       2.584222        70.3203 
 382   0.0000       2.593067        70.5609 
 383   0.0000       2.608369        70.9773 
 384   0.0000       2.616723        71.2046 
 385   0.0000       2.636258        71.7362 
 386   0.0000       2.643018        71.9202 
 387   0.0000       2.649560        72.0982 
 388   0.0000       2.660006        72.3824 
 389   0.0000       2.664728        72.5109 
 390   0.0000       2.685685        73.0812 
 391   0.0000       2.689828        73.1939 
 392   0.0000       2.711051        73.7714 
 393   0.0000       2.719634        74.0050 
 394   0.0000       2.734683        74.4145 
 395   0.0000       2.749003        74.8042 
 396   0.0000       2.753372        74.9231 
 397   0.0000       2.765926        75.2647 
 398   0.0000       2.769425        75.3599 
 399   0.0000       2.780145        75.6516 
 400   0.0000       2.784855        75.7798 
 401   0.0000       2.804005        76.3009 
 402   0.0000       2.807746        76.4027 
 403   0.0000       2.814161        76.5772 
 404   0.0000       2.819133        76.7125 
 405   0.0000       2.839005        77.2533 
 406   0.0000       2.840350        77.2898 
 407   0.0000       2.854162        77.6657 
 408   0.0000       2.862749        77.8994 
 409   0.0000       2.863916        77.9311 
 410   0.0000       2.890298        78.6490 
 411   0.0000       2.895284        78.7847 
 412   0.0000       2.906555        79.0914 
 413   0.0000       2.916463        79.3610 
 414   0.0000       2.926454        79.6329 
 415   0.0000       2.928077        79.6770 
 416   0.0000       2.931976        79.7831 
 417   0.0000       2.941406        80.0397 
 418   0.0000       2.952134        80.3317 
 419   0.0000       2.959517        80.5326 
 420   0.0000       2.979103        81.0655 
 421   0.0000       2.985299        81.2341 
 422   0.0000       2.991991        81.4162 
 423   0.0000       2.994809        81.4929 
 424   0.0000       3.007483        81.8378 
 425   0.0000       3.010753        81.9268 
 426   0.0000       3.019416        82.1625 
 427   0.0000       3.029099        82.4260 
 428   0.0000       3.039041        82.6965 
 429   0.0000       3.041721        82.7694 
 430   0.0000       3.052779        83.0703 
 431   0.0000       3.055299        83.1389 
 432   0.0000       3.064521        83.3899 
 433   0.0000       3.073498        83.6341 
 434   0.0000       3.082844        83.8885 
 435   0.0000       3.088722        84.0484 
 436   0.0000       3.091209        84.1161 
 437   0.0000       3.102491        84.4231 
 438   0.0000       3.110564        84.6427 
 439   0.0000       3.118332        84.8541 
 440   0.0000       3.126898        85.0872 
 441   0.0000       3.133481        85.2663 
 442   0.0000       3.139183        85.4215 
 443   0.0000       3.140130        85.4473 
 444   0.0000       3.151173        85.7478 
 445   0.0000       3.157999        85.9335 
 446   0.0000       3.160690        86.0067 
 447   0.0000       3.181980        86.5861 
 448   0.0000       3.185391        86.6789 
 449   0.0000       3.188174        86.7546 
 450   0.0000       3.200601        87.0928 
 451   0.0000       3.205705        87.2317 
 452   0.0000       3.226825        87.8064 
 453   0.0000       3.230381        87.9031 
 454   0.0000       3.235744        88.0491 
 455   0.0000       3.243995        88.2736 
 456   0.0000       3.248460        88.3951 
 457   0.0000       3.254732        88.5658 
 458   0.0000       3.263326        88.7996 
 459   0.0000       3.272825        89.0581 
 460   0.0000       3.279900        89.2506 
 461   0.0000       3.285573        89.4050 
 462   0.0000       3.295446        89.6736 
 463   0.0000       3.301823        89.8472 
 464   0.0000       3.306405        89.9718 
 465   0.0000       3.311562        90.1122 
 466   0.0000       3.316557        90.2481 
 467   0.0000       3.327187        90.5374 
 468   0.0000       3.329477        90.5997 
 469   0.0000       3.336374        90.7874 
 470   0.0000       3.346074        91.0513 
 471   0.0000       3.355446        91.3063 
 472   0.0000       3.361531        91.4719 
 473   0.0000       3.366299        91.6016 
 474   0.0000       3.366413        91.6048 
 475   0.0000       3.369658        91.6931 
 476   0.0000       3.375914        91.8633 
 477   0.0000       3.382980        92.0556 
 478   0.0000       3.386133        92.1414 
 479   0.0000       3.389510        92.2333 
 480   0.0000       3.393471        92.3410 
 481   0.0000       3.399695        92.5104 
 482   0.0000       3.404876        92.6514 
 483   0.0000       3.412880        92.8692 
 484   0.0000       3.418794        93.0301 
 485   0.0000       3.426143        93.2301 
 486   0.0000       3.437126        93.5290 
 487   0.0000       3.443228        93.6950 
 488   0.0000       3.446569        93.7859 
 489   0.0000       3.448991        93.8518 
 490   0.0000       3.452863        93.9572 
 491   0.0000       3.460732        94.1713 
 492   0.0000       3.466105        94.3175 
 493   0.0000       3.471946        94.4765 
 494   0.0000       3.480053        94.6971 
 495   0.0000       3.484835        94.8272 
 496   0.0000       3.493315        95.0579 
 497   0.0000       3.498140        95.1892 
 498   0.0000       3.504767        95.3696 
 499   0.0000       3.513650        95.6113 
 500   0.0000       3.521473        95.8242 
 501   0.0000       3.527444        95.9866 
 502   0.0000       3.532791        96.1321 
 503   0.0000       3.538876        96.2977 
 504   0.0000       3.545708        96.4836 
 505   0.0000       3.563607        96.9707 
 506   0.0000       3.568239        97.0967 
 507   0.0000       3.577385        97.3456 
 508   0.0000       3.587009        97.6075 
 509   0.0000       3.590320        97.6976 
 510   0.0000       3.595604        97.8414 
 511   0.0000       3.603170        98.0472 
 512   0.0000       3.610534        98.2476 
 513   0.0000       3.612210        98.2932 
 514   0.0000       3.625871        98.6650 
 515   0.0000       3.631736        98.8246 
 516   0.0000       3.636165        98.9451 
 517   0.0000       3.643561        99.1463 
 518   0.0000       3.648646        99.2847 
 519   0.0000       3.655012        99.4579 
 520   0.0000       3.661243        99.6275 
 521   0.0000       3.665494        99.7432 
 522   0.0000       3.670650        99.8835 
 523   0.0000       3.679707       100.1299 
 524   0.0000       3.687374       100.3385 
 525   0.0000       3.692177       100.4692 
 526   0.0000       3.700946       100.7079 
 527   0.0000       3.707135       100.8763 
 528   0.0000       3.712314       101.0172 
 529   0.0000       3.718935       101.1974 
 530   0.0000       3.726397       101.4004 
 531   0.0000       3.730103       101.5013 
 532   0.0000       3.737139       101.6927 
 533   0.0000       3.750344       102.0520 
 534   0.0000       3.755923       102.2038 
 535   0.0000       3.758020       102.2609 
 536   0.0000       3.767030       102.5061 
 537   0.0000       3.770144       102.5908 
 538   0.0000       3.773656       102.6864 
 539   0.0000       3.780971       102.8854 
 540   0.0000       3.793811       103.2348 
 541   0.0000       3.798102       103.3516 
 542   0.0000       3.806662       103.5845 
 543   0.0000       3.810373       103.6855 
 544   0.0000       3.825960       104.1097 
 545   0.0000       3.827404       104.1489 
 546   0.0000       3.838371       104.4474 
 547   0.0000       3.840619       104.5085 
 548   0.0000       3.849611       104.7532 
 549   0.0000       3.859311       105.0172 
 550   0.0000       3.861327       105.0720 
 551   0.0000       3.874534       105.4314 
 552   0.0000       3.882463       105.6472 
 553   0.0000       3.886598       105.7597 
 554   0.0000       3.898065       106.0718 
 555   0.0000       3.901708       106.1709 
 556   0.0000       3.908902       106.3666 
 557   0.0000       3.917590       106.6030 
 558   0.0000       3.922709       106.7423 
 559   0.0000       3.939894       107.2100 
 560   0.0000       3.943660       107.3124 
 561   0.0000       3.950472       107.4978 
 562   0.0000       3.964674       107.8843 
 563   0.0000       3.973879       108.1348 
 564   0.0000       3.985322       108.4461 
 565   0.0000       3.993160       108.6594 
 566   0.0000       3.999552       108.8334 
 567   0.0000       4.010846       109.1407 
 568   0.0000       4.022647       109.4618 
 569   0.0000       4.026162       109.5574 
 570   0.0000       4.028984       109.6342 
 571   0.0000       4.036965       109.8514 
 572   0.0000       4.044913       110.0677 
 573   0.0000       4.063260       110.5669 
 574   0.0000       4.066255       110.6484 
 575   0.0000       4.070208       110.7560 
 576   0.0000       4.084621       111.1482 
 577   0.0000       4.092891       111.3732 
 578   0.0000       4.101989       111.6208 
 579   0.0000       4.108762       111.8051 
 580   0.0000       4.118152       112.0606 
 581   0.0000       4.122345       112.1747 
 582   0.0000       4.127559       112.3166 
 583   0.0000       4.142666       112.7277 
 584   0.0000       4.148689       112.8916 
 585   0.0000       4.152127       112.9851 
 586   0.0000       4.159234       113.1785 
 587   0.0000       4.169049       113.4456 
 588   0.0000       4.175220       113.6135 
 589   0.0000       4.179842       113.7393 
 590   0.0000       4.182801       113.8198 
 591   0.0000       4.189103       113.9913 
 592   0.0000       4.199834       114.2833 
 593   0.0000       4.209772       114.5537 
 594   0.0000       4.215793       114.7176 
 595   0.0000       4.225327       114.9770 
 596   0.0000       4.236271       115.2748 
 597   0.0000       4.241867       115.4271 
 598   0.0000       4.252400       115.7137 
 599   0.0000       4.258088       115.8685 
 600   0.0000       4.267699       116.1300 
 601   0.0000       4.273087       116.2766 
 602   0.0000       4.281571       116.5075 
 603   0.0000       4.291871       116.7877 
 604   0.0000       4.299510       116.9956 
 605   0.0000       4.310926       117.3063 
 606   0.0000       4.317390       117.4822 
 607   0.0000       4.322458       117.6201 
 608   0.0000       4.331672       117.8708 
 609   0.0000       4.337177       118.0206 
 610   0.0000       4.340909       118.1222 
 611   0.0000       4.357991       118.5870 
 612   0.0000       4.363784       118.7446 
 613   0.0000       4.372083       118.9704 
 614   0.0000       4.377020       119.1048 
 615   0.0000       4.386692       119.3680 
 616   0.0000       4.395371       119.6041 
 617   0.0000       4.409989       120.0019 
 618   0.0000       4.414599       120.1274 
 619   0.0000       4.418726       120.2397 
 620   0.0000       4.422711       120.3481 
 621   0.0000       4.436966       120.7360 
 622   0.0000       4.442431       120.8847 
 623   0.0000       4.448805       121.0581 
 624   0.0000       4.455165       121.2312 
 625   0.0000       4.467668       121.5714 
 626   0.0000       4.475986       121.7978 
 627   0.0000       4.481041       121.9353 
 628   0.0000       4.497228       122.3758 
 629   0.0000       4.504713       122.5795 
 630   0.0000       4.515092       122.8619 
 631   0.0000       4.517815       122.9360 
 632   0.0000       4.529325       123.2492 
 633   0.0000       4.533417       123.3606 
 634   0.0000       4.544619       123.6654 
 635   0.0000       4.545231       123.6820 
 636   0.0000       4.562683       124.1569 
 637   0.0000       4.566562       124.2625 
 638   0.0000       4.567559       124.2896 
 639   0.0000       4.583879       124.7337 
 640   0.0000       4.590959       124.9263 
 641   0.0000       4.596346       125.0729 
 642   0.0000       4.607984       125.3896 
 643   0.0000       4.618570       125.6777 
 644   0.0000       4.624812       125.8475 
 645   0.0000       4.636648       126.1696 
 646   0.0000       4.643279       126.3500 
 647   0.0000       4.647687       126.4700 
 648   0.0000       4.653734       126.6345 
 649   0.0000       4.661490       126.8456 
 650   0.0000       4.668802       127.0446 
 651   0.0000       4.673356       127.1685 
 652   0.0000       4.683467       127.4436 
 653   0.0000       4.689435       127.6060 
 654   0.0000       4.697271       127.8192 
 655   0.0000       4.703598       127.9914 
 656   0.0000       4.710144       128.1695 
 657   0.0000       4.731627       128.7541 
 658   0.0000       4.750096       129.2567 
 659   0.0000       4.755909       129.4149 
 660   0.0000       4.760237       129.5326 
 661   0.0000       4.769723       129.7908 
 662   0.0000       4.794207       130.4570 
 663   0.0000       4.811166       130.9185 
 664   0.0000       4.818699       131.1235 
 665   0.0000       4.831558       131.4734 
 666   0.0000       4.852545       132.0445 
 667   0.0000       4.862149       132.3058 
 668   0.0000       4.892017       133.1185 
 669   0.0000       4.896853       133.2501 
 670   0.0000       4.905855       133.4951 
 671   0.0000       4.917178       133.8032 
 672   0.0000       4.931704       134.1985 
 673   0.0000       4.961303       135.0039 
 674   0.0000       4.972544       135.3098 
 675   0.0000       4.994268       135.9009 
 676   0.0000       5.014605       136.4543 
 677   0.0000       5.018210       136.5524 
 678   0.0000       5.036873       137.0603 
 679   0.0000       5.044131       137.2578 
 680   0.0000       5.052182       137.4768 
 681   0.0000       5.054822       137.5487 
 682   0.0000       5.079250       138.2134 
 683   0.0000       5.088600       138.4678 
 684   0.0000       5.100852       138.8012 
 685   0.0000       5.118647       139.2855 
 686   0.0000       5.124277       139.4387 
 687   0.0000       5.135819       139.7527 
 688   0.0000       5.149896       140.1358 
 689   0.0000       5.161965       140.4642 
 690   0.0000       5.171288       140.7179 
 691   0.0000       5.182708       141.0287 
 692   0.0000       5.194778       141.3571 
 693   0.0000       5.199916       141.4969 
 694   0.0000       5.206444       141.6745 
 695   0.0000       5.226545       142.2215 
 696   0.0000       5.230279       142.3231 
 697   0.0000       5.232768       142.3909 
 698   0.0000       5.248430       142.8170 
 699   0.0000       5.267240       143.3289 
 700   0.0000       5.270633       143.4212 
 701   0.0000       5.285109       143.8151 
 702   0.0000       5.286273       143.8468 
 703   0.0000       5.304219       144.3351 
 704   0.0000       5.329784       145.0308 
 705   0.0000       5.331850       145.0870 
 706   0.0000       5.340917       145.3338 
 707   0.0000       5.351412       145.6193 
 708   0.0000       5.366537       146.0309 
 709   0.0000       5.385394       146.5440 
 710   0.0000       5.392088       146.7262 
 711   0.0000       5.395987       146.8323 
 712   0.0000       5.439633       148.0199 
 713   0.0000       5.468136       148.7955 
 714   0.0000       5.472124       148.9041 
 715   0.0000       5.487690       149.3276 
 716   0.0000       5.494735       149.5193 
 717   0.0000       5.504698       149.7905 
 718   0.0000       5.514369       150.0536 
 719   0.0000       5.528887       150.4487 
 720   0.0000       5.535315       150.6236 
 721   0.0000       5.552390       151.0882 
 722   0.0000       5.556428       151.1981 
 723   0.0000       5.566284       151.4663 
 724   0.0000       5.578214       151.7909 
 725   0.0000       5.595337       152.2569 
 726   0.0000       5.618363       152.8834 
 727   0.0000       5.628294       153.1537 
 728   0.0000       5.634201       153.3144 
 729   0.0000       5.646316       153.6441 
 730   0.0000       5.662361       154.0807 
 731   0.0000       5.671787       154.3372 
 732   0.0000       5.676198       154.4572 
 733   0.0000       5.685827       154.7192 
 734   0.0000       5.696975       155.0226 
 735   0.0000       5.716895       155.5646 
 736   0.0000       5.723183       155.7357 
 737   0.0000       5.741791       156.2421 
 738   0.0000       5.751339       156.5019 
 739   0.0000       5.755230       156.6078 
 740   0.0000       5.760584       156.7535 
 741   0.0000       5.777904       157.2247 
 742   0.0000       5.796321       157.7259 
 743   0.0000       5.811116       158.1285 
 744   0.0000       5.816805       158.2833 
 745   0.0000       5.842971       158.9953 
 746   0.0000       5.866072       159.6239 
 747   0.0000       5.873104       159.8153 
 748   0.0000       5.888211       160.2264 
 749   0.0000       5.906079       160.7126 
 750   0.0000       5.942540       161.7047 
 751   0.0000       5.963285       162.2692 
 752   0.0000       5.974766       162.5816 
 753   0.0000       6.000763       163.2891 
 754   0.0000       6.003649       163.3676 
 755   0.0000       6.030457       164.0971 
 756   0.0000       6.047857       164.5706 
 757   0.0000       6.052885       164.7074 
 758   0.0000       6.057857       164.8427 
 759   0.0000       6.079571       165.4335 
 760   0.0000       6.091895       165.7689 
 761   0.0000       6.164926       167.7562 
 762   0.0000       6.232288       169.5892 
 763   0.0000       6.234760       169.6564 
 764   0.0000       6.288268       171.1125 
 765   0.0000       6.298748       171.3977 
 766   0.0000       6.329434       172.2327 
 767   0.0000       6.349351       172.7746 
 768   0.0000       6.356688       172.9743 
 769   0.0000       6.388111       173.8293 
 770   0.0000       6.393506       173.9762 
 771   0.0000       6.401347       174.1895 
 772   0.0000       6.406782       174.3374 
 773   0.0000       6.446611       175.4212 
 774   0.0000       6.457525       175.7182 
 775   0.0000       6.504913       177.0077 
 776   0.0000       6.538784       177.9294 
 777   0.0000       6.550862       178.2580 
 778   0.0000       6.557360       178.4348 
 779   0.0000       6.617422       180.0692 
 780   0.0000       6.649350       180.9380 
 781   0.0000       6.688378       182.0000 
 782   0.0000       6.734300       183.2496 
 783   0.0000       6.775360       184.3669 
 784   0.0000       6.813620       185.4080 
 785   0.0000       6.866083       186.8356 
 786   0.0000       6.910853       188.0539 
 787   0.0000       6.922098       188.3599 
 788   0.0000       6.959983       189.3908 
 789   0.0000       6.980439       189.9474 
 790   0.0000       7.055756       191.9969 
 791   0.0000       7.073105       192.4690 
 792   0.0000       7.084219       192.7714 
 793   0.0000       7.138825       194.2573 
 794   0.0000       7.183625       195.4764 
 795   0.0000       7.226090       196.6319 
 796   0.0000       7.261446       197.5940 
 797   0.0000       7.283354       198.1901 
 798   0.0000       7.320680       199.2058 
 799   0.0000       7.348710       199.9686 
 800   0.0000       7.392082       201.1488 
 801   0.0000       7.495990       203.9763 
 802   0.0000       7.556337       205.6184 
 803   0.0000       7.587399       206.4636 
 804   0.0000       7.590131       206.5380 
 805   0.0000       7.773655       211.5319 
 806   0.0000       7.825732       212.9490 
 807   0.0000       7.935619       215.9392 
 808   0.0000       8.010215       217.9690 
 809   0.0000       9.478325       257.9183 
 810   0.0000       9.638977       262.2899 
 811   0.0000      10.784125       293.4510 
 812   0.0000      11.206165       304.9352 
 813   0.0000      11.931939       324.6846 
 814   0.0000      12.559206       341.7534 
 815   0.0000      12.928521       351.8029 
 816   0.0000      13.037424       354.7663 
 817   0.0000      13.166590       358.2811 
 818   0.0000      13.304495       362.0337 
 819   0.0000      13.439859       365.7172 
 820   0.0000      13.499864       367.3500 
 821   0.0000      13.852091       376.9346 
 822   0.0000      13.975345       380.2885 
 823   0.0000      14.042183       382.1072 
 824   0.0000      14.191503       386.1704 
 825   0.0000      14.557030       396.1169 
 826   0.0000      14.745570       401.2473 
 827   0.0000      15.997794       435.3221 

                    ********************************
                    * MULLIKEN POPULATION ANALYSIS *
                    ********************************

-----------------------
MULLIKEN ATOMIC CHARGES
-----------------------
   0 C :   -0.297744
   1 C :   -0.003889
   2 O :   -0.311183
   3 C :    0.387800
   4 O :   -0.364750
   5 C :   -0.163523
   6 C :    0.128868
   7 C :   -0.332503
   8 N :   -0.136203
   9 C :    0.209396
  10 S :   -0.444763
  11 N :   -0.229813
  12 C :    0.081070
  13 C :    0.050044
  14 C :   -0.203443
  15 C :   -0.133386
  16 C :   -0.280920
  17 C :    0.322077
  18 O :   -0.359639
  19 C :   -0.290366
  20 H :    0.119462
  21 H :    0.109127
  22 H :    0.102726
  23 H :    0.128272
  24 H :    0.087949
  25 H :    0.118329
  26 H :    0.136386
  27 H :    0.123091
  28 H :    0.194770
  29 H :    0.203004
  30 H :    0.169039
  31 H :    0.165941
  32 H :    0.162503
  33 H :    0.131487
  34 H :    0.240911
  35 H :    0.179872
Sum of atomic charges:    0.0000000

--------------------------------
MULLIKEN REDUCED ORBITAL CHARGES
--------------------------------
  0 C s       :     3.259445  s :     3.259445
      pz      :     0.935982  p :     2.959885
      px      :     0.994067
      py      :     1.029835
      dz2     :     0.012532  d :     0.073899
      dxz     :     0.012130
      dyz     :     0.025580
      dx2y2   :     0.019353
      dxy     :     0.004302
      f0      :     0.000457  f :     0.004516
      f+1     :     0.001212
      f-1     :     0.000487
      f+2     :     0.001233
      f-2     :     0.000322
      f+3     :     0.000730
      f-3     :     0.000074
  1 C s       :     3.174630  s :     3.174630
      pz      :     0.972910  p :     2.657527
      px      :     0.682054
      py      :     1.002563
      dz2     :     0.020085  d :     0.160123
      dxz     :     0.040901
      dyz     :     0.032799
      dx2y2   :     0.036865
      dxy     :     0.029473
      f0      :     0.001695  f :     0.011609
      f+1     :     0.002100
      f-1     :     0.000650
      f+2     :     0.002235
      f-2     :     0.001013
      f+3     :     0.002026
      f-3     :     0.001891
  2 O s       :     3.733323  s :     3.733323
      pz      :     1.762057  p :     4.540741
      px      :     1.192101
      py      :     1.586583
      dz2     :     0.003913  d :     0.034814
      dxz     :     0.005474
      dyz     :     0.003958
      dx2y2   :     0.005715
      dxy     :     0.015754
      f0      :     0.000270  f :     0.002305
      f+1     :     0.000475
      f-1     :     0.000162
      f+2     :     0.000141
      f-2     :     0.000217
[...]
 15 C s       :     2.705348  s :     2.705348
      pz      :     0.894807  p :     2.793747
      px      :     0.926020
      py      :     0.972921
      dz2     :     0.092166  d :     0.416184
      dxz     :     0.065188
      dyz     :     0.061088
      dx2y2   :     0.106159
      dxy     :     0.091583
      f0      :     0.003057  f :     0.041108
      f+1     :     0.005020
      f-1     :     0.006278
      f+2     :     0.006484
      f-2     :     0.006964
      f+3     :     0.006397
      f-3     :     0.006909
 16 C s       :     2.701607  s :     2.701607
      pz      :     0.938887  p :     2.868977
      px      :     0.959169
      py      :     0.970922
      dz2     :     0.047024  d :     0.391501
      dxz     :     0.053560
      dyz     :     0.090402
      dx2y2   :     0.091903
      dxy     :     0.108612
      f0      :     0.004894  f :     0.040408
      f+1     :     0.004533
      f-1     :     0.003253
      f+2     :     0.005766
      f-2     :     0.006224
      f+3     :     0.007940
      f-3     :     0.007799
 17 C s       :     2.701334  s :     2.701334
      pz      :     0.831022  p :     2.684197
      px      :     0.818322
      py      :     1.034853
      dz2     :     0.127913  d :     0.708970
      dxz     :     0.109663
      dyz     :     0.140594
      dx2y2   :     0.165666
      dxy     :     0.165133
      f0      :     0.010101  f :     0.099351
      f+1     :     0.016041
      f-1     :     0.009320
      f+2     :     0.014725
      f-2     :     0.016426
      f+3     :     0.014538
      f-3     :     0.018199
 18 O s       :     3.177102  s :     3.177102
      pz      :     1.448330  p :     4.347153
      px      :     1.426396
      py      :     1.472427
      dz2     :     0.009204  d :     0.075636
      dxz     :     0.017868
      dyz     :     0.016465
      dx2y2   :     0.017593
      dxy     :     0.014506
      f0      :     0.000594  f :     0.005077
      f+1     :     0.000809
      f-1     :     0.000308
      f+2     :     0.000863
      f-2     :     0.000909
      f+3     :     0.000700
      f-3     :     0.000894
 19 C s       :     2.695987  s :     2.695987
      pz      :     0.930969  p :     2.845747
      px      :     0.945162
      py      :     0.969615
      dz2     :     0.074415  d :     0.388441
      dxz     :     0.062610
      dyz     :     0.063931
      dx2y2   :     0.093233
      dxy     :     0.094251
      f0      :     0.003182  f :     0.040718
      f+1     :     0.005047
      f-1     :     0.005708
      f+2     :     0.006596
      f-2     :     0.007430
      f+3     :     0.006509
      f-3     :     0.006246
 20 H s       :     0.840557  s :     0.840557
      pz      :     0.051962  p :     0.150472
      px      :     0.038259
      py      :     0.060252
      dz2     :     0.006445  d :     0.027692
      dxz     :     0.003464
      dyz     :     0.007121
      dx2y2   :     0.005466
      dxy     :     0.005196
 21 H s       :     0.847853  s :     0.847853
      pz      :     0.039389  p :     0.151846
      px      :     0.071369
      py      :     0.041087
      dz2     :     0.002416  d :     0.027462
      dxz     :     0.008686
      dyz     :     0.000584
      dx2y2   :     0.006827
      dxy     :     0.008949
 22 H s       :     0.848820  s :     0.848820
      pz      :     0.048993  p :     0.157294
      px      :     0.044351
      py      :     0.063950
      dz2     :     0.005000  d :     0.028023
      dxz     :     0.002824
      dyz     :     0.007300
      dx2y2   :     0.007095
      dxy     :     0.005804
 23 H s       :     0.850509  s :     0.850509
      pz      :     0.051326  p :     0.144691
      px      :     0.034147
      py      :     0.059217
      dz2     :     0.005681  d :     0.027082
      dxz     :     0.003443
      dyz     :     0.006788
      dx2y2   :     0.005538
      dxy     :     0.005633
 24 H s       :     0.859525  s :     0.859525
      pz      :     0.055195  p :     0.152345
      px      :     0.026774
      py      :     0.070377
      dz2     :     0.006672  d :     0.027441
      dxz     :     0.002358
      dyz     :     0.008109
      dx2y2   :     0.005692
      dxy     :     0.004611
 25 H s       :     0.835378  s :     0.835378
      pz      :     0.051986  p :     0.149160
      px      :     0.041672
      py      :     0.055502
      dz2     :     0.007209  d :     0.027626
      dxz     :     0.004274
      dyz     :     0.006448
      dx2y2   :     0.005272
      dxy     :     0.004422
 26 H s       :     0.832073  s :     0.832073
      pz      :     0.039665  p :     0.149999
      px      :     0.044253
      py      :     0.066081
      dz2     :     0.003572  d :     0.027633
      dxz     :     0.001834
      dyz     :     0.007581
      dx2y2   :     0.007945
      dxy     :     0.006700
 27 H s       :     0.837339  s :     0.837339
      pz      :     0.037442  p :     0.152693
      px      :     0.074519
      py      :     0.040732
      dz2     :     0.002400  d :     0.027678
      dxz     :     0.008690
      dyz     :     0.000152
      dx2y2   :     0.006825
      dxy     :     0.009611
 28 H s       :     0.743586  s :     0.743586
      pz      :     0.054509  p :     0.254081
      px      :     0.094156
      py      :     0.105416
      dz2     :     0.007458  d :     0.061720
      dxz     :     0.004269
      dyz     :     0.014855
      dx2y2   :     0.017530
      dxy     :     0.017607
 29 H s       :     0.747366  s :     0.747366
      pz      :     0.118676  p :     0.254704
      px      :     0.090787
      py      :     0.045241
      dz2     :     0.022291  d :     0.061473
      dxz     :     0.018843
      dyz     :     0.013268
      dx2y2   :     0.004178
      dxy     :     0.002893
 30 H s       :     0.823743  s :     0.823743
      pz      :     0.036745  p :     0.149590
      px      :     0.077641
      py      :     0.035204
      dz2     :     0.002715  d :     0.028536
      dxz     :     0.008451
      dyz     :     0.001218
      dx2y2   :     0.008360
      dxy     :     0.007792
 31 H s       :     0.837773  s :     0.837773
      pz      :     0.058171  p :     0.157336
      px      :     0.064981
      py      :     0.034184
      dz2     :     0.005783  d :     0.027406
      dxz     :     0.007164
      dyz     :     0.003618
      dx2y2   :     0.005251
      dxy     :     0.005591
 32 H s       :     0.841774  s :     0.841774
      pz      :     0.036852  p :     0.150921
      px      :     0.040265
      py      :     0.073804
      dz2     :     0.002624  d :     0.026440
      dxz     :     0.000936
      dyz     :     0.007033
      dx2y2   :     0.007939
      dxy     :     0.007908
 33 H s       :     0.848675  s :     0.848675
      pz      :     0.054564  p :     0.158984
      px      :     0.047574
      py      :     0.056846
      dz2     :     0.005407  d :     0.027754
      dxz     :     0.003963
      dyz     :     0.006284
      dx2y2   :     0.006288
      dxy     :     0.005813
 34 H s       :     0.706549  s :     0.706549
      pz      :     0.104831  p :     0.347738
      px      :     0.085253
      py      :     0.157655
      dz2     :     0.019557  d :     0.099564
      dxz     :     0.008774
      dyz     :     0.025482
      dx2y2   :     0.022933
      dxy     :     0.022818
 35 H s       :     0.837658  s :     0.837658
      pz      :     0.041250  p :     0.160101
      px      :     0.043108
      py      :     0.075743
      dz2     :     0.002614  d :     0.028149
      dxz     :     0.001149
      dyz     :     0.007691
      dx2y2   :     0.008186
      dxy     :     0.008509


                      *****************************
                      * MAYER POPULATION ANALYSIS *
                      *****************************

  NA   - Mulliken gross atomic population
  ZA   - Total nuclear charge
  QA   - Mulliken gross atomic charge
  VA   - Mayer's total valence
  BVA  - Mayer's bonded valence
  FA   - Mayer's free valence

  ATOM       NA         ZA         QA         VA         BVA        FA
  0 C      6.2977     6.0000    -0.2977     3.8546     3.8546     0.0000
  1 C      6.0039     6.0000    -0.0039     3.8996     3.8996     0.0000
  2 O      8.3112     8.0000    -0.3112     2.0190     2.0190    -0.0000
  3 C      5.6122     6.0000     0.3878     4.1965     4.1965    -0.0000
  4 O      8.3647     8.0000    -0.3647     2.1344     2.1344     0.0000
  5 C      6.1635     6.0000    -0.1635     3.6052     3.6052    -0.0000
  6 C      5.8711     6.0000     0.1289     3.7813     3.7813    -0.0000
  7 C      6.3325     6.0000    -0.3325     3.8786     3.8786    -0.0000
  8 N      7.1362     7.0000    -0.1362     3.2549     3.2549     0.0000
  9 C      5.7906     6.0000     0.2094     4.1419     4.1419     0.0000
 10 S     16.4448    16.0000    -0.4448     1.7451     1.7451     0.0000
 11 N      7.2298     7.0000    -0.2298     3.2486     3.2486    -0.0000
 12 C      5.9189     6.0000     0.0811     3.9412     3.9412    -0.0000
 13 C      5.9500     6.0000     0.0500     3.7059     3.7059     0.0000
 14 C      6.2034     6.0000    -0.2034     3.8832     3.8832     0.0000
 15 C      6.1334     6.0000    -0.1334     3.8130     3.8130     0.0000
 16 C      6.2809     6.0000    -0.2809     3.7905     3.7905     0.0000
 17 C      5.6779     6.0000     0.3221     3.8560     3.8560     0.0000
 18 O      8.3596     8.0000    -0.3596     2.1150     2.1150     0.0000
 19 C      6.2904     6.0000    -0.2904     3.8199     3.8199     0.0000
 20 H      0.8805     1.0000     0.1195     0.9795     0.9795     0.0000
 21 H      0.8909     1.0000     0.1091     0.9822     0.9822    -0.0000
 22 H      0.8973     1.0000     0.1027     0.9766     0.9766     0.0000
 23 H      0.8717     1.0000     0.1283     0.9744     0.9744     0.0000
 24 H      0.9121     1.0000     0.0879     0.9654     0.9654    -0.0000
 25 H      0.8817     1.0000     0.1183     0.9817     0.9817     0.0000
 26 H      0.8636     1.0000     0.1364     0.9796     0.9796     0.0000
 27 H      0.8769     1.0000     0.1231     0.9665     0.9665     0.0000
 28 H      0.8052     1.0000     0.1948     1.0232     1.0232     0.0000
 29 H      0.7970     1.0000     0.2030     1.0128     1.0128     0.0000
 30 H      0.8310     1.0000     0.1690     0.9873     0.9873    -0.0000
 31 H      0.8341     1.0000     0.1659     0.9893     0.9893    -0.0000
 32 H      0.8375     1.0000     0.1625     0.9772     0.9772     0.0000
 33 H      0.8685     1.0000     0.1315     0.9911     0.9911    -0.0000
 34 H      0.7591     1.0000     0.2409     1.0105     1.0105    -0.0000
 35 H      0.8201     1.0000     0.1799     0.9859     0.9859     0.0000

  Mayer bond orders larger than 0.100000
B(  0-C ,  1-C ) :   0.9638 B(  0-C , 20-H ) :   0.9709 B(  0-C , 21-H ) :   0.9771 
B(  0-C , 22-H ) :   0.9717 B(  1-C ,  2-O ) :   0.9141 B(  1-C , 23-H ) :   0.9858 
B(  1-C , 24-H ) :   0.9766 B(  2-O ,  3-C ) :   1.1116 B(  3-C ,  4-O ) :   2.0929 
B(  3-C ,  5-C ) :   0.9218 B(  5-C ,  6-C ) :   1.7188 B(  5-C , 12-C ) :   0.9530 
B(  6-C ,  7-C ) :   0.9372 B(  6-C ,  8-N ) :   1.1001 B(  7-C , 25-H ) :   0.9835 
B(  7-C , 26-H ) :   0.9725 B(  7-C , 27-H ) :   0.9671 B(  8-N ,  9-C ) :   1.2019 
B(  8-N , 28-H ) :   0.9541 B(  9-C , 10-S ) :   1.6041 B(  9-C , 11-N ) :   1.2851 
B( 11-N , 12-C ) :   0.9851 B( 11-N , 29-H ) :   0.9465 B( 12-C , 13-C ) :   0.9509 
B( 12-C , 30-H ) :   0.9965 B( 13-C , 14-C ) :   1.3842 B( 13-C , 19-C ) :   1.3346 
B( 14-C , 15-C ) :   1.4039 B( 14-C , 31-H ) :   0.9629 B( 15-C , 16-C ) :   1.3554 
B( 15-C , 32-H ) :   0.9704 B( 16-C , 17-C ) :   1.3335 B( 16-C , 33-H ) :   0.9852 
B( 17-C , 18-O ) :   1.1068 B( 17-C , 19-C ) :   1.3645 B( 18-O , 34-H ) :   0.9798 
B( 19-C , 35-H ) :   0.9566 

-------
TIMINGS
-------

Total SCF time: 0 days 2 hours 51 min 49 sec 

Total time                  ....   10309.305 sec
Sum of individual times     ....   10301.975 sec  ( 99.9%)

Fock matrix formation       ....   10274.732 sec  ( 99.7%)
Diagonalization             ....       2.054 sec  (  0.0%)
Density matrix formation    ....       0.220 sec  (  0.0%)
Population analysis         ....       0.228 sec  (  0.0%)
Initial guess               ....       5.657 sec  (  0.1%)
Orbital Transformation      ....       0.000 sec  (  0.0%)
Orbital Orthonormalization  ....       0.000 sec  (  0.0%)
DIIS solution               ....      15.795 sec  (  0.2%)
SOSCF solution              ....       1.878 sec  (  0.0%)

Maximum memory used throughout the entire SCF-calculation: 765.5 MB

------------------------------------------------------------------------------
                                ORCA  MP2 
------------------------------------------------------------------------------

Freezing NCore=48 chemical core electrons

-------------
RI-MP2 ENERGY
-------------
Dimension of the basis                    ...  828
Memory devoted to MP2                     ...  256 MB   
Data format for buffers                   ... DOUBLE
Compression type for matrix containers    ... UNCOMPRESSED
Overall scaling of the MP2 energy         ...   1.000e+00
Calculating two index integrals           ... done (    0.032 sec)
Cholesky decomposition of V**-1           ... done (    0.477 sec)

-----------------
RI-TRANSFORMATION (AUX index driven)
-----------------

Dimension of the orbital-basis         ... 828
Dimension of the aux-basis             ... 2141
Transformation of internal/external MOs...   24-  76 to   77- 827
Number Format for Storage              ... Double (8 Byte)
Integral mode                          ... Direct

First Phase: integral generation and transformation of MO indices
  Aux angular momentum 0               ... done (    4.333 sec)
  Aux angular momentum 1               ... done (    6.755 sec)
  Aux angular momentum 2               ... done (    8.145 sec)
  Aux angular momentum 3               ... done (    6.803 sec)
  Aux angular momentum 4               ... done (    2.288 sec)
Closing buffer VIA ( 0.63 GB; CompressionRatio= 1.00)
  Phase 1 completed in    28.531 sec
Second Phase: sorting and transformation of aux index

IA-Transformation
Memory available                       ... 156 MB 
Max. # MO pairs treated in a batch     ... 11    
# of internal orbitals                 ... 53
# batches for internal orbitals        ... 5
Closing buffer IAV ( 0.63 GB; CompressionRatio= 1.00)
(ia|v) transformation done in    24.340 sec

  Phase 2 completed in    24.349 sec
RI-Integral transformation completed in    52.885 sec
Opening buffers                              ... done

Starting loop over batches of integrals:

Operator 0  - window                       ... ( 24- 76)x( 77-827)
Operator 0  - Memory available             ...   256 MB
Operator 0  - Memory needed per MO         ...  12.3 MB
Operator 0  - Number of orbitals per batch ... 13
Operator 0  - Number of batches            ... 5

OPERATOR  0   PASS   0:  MOs    24 ...   36
  Reading integrals       ... ok
  Internal MO  26
  Internal MO  29
  Internal MO  32
  Internal MO  35
OPERATOR  0   PASS   1:  MOs    37 ...   49
  Reading integrals       ... ok
  Internal MO  38
  Internal MO  41
  Internal MO  44
  Internal MO  47
OPERATOR  0   PASS   2:  MOs    50 ...   62
  Reading integrals       ... ok
  Internal MO  50
  Internal MO  53
  Internal MO  56
  Internal MO  59
  Internal MO  62
OPERATOR  0   PASS   3:  MOs    63 ...   75
  Reading integrals       ... ok
  Internal MO  65
  Internal MO  68
  Internal MO  71
  Internal MO  74
OPERATOR  0   PASS   4:  MOs    76 ...   76
  Reading integrals       ... ok
Time spent in pair loops =    99.528 sec
Deleting buffer (Ka|jb)[aa] ...done

-----------------------------------------------
 RI-MP2 CORRELATION ENERGY:     -3.544380126 Eh
-----------------------------------------------


-------
TIMINGS
-------

Total time                :  153.018 sec
Integral trafo            :   52.896 sec ( 34.6%)
I/O of integrals          :    2.287 sec (  1.5%)
K(i,j) Operators          :   77.437 sec ( 50.6%)
T(i,j) pair energies      :    2.785 sec (  1.8%)
V-calculation             :    0.032 sec (  0.0%)
V**(-1/2)                 :    0.477 sec (  0.3%)
Gamma(ia|P)               :    0.000 sec (  0.0%)
Gamma-Trafo               :    0.000 sec (  0.0%)
D(virtual)                :    0.000 sec (  0.0%)
D(internal)               :    0.000 sec (  0.0%)
W(virtual)                :    0.000 sec (  0.0%)
W(internal)               :    0.000 sec (  0.0%)
L(virtual)                :    0.000 sec (  0.0%)
L(internal)               :    0.000 sec (  0.0%)
G(D)                      :    0.000 sec (  0.0%)
G(Z)                      :    0.000 sec (  0.0%)
Z-Vector Solution         :    0.000 sec (  0.0%)
3-Index Derivative        :    0.000 sec (  0.0%)
2-Index Derivative        :    0.000 sec (  0.0%)
Separable Gradient        :    0.000 sec (  0.0%)


---------------------------------------
MP2 TOTAL ENERGY:    -1274.316181593 Eh
---------------------------------------

Maximum memory used throughout the entire MP2-calculation: 306.4 MB

-------------------------   --------------------
FINAL SINGLE POINT ENERGY     -1274.316181592990
-------------------------   --------------------


                            ***************************************
                            *     ORCA property calculations      *
                            ***************************************


  WARNING: The energy has been calculated at the MP2 level but the densities
           used in the property calculations are still SCF densities
           MP2 response densities have not been calculated 
           use %mp2 Density relaxed end
           or  %mp2 Density unrelaxed end

                                    ---------------------
                                    Active property flags
                                    ---------------------
   (+) Dipole Moment


------------------------------------------------------------------------------
                       ORCA ELECTRIC PROPERTIES CALCULATION
------------------------------------------------------------------------------

Dipole Moment Calculation                       ... on
Quadrupole Moment Calculation                   ... off
Polarizability Calculation                      ... off
GBWName                                         ... CONFS/Conf207.orca.gbw
Electron density file                           ... CONFS/Conf207.orca.scfp
The origin for moment calculation is the CENTER OF MASS  = (32.745449, 31.324591 35.257188)

-------------
DIPOLE MOMENT
-------------
                                X             Y             Z
Electronic contribution:      9.37919       6.30528       6.36626
Nuclear contribution   :    -10.86102      -7.49287      -7.30307
                        -----------------------------------------
Total Dipole Moment    :     -1.48183      -1.18759      -0.93681
                        -----------------------------------------
Magnitude (a.u.)       :      2.11750
Magnitude (Debye)      :      5.38225



--------------------
Rotational spectrum 
--------------------
 
Rotational constants in cm-1:     0.012253     0.009447     0.006876 
Rotational constants in MHz :   367.322690   283.218230   206.139228 

 Dipole components along the rotational axes: 
x,y,z [a.u.] :    -1.137138    -1.199669     1.323443 
x,y,z [Debye]:    -2.890374    -3.049317     3.363925 

 

Timings for individual modules:

Sum of individual times         ...    10469.415 sec (= 174.490 min)
GTO integral calculation        ...        5.561 sec (=   0.093 min)   0.1 %
SCF iterations                  ...    10309.923 sec (= 171.832 min)  98.5 %
MP2 module                      ...      153.931 sec (=   2.566 min)   1.5 %
                             ****ORCA TERMINATED NORMALLY****
TOTAL RUN TIME: 0 days 2 hours 54 minutes 32 seconds 213 msec
