
                                        *****************
                                        * O   R   C   A *
                                        *****************

                                            #,                                       
                                            ###                                      
                                            ####                                     
                                            #####                                    
                                            ######                                   
                                           ########,                                 
                                     ,,################,,,,,                         
                               ,,#################################,,                 
                          ,,##########################################,,             
                       ,#########################################, ''#####,          
                    ,#############################################,,   '####,        
                  ,##################################################,,,,####,       
                ,###########''''           ''''###############################       
              ,#####''   ,,,,##########,,,,          '''####'''          '####       
            ,##' ,,,,###########################,,,                        '##       
           ' ,,###''''                  '''############,,,                           
         ,,##''                                '''############,,,,        ,,,,,,###''
      ,#''                                            '''#######################'''  
     '                                                          ''''####''''         
             ,#######,   #######,   ,#######,      ##                                
            ,#'     '#,  ##    ##  ,#'     '#,    #''#        ######   ,####,        
            ##       ##  ##   ,#'  ##            #'  '#       #        #'  '#        
            ##       ##  #######   ##           ,######,      #####,   #    #        
            '#,     ,#'  ##    ##  '#,     ,#' ,#      #,         ##   #,  ,#        
             '#######'   ##     ##  '#######'  #'      '#     #####' # '####'        



                  #######################################################
                  #                        -***-                        #
                  #          Department of theory and spectroscopy      #
                  #    Directorship and core code : Frank Neese         #
                  #        Max Planck Institute fuer Kohlenforschung    #
                  #                Kaiser Wilhelm Platz 1               #
                  #                 D-45470 Muelheim/Ruhr               #
                  #                      Germany                        #
                  #                                                     #
                  #                  All rights reserved                #
                  #                        -***-                        #
                  #######################################################


                         Program Version 5.0.0 -  RELEASE  -
                                (SVN: $Rev: 19529$)
                ($Date: 2021-06-28 11:36:33 +0200 (Mo, 28 Jun 2021) $)


 With contributions from (in alphabetic order):
   Daniel Aravena         : Magnetic Suceptibility
   Michael Atanasov       : Ab Initio Ligand Field Theory (pilot matlab implementation)
   Alexander A. Auer      : GIAO ZORA, VPT2 properties, NMR spectrum
   Ute Becker             : Parallelization
   Giovanni Bistoni       : ED, misc. LED, open-shell LED, HFLD
   Martin Brehm           : Molecular dynamics
   Dmytro Bykov           : SCF Hessian
   Vijay G. Chilkuri      : MRCI spin determinant printing, contributions to CSF-ICE
   Dipayan Datta          : RHF DLPNO-CCSD density
   Achintya Kumar Dutta   : EOM-CC, STEOM-CC
   Dmitry Ganyushin       : Spin-Orbit,Spin-Spin,Magnetic field MRCI
   Miquel Garcia          : C-PCM Hessian, Gaussian charge scheme
   Yang Guo               : DLPNO-NEVPT2, F12-NEVPT2, CIM, IAO-localization
   Andreas Hansen         : Spin unrestricted coupled pair/coupled cluster methods
   Benjamin Helmich-Paris : MC-RPA, TRAH-SCF, COSX integrals
   Lee Huntington         : MR-EOM, pCC
   Robert Izsak           : Overlap fitted RIJCOSX, COSX-SCS-MP3, EOM
   Marcus Kettner         : VPT2
   Christian Kollmar      : KDIIS, OOCD, Brueckner-CCSD(T), CCSD density, CASPT2, CASPT2-K
   Simone Kossmann        : Meta GGA functionals, TD-DFT gradient, OOMP2, MP2 Hessian
   Martin Krupicka        : Initial AUTO-CI
   Lucas Lang             : DCDCAS
   Marvin Lechner         : AUTO-CI (C++ implementation), FIC-MRCC
   Dagmar Lenk            : GEPOL surface, SMD
   Dimitrios Liakos       : Extrapolation schemes; Compound Job, initial MDCI parallelization
   Dimitrios Manganas     : Further ROCIS development; embedding schemes
   Dimitrios Pantazis     : SARC Basis sets
   Anastasios Papadopoulos: AUTO-CI, single reference methods and gradients
   Taras Petrenko         : DFT Hessian,TD-DFT gradient, ASA, ECA, R-Raman, ABS, FL, XAS/XES, NRVS
   Peter Pinski           : DLPNO-MP2, DLPNO-MP2 Gradient
   Christoph Reimann      : Effective Core Potentials
   Marius Retegan         : Local ZFS, SOC
   Christoph Riplinger    : Optimizer, TS searches, QM/MM, DLPNO-CCSD(T), (RO)-DLPNO pert. Triples
   Tobias Risthaus        : Range-separated hybrids, TD-DFT gradient, RPA, STAB
   Michael Roemelt        : Original ROCIS implementation
   Masaaki Saitow         : Open-shell DLPNO-CCSD energy and density
   Barbara Sandhoefer     : DKH picture change effects
   Avijit Sen             : IP-ROCIS
   Kantharuban Sivalingam : CASSCF convergence, NEVPT2, FIC-MRCI
   Bernardo de Souza      : ESD, SOC TD-DFT
   Georgi Stoychev        : AutoAux, RI-MP2 NMR
   Willem Van den Heuvel  : Paramagnetic NMR
   Boris Wezisla          : Elementary symmetry handling
   Frank Wennmohs         : Technical directorship


 We gratefully acknowledge several colleagues who have allowed us to
 interface, adapt or use parts of their codes:
   Stefan Grimme, W. Hujo, H. Kruse, P. Pracht,  : VdW corrections, initial TS optimization,
                  C. Bannwarth, S. Ehlert          DFT functionals, gCP, sTDA/sTD-DF
   Ed Valeev, F. Pavosevic, A. Kumar             : LibInt (2-el integral package), F12 methods
   Garnet Chan, S. Sharma, J. Yang, R. Olivares  : DMRG
   Ulf Ekstrom                                   : XCFun DFT Library
   Mihaly Kallay                                 : mrcc  (arbitrary order and MRCC methods)
   Jiri Pittner, Ondrej Demel                    : Mk-CCSD
   Frank Weinhold                                : gennbo (NPA and NBO analysis)
   Christopher J. Cramer and Donald G. Truhlar   : smd solvation model
   Lars Goerigk                                  : TD-DFT with DH, B97 family of functionals
   V. Asgeirsson, H. Jonsson                     : NEB implementation
   FAccTs GmbH                                   : IRC, NEB, NEB-TS, DLPNO-Multilevel, CI-OPT
                                                   MM, QMMM, 2- and 3-layer-ONIOM, Crystal-QMMM,
                                                   LR-CPCM, SF, NACMEs, symmetry and pop. for TD-DFT,
                                                   nearIR, NL-DFT gradient (VV10), updates on ESD,
                                                   ML-optimized integration grids
   S Lehtola, MJT Oliveira, MAL Marques          : LibXC Library
   Liviu Ungur et al                             : ANISO software


 Your calculation uses the libint2 library for the computation of 2-el integrals
 For citations please refer to: http://libint.valeyev.net

 Your ORCA version has been built with support for libXC version: 5.1.0
 For citations please refer to: https://tddft.org/programs/libxc/

 This ORCA versions uses:
   CBLAS   interface :  Fast vector & matrix operations
   LAPACKE interface :  Fast linear algebra routines
   SCALAPACK package :  Parallel linear algebra routines
   Shared memory     :  Shared parallel matrices
   BLAS/LAPACK       :  OpenBLAS 0.3.15  USE64BITINT DYNAMIC_ARCH NO_AFFINITY Zen SINGLE_THREADED
        Core in use  :  Zen
   Copyright (c) 2011-2014, The OpenBLAS Project


================================================================================

----- Orbital basis set information -----
Your calculation utilizes the basis: cc-pVTZ 
       H, B-Ne : Obtained from the ccRepo (grant-hill.group.shef.ac.uk/ccrepo) Feb. 2017
                 T. H. Dunning, Jr., J. Chem. Phys. 90, 1007 (1989)
            He : Obtained from the ccRepo (grant-hill.group.shef.ac.uk/ccrepo) Feb. 2017
                 D. E. Woon, T. H. Dunning, Jr., J. Chem. Phys. 100, 2975 (1994)
  Li-Be, Na-Mg : Obtained from the ccRepo (grant-hill.group.shef.ac.uk/ccrepo) Feb. 2017
                 B. P. Prascher, D. E. Woon, K. A. Peterson, T. H. Dunning, Jr., A. K. Wilson, Theor. Chem. Acc. 128, 69 (2011)
         Al-Ar : Obtained from the ccRepo (grant-hill.group.shef.ac.uk/ccrepo) Feb. 2017
                 D. E. Woon, T. H. Dunning, Jr., J. Chem. Phys. 98, 1358 (1993)
            Ca : Obtained from the Peterson Research Group Website (tyr0.chem.wsu.edu/~kipeters) Feb. 2017
                 J. Koput, K. A. Peterson, J. Phys. Chem. 106, 9595 (2002)
         Sc-Zn : Obtained from the ccRepo (grant-hill.group.shef.ac.uk/ccrepo) Feb. 2017
                 N. B. Balabanov, K. A. Peterson, J. Chem. Phys. 123, 064107 (2005)
                 N. B. Balabanov, K. A. Peterson, J. Chem. Phys. 125, 074110 (2006)
         Ga-Kr : Obtained from the ccRepo (grant-hill.group.shef.ac.uk/ccrepo) Feb. 2017
                 A. K. Wilson, D. E. Woon, K. A. Peterson, T. H. Dunning, Jr., J. Chem. Phys. 110, 7667 (1999)
             Y : Obtained from the ccRepo (grant-hill.group.shef.ac.uk/ccrepo) Feb. 2017
                 K. A. Peterson, D. Figgen, M. Dolg, H. Stoll, J. Chem. Phys. 126, 124101 (2007)
        Ag, Au : Obtained from the Peterson Research Group Website (tyr0.chem.wsu.edu/~kipeters) Feb. 2017
                 K. A. Peterson, C. Puzzarini, Theor. Chem. Acc. 114, 283 (2005)

----- AuxC basis set information -----
Your calculation utilizes the auxiliary basis: cc-pVTZ/C 
  Obtained from the EMSL Basis Set Exchange (bse.pnl.gov) Feb. 2017
  H-He, B-F, Al-Ar, Ga-Kr : F. Weigend, A. Kohn, C. Hattig, J. Chem. Phys. 116, 3175 (2002)
             Li-Be, Na-Mg : C. Haettig, Phys. Chem. Chem. Phys. 7, 59 (2005)
                       Ne : C. Haettig, Phys. Chem. Chem. Phys. 7, 59 (2005)
                            F. Weigend, A. Kohn, C. Hattig, J. Chem. Phys. 116, 3175 (2002)
                    Sc-Zn : J. G. Hill, J. A. Platts, J. Chem. Phys. 128, 044104 (2008)

================================================================================
                                        WARNINGS
                       Please study these warnings very carefully!
================================================================================


WARNING: No MP2 level density has been requested!
         To caclulate MP2 level properties use
         %mp2 Density relaxed end
         or
         %mp2 Density unrelaxed end

WARNING: Post HF methods need fully converged wavefunctions
  ===> : Setting SCFConvForced true
         You can overwrite this default with %scf ConvForced false 


INFO   : the flag for use of the SHARK integral package has been found!

================================================================================
                                       INPUT FILE
================================================================================
NAME = CONFS/Conf896.orca
|  1> ! ri-mp2 cc-pvtz cc-pvtz/c TightSCF NoKeepInts
|  2> 
|  3> %scf
|  4>   MaxCore 4096
|  5> end
|  6> *xyz  0  1
|  7>     C       15.9533334   13.1416009   15.9174625
|  8>     C       15.4617709   14.4923653   16.4635615
|  9>     O       16.6149818   15.3367244   16.6157747
| 10>     C       16.4624564   16.6941352   16.5838927
| 11>     O       15.5224117   17.2294109   16.0213492
| 12>     C       17.4284978   17.4046887   17.4916807
| 13>     C       17.4659598   18.7572447   17.5979313
| 14>     C       16.5966539   19.7581078   16.8671377
| 15>     N       18.4100752   19.3696176   18.4275931
| 16>     C       19.4109169   18.7139168   19.0935328
| 17>     S       20.5485079   19.5236850   19.9801112
| 18>     N       19.4247999   17.3467353   18.9852949
| 19>     C       18.3851167   16.5358669   18.3255560
| 20>     C       17.6395258   15.7069060   19.3680542
| 21>     C       17.7651000   14.3049745   19.3871022
| 22>     C       17.0731266   13.5377940   20.3392424
| 23>     C       16.2517179   14.1775342   21.2831292
| 24>     C       16.1286157   15.5737426   21.2705779
| 25>     O       15.3369442   16.1942966   22.1811192
| 26>     C       16.8173587   16.3343937   20.3207663
| 27>     H       15.1098269   12.4556062   15.7733719
| 28>     H       16.6594341   12.6765687   16.6163570
| 29>     H       16.4563888   13.2753347   14.9516265
| 30>     H       14.7492425   14.9199399   15.7448412
| 31>     H       14.9526583   14.3635723   17.4279249
| 32>     H       15.5430341   19.6272867   17.1455471
| 33>     H       16.6682062   19.6129252   15.7817285
| 34>     H       16.8692455   20.7986091   17.0789654
| 35>     H       18.4158947   20.3730429   18.5180800
| 36>     H       20.1526104   16.8888125   19.5186315
| 37>     H       18.8958489   15.8486603   17.6363440
| 38>     H       18.3949632   13.8077655   18.6542782
| 39>     H       17.1750021   12.4539772   20.3442218
| 40>     H       15.7160108   13.5896958   22.0212309
| 41>     H       14.9776182   15.5124425   22.7682884
| 42>     H       16.7131442   17.4140197   20.3316930
| 43> *
| 44> 
| 45>                          ****END OF INPUT****
================================================================================

                       ****************************
                       * Single Point Calculation *
                       ****************************

---------------------------------
CARTESIAN COORDINATES (ANGSTROEM)
---------------------------------
  C     15.953333   13.141601   15.917462
  C     15.461771   14.492365   16.463562
  O     16.614982   15.336724   16.615775
  C     16.462456   16.694135   16.583893
  O     15.522412   17.229411   16.021349
  C     17.428498   17.404689   17.491681
  C     17.465960   18.757245   17.597931
  C     16.596654   19.758108   16.867138
  N     18.410075   19.369618   18.427593
  C     19.410917   18.713917   19.093533
  S     20.548508   19.523685   19.980111
  N     19.424800   17.346735   18.985295
  C     18.385117   16.535867   18.325556
  C     17.639526   15.706906   19.368054
  C     17.765100   14.304975   19.387102
  C     17.073127   13.537794   20.339242
  C     16.251718   14.177534   21.283129
  C     16.128616   15.573743   21.270578
  O     15.336944   16.194297   22.181119
  C     16.817359   16.334394   20.320766
  H     15.109827   12.455606   15.773372
  H     16.659434   12.676569   16.616357
  H     16.456389   13.275335   14.951626
  H     14.749242   14.919940   15.744841
  H     14.952658   14.363572   17.427925
  H     15.543034   19.627287   17.145547
  H     16.668206   19.612925   15.781728
  H     16.869246   20.798609   17.078965
  H     18.415895   20.373043   18.518080
  H     20.152610   16.888813   19.518632
  H     18.895849   15.848660   17.636344
  H     18.394963   13.807765   18.654278
  H     17.175002   12.453977   20.344222
  H     15.716011   13.589696   22.021231
  H     14.977618   15.512442   22.768288
  H     16.713144   17.414020   20.331693

----------------------------
CARTESIAN COORDINATES (A.U.)
----------------------------
  NO LB      ZA    FRAG     MASS         X           Y           Z
   0 C     6.0000    0    12.011   30.147431   24.834027   30.079645
   1 C     6.0000    0    12.011   29.218513   27.386601   31.111622
   2 O     8.0000    0    15.999   31.397765   28.982209   31.399264
   3 C     6.0000    0    12.011   31.109534   31.547344   31.339015
   4 O     8.0000    0    15.999   29.333107   32.558868   30.275962
   5 C     6.0000    0    12.011   32.935088   32.890095   33.054486
   6 C     6.0000    0    12.011   33.005881   35.446056   33.255271
   7 C     6.0000    0    12.011   31.363131   37.337413   31.874271
   8 N     7.0000    0    14.007   34.790000   36.603273   34.823104
   9 C     6.0000    0    12.011   36.681317   35.364178   36.081548
  10 S    16.0000    0    32.060   38.831052   36.894418   37.756938
  11 N     7.0000    0    14.007   36.707552   32.780579   35.877008
  12 C     6.0000    0    12.011   34.742836   31.248260   34.630282
  13 C     6.0000    0    12.011   33.333873   29.681751   36.600318
  14 C     6.0000    0    12.011   33.571174   27.032484   36.636314
  15 C     6.0000    0    12.011   32.263534   25.582723   38.435598
  16 C     6.0000    0    12.011   30.711296   26.791657   40.219285
  17 C     6.0000    0    12.011   30.478667   29.430108   40.195567
  18 O     8.0000    0    15.999   28.982624   30.602786   41.916241
  19 C     6.0000    0    12.011   31.780202   30.867531   38.400683
  20 H     1.0000    0     1.008   28.553435   23.537685   29.807353
  21 H     1.0000    0     1.008   31.481768   23.955243   31.400364
  22 H     1.0000    0     1.008   31.098068   25.086747   28.254479
  23 H     1.0000    0     1.008   27.872029   28.194600   29.753438
  24 H     1.0000    0     1.008   28.256429   27.143218   32.934005
  25 H     1.0000    0     1.008   29.372078   37.090197   32.400388
  26 H     1.0000    0     1.008   31.498345   37.063057   29.823145
  27 H     1.0000    0     1.008   31.878254   39.303675   32.274567
  28 H     1.0000    0     1.008   34.800997   38.499472   34.994100
  29 H     1.0000    0     1.008   38.082915   31.915230   36.884868
  30 H     1.0000    0     1.008   35.707979   29.949628   33.327860
  31 H     1.0000    0     1.008   34.761443   26.092895   35.251477
  32 H     1.0000    0     1.008   32.456050   23.534606   38.445008
  33 H     1.0000    0     1.008   29.698956   25.680803   41.614096
  34 H     1.0000    0     1.008   28.303597   29.314268   43.025830
  35 H     1.0000    0     1.008   31.583265   32.907728   38.421332

--------------------------------
INTERNAL COORDINATES (ANGSTROEM)
--------------------------------
 C      0   0   0     0.000000000000     0.00000000     0.00000000
 C      1   0   0     1.537667803368     0.00000000     0.00000000
 O      2   1   0     1.437360959497   107.28711325     0.00000000
 C      3   2   1     1.366325195378   119.44381867   155.07315039
 O      4   3   2     1.219286390640   122.20666192   335.69382221
 C      4   3   2     1.504061606391   112.55421997   146.18698511
 C      6   4   3     1.357239965732   122.39614951   178.89915329
 C      7   6   4     1.513763184424   127.24683120   359.93432100
 N      7   6   4     1.398103415185   120.10493936   181.86908669
 C      9   7   6     1.369344124614   124.91886295     5.52569643
 S     10   9   7     1.654043252264   121.93283812   175.99682941
 N     10   9   7     1.371529596701   116.50935603   356.15743615
 C     12  10   9     1.474348715418   125.19888640   353.79134902
 C     13  12  10     1.526395905686   109.72616086   248.01484838
 C     14  13  12     1.407673128500   120.43336830   247.71254430
 C     15  14  13     1.404978315258   120.60067642   180.44430206
 C     16  15  14     1.405312088878   119.63518954   359.80500871
 C     17  16  15     1.401680984749   119.91879441   359.93263752
 O     18  17  16     1.356803777204   120.05385578   180.03956979
 C     18  17  16     1.398248580001   120.31151764     0.14104459
 H      1   2   3     1.096747028707   110.50245362   180.43419605
 H      1   2   3     1.096944240929   110.60406656    60.54782786
 H      1   2   3     1.097173023560   110.61794914   300.30008478
 H      2   1   3     1.098669936334   108.47358138   120.17081722
 H      2   1   3     1.098080162642   110.92120257   239.40084805
 H      8   7   6     1.097606777114   110.48706603    63.11076544
 H      8   7   6     1.097410976081   110.64476920   304.40078742
 H      8   7   6     1.096275563068   113.04548991   183.78952419
 H      9   7   6     1.007513810492   119.56574156   181.50775790
 H     12  10   9     1.011854408287   114.63319420   182.39030427
 H     13  12  10     1.099142152838   107.26418694   130.45838680
 H     15  14  13     1.086726946096   119.88375303   359.87441585
 H     16  15  14     1.088605653066   120.04306679   179.85489425
 H     17  16  15     1.085048478663   119.92363155   180.06523478
 H     19  18  17     0.968920975824   107.53035106     2.31184859
 H     20  18  17     1.084699200082   119.16265189   180.35358188

---------------------------
INTERNAL COORDINATES (A.U.)
---------------------------
 C      0   0   0     0.000000000000     0.00000000     0.00000000
 C      1   0   0     2.905771033314     0.00000000     0.00000000
 O      2   1   0     2.716218569039   107.28711325     0.00000000
 C      3   2   1     2.581980429142   119.44381867   155.07315039
 O      4   3   2     2.304117357128   122.20666192   335.69382221
 C      4   3   2     2.842264524625   112.55421997   146.18698511
 C      6   4   3     2.564811833246   122.39614951   178.89915329
 C      7   6   4     2.860597850174   127.24683120   359.93432100
 N      7   6   4     2.642032561599   120.10493936   181.86908669
 C      9   7   6     2.587685378615   124.91886295     5.52569643
 S     10   9   7     3.125688760439   121.93283812   175.99682941
 N     10   9   7     2.591815322333   116.50935603   356.15743615
 C     12  10   9     2.786115298038   125.19888640   353.79134902
 C     13  12  10     2.884470233685   109.72616086   248.01484838
 C     14  13  12     2.660116698946   120.43336830   247.71254430
 C     15  14  13     2.655024239935   120.60067642   180.44430206
 C     16  15  14     2.655654980668   119.63518954   359.80500871
 C     17  16  15     2.648793188301   119.91879441   359.93263752
 O     18  17  16     2.563987556385   120.05385578   180.03956979
 C     18  17  16     2.642306883346   120.31151764     0.14104459
 H      1   2   3     2.072551522449   110.50245362   180.43419605
 H      1   2   3     2.072924199538   110.60406656    60.54782786
 H      1   2   3     2.073356536055   110.61794914   300.30008478
 H      2   1   3     2.076185291244   108.47358138   120.17081722
 H      2   1   3     2.075070780485   110.92120257   239.40084805
 H      8   7   6     2.074176211481   110.48706603    63.11076544
 H      8   7   6     2.073806201152   110.64476920   304.40078742
 H      8   7   6     2.071660581508   113.04548991   183.78952419
 H      9   7   6     1.903925177973   119.56574156   181.50775790
 H     12  10   9     1.912127719063   114.63319420   182.39030427
 H     13  12  10     2.077077651112   107.26418694   130.45838680
 H     15  14  13     2.053616310474   119.88375303   359.87441585
 H     16  15  14     2.057166552133   120.04306679   179.85489425
 H     17  16  15     2.050444466700   119.92363155   180.06523478
 H     19  18  17     1.830995289719   107.53035106     2.31184859
 H     20  18  17     2.049784425839   119.16265189   180.35358188

---------------------
BASIS SET INFORMATION
---------------------
There are 5 groups of distinct atoms

 Group   1 Type C   : 18s5p2d1f contracted to 4s3p2d1f pattern {8811/311/11/1}
 Group   2 Type O   : 18s5p2d1f contracted to 4s3p2d1f pattern {8811/311/11/1}
 Group   3 Type N   : 18s5p2d1f contracted to 4s3p2d1f pattern {8811/311/11/1}
 Group   4 Type S   : 41s16p2d1f contracted to 5s4p2d1f pattern {13131311/7711/11/1}
 Group   5 Type H   : 5s2p1d contracted to 3s2p1d pattern {311/11/1}

Atom   0C    basis set group =>   1
Atom   1C    basis set group =>   1
Atom   2O    basis set group =>   2
Atom   3C    basis set group =>   1
Atom   4O    basis set group =>   2
Atom   5C    basis set group =>   1
Atom   6C    basis set group =>   1
Atom   7C    basis set group =>   1
Atom   8N    basis set group =>   3
Atom   9C    basis set group =>   1
Atom  10S    basis set group =>   4
Atom  11N    basis set group =>   3
Atom  12C    basis set group =>   1
Atom  13C    basis set group =>   1
Atom  14C    basis set group =>   1
Atom  15C    basis set group =>   1
Atom  16C    basis set group =>   1
Atom  17C    basis set group =>   1
Atom  18O    basis set group =>   2
Atom  19C    basis set group =>   1
Atom  20H    basis set group =>   5
Atom  21H    basis set group =>   5
Atom  22H    basis set group =>   5
Atom  23H    basis set group =>   5
Atom  24H    basis set group =>   5
Atom  25H    basis set group =>   5
Atom  26H    basis set group =>   5
Atom  27H    basis set group =>   5
Atom  28H    basis set group =>   5
Atom  29H    basis set group =>   5
Atom  30H    basis set group =>   5
Atom  31H    basis set group =>   5
Atom  32H    basis set group =>   5
Atom  33H    basis set group =>   5
Atom  34H    basis set group =>   5
Atom  35H    basis set group =>   5
---------------------------------
AUXILIARY/C BASIS SET INFORMATION
---------------------------------
There are 5 groups of distinct atoms

 Group   1 Type C   : 8s6p5d3f1g contracted to 8s6p5d3f1g pattern {11111111/111111/11111/111/1}
 Group   2 Type O   : 8s6p5d3f1g contracted to 8s6p5d3f1g pattern {11111111/111111/11111/111/1}
 Group   3 Type N   : 8s6p5d3f1g contracted to 8s6p5d3f1g pattern {11111111/111111/11111/111/1}
 Group   4 Type S   : 10s8p7d5f2g contracted to 10s8p7d5f2g pattern {1111111111/11111111/1111111/11111/11}
 Group   5 Type H   : 4s3p2d1f contracted to 4s3p2d1f pattern {1111/111/11/1}

Atom   0C    basis set group =>   1
Atom   1C    basis set group =>   1
Atom   2O    basis set group =>   2
Atom   3C    basis set group =>   1
Atom   4O    basis set group =>   2
Atom   5C    basis set group =>   1
Atom   6C    basis set group =>   1
Atom   7C    basis set group =>   1
Atom   8N    basis set group =>   3
Atom   9C    basis set group =>   1
Atom  10S    basis set group =>   4
Atom  11N    basis set group =>   3
Atom  12C    basis set group =>   1
Atom  13C    basis set group =>   1
Atom  14C    basis set group =>   1
Atom  15C    basis set group =>   1
Atom  16C    basis set group =>   1
Atom  17C    basis set group =>   1
Atom  18O    basis set group =>   2
Atom  19C    basis set group =>   1
Atom  20H    basis set group =>   5
Atom  21H    basis set group =>   5
Atom  22H    basis set group =>   5
Atom  23H    basis set group =>   5
Atom  24H    basis set group =>   5
Atom  25H    basis set group =>   5
Atom  26H    basis set group =>   5
Atom  27H    basis set group =>   5
Atom  28H    basis set group =>   5
Atom  29H    basis set group =>   5
Atom  30H    basis set group =>   5
Atom  31H    basis set group =>   5
Atom  32H    basis set group =>   5
Atom  33H    basis set group =>   5
Atom  34H    basis set group =>   5
Atom  35H    basis set group =>   5
------------------------------------------------------------------------------
                           ORCA GTO INTEGRAL CALCULATION
------------------------------------------------------------------------------
------------------------------------------------------------------------------
                   ___                                                        
                  /   \      - P O W E R E D   B Y -                         
                 /     \                                                     
                 |  |  |   _    _      __       _____    __    __             
                 |  |  |  | |  | |    /  \     |  _  \  |  |  /  |          
                  \  \/   | |  | |   /    \    | | | |  |  | /  /          
                 / \  \   | |__| |  /  /\  \   | |_| |  |  |/  /          
                |  |  |   |  __  | /  /__\  \  |    /   |      \           
                |  |  |   | |  | | |   __   |  |    \   |  |\   \          
                \     /   | |  | | |  |  |  |  | |\  \  |  | \   \       
                 \___/    |_|  |_| |__|  |__|  |_| \__\ |__|  \__/        
                                                                              
                      - O R C A' S   B I G   F R I E N D -                    
                                      &                                       
                       - I N T E G R A L  F E E D E R -                       
                                                                              
 v1 FN, 2020, v2 2021                                                         
------------------------------------------------------------------------------


Reading SHARK input file CONFS/Conf896.orca.SHARKINP.tmp ... ok
----------------------
SHARK INTEGRAL PACKAGE
----------------------

Number of atoms                             ...     36
Number of basis functions                   ...    828
Number of shells                            ...    298
Maximum angular momentum                    ...      3
Integral batch strategy                     ... SHARK/LIBINT Hybrid
RI-J (if used) integral strategy            ... SPLIT-RIJ (Revised 2003 algorithm where possible)
Printlevel                                  ...      1
Contraction scheme used                     ... SEGMENTED contraction
Coulomb Range Separation                    ... NOT USED
Exchange Range Separation                   ... NOT USED
Finite Nucleus Model                        ... NOT USED
Auxiliary Coulomb fitting basis             ... NOT available
Auxiliary J/K fitting basis                 ... NOT available
Auxiliary Correlation fitting basis         ... AVAILABLE
   # of basis functions in Aux-C            ...   2141
   # of shells in Aux-C                     ...    629
   Maximum angular momentum in Aux-C        ...      4
Auxiliary 'external' fitting basis          ... NOT available
Integral threshold                          ...     2.500000e-11
Primitive cut-off                           ...     2.500000e-12
Primitive pair pre-selection threshold      ...     2.500000e-12

Calculating pre-screening integrals         ... done (  0.5 sec) Dimension = 298
Organizing shell pair data                  ... done (  1.2 sec)
Shell pair information
Total number of shell pairs                 ...     44551
Shell pairs after pre-screening             ...     33097
Total number of primitive shell pairs       ...    234348
Primitive shell pairs kept                  ...     95152
          la=0 lb=0:   6611 shell pairs
          la=1 lb=0:   9187 shell pairs
          la=1 lb=1:   3239 shell pairs
          la=2 lb=0:   5297 shell pairs
          la=2 lb=1:   3631 shell pairs
          la=2 lb=2:   1032 shell pairs
          la=3 lb=0:   1914 shell pairs
          la=3 lb=1:   1309 shell pairs
          la=3 lb=2:    728 shell pairs
          la=3 lb=3:    149 shell pairs

Calculating one electron integrals          ... done (  0.3 sec)
Calculating RI/C V-Matrix + Cholesky decomp.... done (  0.8 sec)
Calculating Nuclear repulsion               ... done (  0.1 sec) ENN=   1702.707593400799 Eh

SHARK setup successfully completed in   3.4 seconds

Maximum memory used throughout the entire GTOINT-calculation: 491.4 MB
-------------------------------------------------------------------------------
                                 ORCA SCF
-------------------------------------------------------------------------------

------------
SCF SETTINGS
------------
Hamiltonian:
 Ab initio Hamiltonian  Method          .... Hartree-Fock(GTOs)


General Settings:
 Integral files         IntName         .... CONFS/Conf896.orca
 Hartree-Fock type      HFTyp           .... RHF
 Total Charge           Charge          ....    0
 Multiplicity           Mult            ....    1
 Number of Electrons    NEL             ....  154
 Basis Dimension        Dim             ....  828
 Nuclear Repulsion      ENuc            ....   1702.7075934008 Eh

Convergence Acceleration:
 DIIS                   CNVDIIS         .... on
   Start iteration      DIISMaxIt       ....    12
   Startup error        DIISStart       ....  0.200000
   # of expansion vecs  DIISMaxEq       ....     5
   Bias factor          DIISBfac        ....   1.050
   Max. coefficient     DIISMaxC        ....  10.000
 Trust-Rad. Augm. Hess. CNVTRAH         .... auto
   Auto Start mean grad. ratio tolernc. ....  1.125000
   Auto Start start iteration           ....    20
   Auto Start num. interpolation iter.  ....    10
   Max. Number of Micro iterations      ....    16
   Max. Number of Macro iterations      .... Maxiter - #DIIS iter
   Number of Davidson start vectors     ....     2
   Converg. threshold I  (grad. norm)   ....   1.000e-05
   Converg. threshold II (energy diff.) ....   1.000e-08
   Grad. Scal. Fac. for Micro threshold ....   0.100
   Minimum threshold for Micro iter.    ....   0.010
   NR start threshold (gradient norm)   ....   0.001
   Initial trust radius                 ....   0.400
   Minimum AH scaling param. (alpha)    ....   1.000
   Maximum AH scaling param. (alpha)    .... 1000.000
   Orbital update algorithm             .... Taylor
   White noise on init. David. guess    .... on
   Maximum white noise                  ....   0.010
   Quad. conv. algorithm                .... NR
 SOSCF                  CNVSOSCF        .... on
   Start iteration      SOSCFMaxIt      ....   150
   Startup grad/error   SOSCFStart      ....  0.003300
 Level Shifting         CNVShift        .... on
   Level shift para.    LevelShift      ....    0.2500
   Turn off err/grad.   ShiftErr        ....    0.0010
 Zerner damping         CNVZerner       .... off
 Static damping         CNVDamp         .... on
   Fraction old density DampFac         ....    0.7000
   Max. Damping (<1)    DampMax         ....    0.9800
   Min. Damping (>=0)   DampMin         ....    0.0000
   Turn off err/grad.   DampErr         ....    0.1000
 Fernandez-Rico         CNVRico         .... off

SCF Procedure:
 Maximum # iterations   MaxIter         ....   125
 SCF integral mode      SCFMode         .... Direct
   Integral package                     .... SHARK and LIBINT hybrid scheme
 Reset frequency        DirectResetFreq ....    20
 Integral Threshold     Thresh          ....  2.500e-11 Eh
 Primitive CutOff       TCut            ....  2.500e-12 Eh

Convergence Tolerance:
 Convergence Check Mode ConvCheckMode   .... Total+1el-Energy
 Convergence forced     ConvForced      .... 1
 Energy Change          TolE            ....  1.000e-08 Eh
 1-El. energy change                    ....  1.000e-05 Eh
 Orbital Gradient       TolG            ....  1.000e-05
 Orbital Rotation angle TolX            ....  1.000e-05
 DIIS Error             TolErr          ....  5.000e-07


Diagonalization of the overlap matrix:
Smallest eigenvalue                        ... 3.426e-05
Time for diagonalization                   ...    0.110 sec
Threshold for overlap eigenvalues          ... 1.000e-08
Number of eigenvalues below threshold      ... 0
Time for construction of square roots      ...    0.267 sec
Total time needed                          ...    0.378 sec

Time for model grid setup =    1.734 sec

------------------------------
INITIAL GUESS: MODEL POTENTIAL
------------------------------
Loading Hartree-Fock densities                     ... done
Calculating cut-offs                               ... done
Initializing the effective Hamiltonian             ... done
Setting up the integral package (SHARK)            ... done
Starting the Coulomb interaction                   ... done (   4.1 sec)
Reading the grid                                   ... done
Mapping shells                                     ... done
Starting the XC term evaluation                    ... done (   1.4 sec)
Transforming the Hamiltonian                       ... done (   0.1 sec)
Diagonalizing the Hamiltonian                      ... done (   0.1 sec)
Back transforming the eigenvectors                 ... done (   0.0 sec)
Now organizing SCF variables                       ... done
                      ------------------
                      INITIAL GUESS DONE (   7.9 sec)
                      ------------------
--------------
SCF ITERATIONS
--------------
ITER       Energy         Delta-E        Max-DP      RMS-DP      [F,P]     Damp
               ***  Starting incremental Fock matrix formation  ***
  0  -1270.0181916784   0.000000000000 0.04931759  0.00043416  0.3097504 0.7000
  1  -1270.2863144467  -0.268122768281 0.03608239  0.00035088  0.1829900 0.7000
                               ***Turning on DIIS***
  2  -1270.4534383190  -0.167123872347 0.02583877  0.00023596  0.1096684 0.7000
  3  -1272.5936599345  -2.140221615528 0.06313715  0.00051061  0.0829481 0.0000
  4  -1270.7627862821   1.830873652476 0.00701358  0.00009504  0.0071277 0.0000
  5  -1270.8222714492  -0.059485167114 0.00389889  0.00005092  0.0047433 0.0000
                      *** Initiating the SOSCF procedure ***
                           *** Shutting down DIIS ***
                      *** Re-Reading the Fockian *** 
                      *** Removing any level shift *** 
ITER      Energy       Delta-E        Grad      Rot      Max-DP    RMS-DP
  6  -1270.80178241   0.0204890412  0.001657  0.001657  0.001888  0.000026
               *** Restarting incremental Fock matrix formation ***
  7  -1270.81648080  -0.0146983910  0.000909  0.002330  0.001251  0.000016
  8  -1270.81652627  -0.0000454737  0.000431  0.002613  0.001375  0.000017
  9  -1270.81654332  -0.0000170444  0.000182  0.000347  0.000352  0.000004
 10  -1270.81654546  -0.0000021408  0.000057  0.000153  0.000119  0.000001
 11  -1270.81654567  -0.0000002106  0.000024  0.000121  0.000059  0.000001
 12  -1270.81654574  -0.0000000667  0.000010  0.000042  0.000034  0.000000
 13  -1270.81654574  -0.0000000023  0.000003  0.000012  0.000007  0.000000
                  ***Gradient check signals convergence***
              ***Rediagonalizing the Fockian in SOSCF/NRSCF***

               *****************************************************
               *                     SUCCESS                       *
               *           SCF CONVERGED AFTER  14 CYCLES          *
               *****************************************************


----------------
TOTAL SCF ENERGY
----------------

Total Energy       :        -1270.81654573 Eh          -34580.67626 eV

Components:
Nuclear Repulsion  :         1702.70759340 Eh           46333.02914 eV
Electronic Energy  :        -2973.52413913 Eh          -80913.70540 eV
One Electron Energy:        -5126.63061225 Eh         -139502.71114 eV
Two Electron Energy:         2153.10647312 Eh           58589.00574 eV

Virial components:
Potential Energy   :        -2539.77161770 Eh          -69110.69924 eV
Kinetic Energy     :         1268.95507198 Eh           34530.02298 eV
Virial Ratio       :            2.00146693


---------------
SCF CONVERGENCE
---------------

  Last Energy change         ...    1.0899e-08  Tolerance :   1.0000e-08
  Last MAX-Density change    ...    1.8798e-06  Tolerance :   1.0000e-07
  Last RMS-Density change    ...    2.7287e-08  Tolerance :   5.0000e-09
  Last Orbital Gradient      ...    1.4378e-06  Tolerance :   1.0000e-05
  Last Orbital Rotation      ...    3.1369e-06  Tolerance :   1.0000e-05

             **** THE GBW FILE WAS UPDATED (CONFS/Conf896.orca.gbw) ****
             **** DENSITY CONFS/Conf896.orca.scfp WAS UPDATED ****
             **** ENERGY FILE WAS UPDATED (CONFS/Conf896.orca.en.tmp) ****
             **** THE GBW FILE WAS UPDATED (CONFS/Conf896.orca.gbw) ****
             **** DENSITY CONFS/Conf896.orca.scfp WAS UPDATED ****
----------------
ORBITAL ENERGIES
----------------

  NO   OCC          E(Eh)            E(eV) 
   0   2.0000     -91.889121     -2500.4301 
   1   2.0000     -20.598191      -560.5053 
   2   2.0000     -20.597169      -560.4775 
   3   2.0000     -20.542441      -558.9882 
   4   2.0000     -15.629258      -425.2937 
   5   2.0000     -15.608549      -424.7302 
   6   2.0000     -11.394317      -310.0551 
   7   2.0000     -11.384247      -309.7811 
   8   2.0000     -11.335901      -308.4655 
   9   2.0000     -11.314534      -307.8841 
  10   2.0000     -11.309504      -307.7473 
  11   2.0000     -11.294469      -307.3381 
  12   2.0000     -11.260368      -306.4102 
  13   2.0000     -11.258756      -306.3663 
  14   2.0000     -11.256044      -306.2925 
  15   2.0000     -11.252132      -306.1861 
  16   2.0000     -11.243776      -305.9587 
  17   2.0000     -11.239150      -305.8328 
  18   2.0000     -11.238867      -305.8251 
  19   2.0000     -11.229708      -305.5759 
  20   2.0000      -8.894180      -242.0229 
  21   2.0000      -6.575753      -178.9353 
  22   2.0000      -6.573750      -178.8808 
  23   2.0000      -6.573162      -178.8648 
  24   2.0000      -1.451145       -39.4877 
  25   2.0000      -1.416828       -38.5539 
  26   2.0000      -1.354566       -36.8596 
  27   2.0000      -1.340228       -36.4695 
  28   2.0000      -1.238761       -33.7084 
  29   2.0000      -1.158245       -31.5174 
  30   2.0000      -1.120556       -30.4919 
  31   2.0000      -1.043464       -28.3941 
  32   2.0000      -1.039349       -28.2821 
  33   2.0000      -1.015893       -27.6438 
  34   2.0000      -0.995911       -27.1001 
  35   2.0000      -0.984562       -26.7913 
  36   2.0000      -0.922884       -25.1129 
  37   2.0000      -0.887059       -24.1381 
  38   2.0000      -0.847016       -23.0485 
  39   2.0000      -0.838065       -22.8049 
  40   2.0000      -0.834683       -22.7129 
  41   2.0000      -0.819149       -22.2902 
  42   2.0000      -0.764369       -20.7995 
  43   2.0000      -0.733114       -19.9490 
  44   2.0000      -0.722530       -19.6610 
  45   2.0000      -0.696197       -18.9445 
  46   2.0000      -0.687227       -18.7004 
  47   2.0000      -0.679134       -18.4802 
  48   2.0000      -0.675341       -18.3770 
  49   2.0000      -0.659057       -17.9339 
  50   2.0000      -0.646698       -17.5976 
  51   2.0000      -0.644346       -17.5336 
  52   2.0000      -0.635357       -17.2889 
  53   2.0000      -0.607785       -16.5387 
  54   2.0000      -0.605948       -16.4887 
  55   2.0000      -0.600226       -16.3330 
  56   2.0000      -0.598419       -16.2838 
  57   2.0000      -0.578292       -15.7361 
  58   2.0000      -0.570975       -15.5370 
  59   2.0000      -0.565832       -15.3971 
  60   2.0000      -0.561351       -15.2751 
  61   2.0000      -0.542129       -14.7521 
  62   2.0000      -0.540076       -14.6962 
  63   2.0000      -0.525723       -14.3057 
  64   2.0000      -0.524870       -14.2824 
  65   2.0000      -0.513807       -13.9814 
  66   2.0000      -0.502622       -13.6770 
  67   2.0000      -0.497929       -13.5493 
  68   2.0000      -0.486272       -13.2321 
  69   2.0000      -0.465880       -12.6772 
  70   2.0000      -0.458066       -12.4646 
  71   2.0000      -0.446172       -12.1410 
  72   2.0000      -0.354380        -9.6432 
  73   2.0000      -0.350069        -9.5259 
  74   2.0000      -0.328506        -8.9391 
  75   2.0000      -0.322105        -8.7649 
  76   2.0000      -0.316323        -8.6076 
  77   0.0000       0.074866         2.0372 
  78   0.0000       0.105224         2.8633 
  79   0.0000       0.124729         3.3941 
  80   0.0000       0.131450         3.5769 
  81   0.0000       0.136153         3.7049 
  82   0.0000       0.140786         3.8310 
  83   0.0000       0.152532         4.1506 
  84   0.0000       0.159974         4.3531 
  85   0.0000       0.162998         4.4354 
  86   0.0000       0.170025         4.6266 
  87   0.0000       0.175787         4.7834 
  88   0.0000       0.192048         5.2259 
  89   0.0000       0.194414         5.2903 
  90   0.0000       0.199539         5.4297 
  91   0.0000       0.210806         5.7363 
  92   0.0000       0.213060         5.7977 
  93   0.0000       0.221146         6.0177 
  94   0.0000       0.225008         6.1228 
  95   0.0000       0.232942         6.3387 
  96   0.0000       0.246088         6.6964 
  97   0.0000       0.260942         7.1006 
  98   0.0000       0.263367         7.1666 
  99   0.0000       0.277727         7.5573 
 100   0.0000       0.293407         7.9840 
 101   0.0000       0.305839         8.3223 
 102   0.0000       0.308858         8.4045 
 103   0.0000       0.317809         8.6480 
 104   0.0000       0.329076         8.9546 
 105   0.0000       0.337668         9.1884 
 106   0.0000       0.339691         9.2435 
 107   0.0000       0.347103         9.4451 
 108   0.0000       0.350324         9.5328 
 109   0.0000       0.368280        10.0214 
 110   0.0000       0.373011        10.1502 
 111   0.0000       0.380462        10.3529 
 112   0.0000       0.387525        10.5451 
 113   0.0000       0.388882        10.5820 
 114   0.0000       0.391674        10.6580 
 115   0.0000       0.402455        10.9513 
 116   0.0000       0.413409        11.2494 
 117   0.0000       0.425875        11.5887 
 118   0.0000       0.431509        11.7419 
 119   0.0000       0.433333        11.7916 
 120   0.0000       0.440683        11.9916 
 121   0.0000       0.446118        12.1395 
 122   0.0000       0.451463        12.2849 
 123   0.0000       0.457510        12.4495 
 124   0.0000       0.464258        12.6331 
 125   0.0000       0.469974        12.7887 
 126   0.0000       0.476885        12.9767 
 127   0.0000       0.479475        13.0472 
 128   0.0000       0.484675        13.1887 
 129   0.0000       0.493169        13.4198 
 130   0.0000       0.502533        13.6746 
 131   0.0000       0.505739        13.7619 
 132   0.0000       0.510811        13.8999 
 133   0.0000       0.515240        14.0204 
 134   0.0000       0.520724        14.1696 
 135   0.0000       0.531690        14.4680 
 136   0.0000       0.534424        14.5424 
 137   0.0000       0.537337        14.6217 
 138   0.0000       0.541523        14.7356 
 139   0.0000       0.544291        14.8109 
 140   0.0000       0.558458        15.1964 
 141   0.0000       0.559645        15.2287 
 142   0.0000       0.566261        15.4087 
 143   0.0000       0.571399        15.5486 
 144   0.0000       0.572336        15.5740 
 145   0.0000       0.576258        15.6808 
 146   0.0000       0.583552        15.8793 
 147   0.0000       0.591099        16.0846 
 148   0.0000       0.593904        16.1610 
 149   0.0000       0.604019        16.4362 
 150   0.0000       0.608252        16.5514 
 151   0.0000       0.610011        16.5993 
 152   0.0000       0.614418        16.7192 
 153   0.0000       0.616371        16.7723 
 154   0.0000       0.618861        16.8401 
 155   0.0000       0.625107        17.0100 
 156   0.0000       0.630623        17.1601 
 157   0.0000       0.633495        17.2383 
 158   0.0000       0.636113        17.3095 
 159   0.0000       0.638051        17.3622 
 160   0.0000       0.646670        17.5968 
 161   0.0000       0.652766        17.7627 
 162   0.0000       0.657486        17.8911 
 163   0.0000       0.661807        18.0087 
 164   0.0000       0.668004        18.1773 
 165   0.0000       0.674854        18.3637 
 166   0.0000       0.677984        18.4489 
 167   0.0000       0.680570        18.5193 
 168   0.0000       0.687611        18.7108 
 169   0.0000       0.696899        18.9636 
 170   0.0000       0.701912        19.1000 
 171   0.0000       0.708519        19.2798 
 172   0.0000       0.713337        19.4109 
 173   0.0000       0.719410        19.5761 
 174   0.0000       0.726735        19.7755 
 175   0.0000       0.736743        20.0478 
 176   0.0000       0.738383        20.0924 
 177   0.0000       0.748094        20.3567 
 178   0.0000       0.750152        20.4127 
 179   0.0000       0.754003        20.5175 
 180   0.0000       0.760116        20.6838 
 181   0.0000       0.769422        20.9370 
 182   0.0000       0.777352        21.1528 
 183   0.0000       0.784082        21.3360 
 184   0.0000       0.789234        21.4762 
 185   0.0000       0.801239        21.8028 
 186   0.0000       0.815255        22.1842 
 187   0.0000       0.822351        22.3773 
 188   0.0000       0.827180        22.5087 
 189   0.0000       0.831148        22.6167 
 190   0.0000       0.838011        22.8034 
 191   0.0000       0.850938        23.1552 
 192   0.0000       0.854404        23.2495 
 193   0.0000       0.856174        23.2977 
 194   0.0000       0.872380        23.7387 
 195   0.0000       0.874463        23.7954 
 196   0.0000       0.880808        23.9680 
 197   0.0000       0.886279        24.1169 
 198   0.0000       0.892930        24.2979 
 199   0.0000       0.901902        24.5420 
 200   0.0000       0.913161        24.8484 
 201   0.0000       0.917951        24.9787 
 202   0.0000       0.922616        25.1057 
 203   0.0000       0.936749        25.4902 
 204   0.0000       0.942865        25.6567 
 205   0.0000       0.951978        25.9046 
 206   0.0000       0.954908        25.9844 
 207   0.0000       0.965036        26.2600 
 208   0.0000       0.973671        26.4949 
 209   0.0000       0.976424        26.5699 
 210   0.0000       0.980424        26.6787 
 211   0.0000       0.989792        26.9336 
 212   0.0000       0.990495        26.9527 
 213   0.0000       0.995932        27.1007 
 214   0.0000       1.008825        27.4515 
 215   0.0000       1.018580        27.7170 
 216   0.0000       1.023463        27.8499 
 217   0.0000       1.029427        28.0121 
 218   0.0000       1.039272        28.2800 
 219   0.0000       1.043389        28.3921 
 220   0.0000       1.050811        28.5940 
 221   0.0000       1.054392        28.6915 
 222   0.0000       1.063296        28.9338 
 223   0.0000       1.073205        29.2034 
 224   0.0000       1.078746        29.3542 
 225   0.0000       1.084007        29.4973 
 226   0.0000       1.092337        29.7240 
 227   0.0000       1.103756        30.0347 
 228   0.0000       1.107972        30.1494 
 229   0.0000       1.123702        30.5775 
 230   0.0000       1.133818        30.8527 
 231   0.0000       1.137210        30.9450 
 232   0.0000       1.142786        31.0968 
 233   0.0000       1.145714        31.1765 
 234   0.0000       1.148614        31.2554 
 235   0.0000       1.159966        31.5643 
 236   0.0000       1.168343        31.7922 
 237   0.0000       1.173843        31.9419 
 238   0.0000       1.175707        31.9926 
 239   0.0000       1.181780        32.1579 
 240   0.0000       1.188291        32.3350 
 241   0.0000       1.197265        32.5792 
 242   0.0000       1.202883        32.7321 
 243   0.0000       1.212985        33.0070 
 244   0.0000       1.216640        33.1065 
 245   0.0000       1.225014        33.3343 
 246   0.0000       1.232867        33.5480 
 247   0.0000       1.237098        33.6632 
 248   0.0000       1.245170        33.8828 
 249   0.0000       1.256404        34.1885 
 250   0.0000       1.260570        34.3018 
 251   0.0000       1.270482        34.5716 
 252   0.0000       1.274576        34.6830 
 253   0.0000       1.278502        34.7898 
 254   0.0000       1.288514        35.0623 
 255   0.0000       1.293610        35.2009 
 256   0.0000       1.302166        35.4337 
 257   0.0000       1.313720        35.7481 
 258   0.0000       1.324126        36.0313 
 259   0.0000       1.335395        36.3379 
 260   0.0000       1.346403        36.6375 
 261   0.0000       1.349706        36.7274 
 262   0.0000       1.358547        36.9679 
 263   0.0000       1.367363        37.2078 
 264   0.0000       1.380383        37.5621 
 265   0.0000       1.383054        37.6348 
 266   0.0000       1.393774        37.9265 
 267   0.0000       1.396176        37.9919 
 268   0.0000       1.406782        38.2805 
 269   0.0000       1.415849        38.5272 
 270   0.0000       1.421783        38.6887 
 271   0.0000       1.429829        38.9076 
 272   0.0000       1.433902        39.0185 
 273   0.0000       1.440731        39.2043 
 274   0.0000       1.451829        39.5063 
 275   0.0000       1.465362        39.8745 
 276   0.0000       1.471622        40.0449 
 277   0.0000       1.477053        40.1927 
 278   0.0000       1.483540        40.3692 
 279   0.0000       1.493419        40.6380 
 280   0.0000       1.500398        40.8279 
 281   0.0000       1.503439        40.9107 
 282   0.0000       1.506639        40.9977 
 283   0.0000       1.510548        41.1041 
 284   0.0000       1.516003        41.2525 
 285   0.0000       1.518122        41.3102 
 286   0.0000       1.532761        41.7085 
 287   0.0000       1.537769        41.8448 
 288   0.0000       1.539975        41.9049 
 289   0.0000       1.549938        42.1760 
 290   0.0000       1.554009        42.2867 
 291   0.0000       1.555970        42.3401 
 292   0.0000       1.560447        42.4619 
 293   0.0000       1.569117        42.6979 
 294   0.0000       1.576744        42.9054 
 295   0.0000       1.588158        43.2160 
 296   0.0000       1.590856        43.2894 
 297   0.0000       1.604889        43.6712 
 298   0.0000       1.608549        43.7708 
 299   0.0000       1.625188        44.2236 
 300   0.0000       1.628847        44.3232 
 301   0.0000       1.634326        44.4723 
 302   0.0000       1.642381        44.6915 
 303   0.0000       1.655178        45.0397 
 304   0.0000       1.659280        45.1513 
 305   0.0000       1.664829        45.3023 
 306   0.0000       1.674323        45.5607 
 307   0.0000       1.692279        46.0493 
 308   0.0000       1.697608        46.1943 
 309   0.0000       1.707047        46.4511 
 310   0.0000       1.715526        46.6818 
 311   0.0000       1.721458        46.8432 
 312   0.0000       1.733567        47.1728 
 313   0.0000       1.741661        47.3930 
 314   0.0000       1.755077        47.7581 
 315   0.0000       1.759070        47.8667 
 316   0.0000       1.775233        48.3065 
 317   0.0000       1.780199        48.4417 
 318   0.0000       1.787708        48.6460 
 319   0.0000       1.802162        49.0393 
 320   0.0000       1.809776        49.2465 
 321   0.0000       1.819908        49.5222 
 322   0.0000       1.826427        49.6996 
 323   0.0000       1.835587        49.9489 
 324   0.0000       1.853234        50.4291 
 325   0.0000       1.858578        50.5745 
 326   0.0000       1.877197        51.0811 
 327   0.0000       1.893020        51.5117 
 328   0.0000       1.899218        51.6804 
 329   0.0000       1.911179        52.0058 
 330   0.0000       1.922624        52.3172 
 331   0.0000       1.933392        52.6103 
 332   0.0000       1.936679        52.6997 
 333   0.0000       1.948978        53.0344 
 334   0.0000       1.963966        53.4422 
 335   0.0000       1.969966        53.6055 
 336   0.0000       1.990206        54.1563 
 337   0.0000       1.996279        54.3215 
 338   0.0000       2.010827        54.7174 
 339   0.0000       2.021633        55.0114 
 340   0.0000       2.029968        55.2382 
 341   0.0000       2.039922        55.5091 
 342   0.0000       2.042856        55.5889 
 343   0.0000       2.074301        56.4446 
 344   0.0000       2.101743        57.1913 
 345   0.0000       2.113048        57.4989 
 346   0.0000       2.122533        57.7571 
 347   0.0000       2.129118        57.9362 
 348   0.0000       2.153170        58.5907 
 349   0.0000       2.158408        58.7333 
 350   0.0000       2.186844        59.5071 
 351   0.0000       2.202160        59.9238 
 352   0.0000       2.213644        60.2363 
 353   0.0000       2.229064        60.6559 
 354   0.0000       2.239666        60.9444 
 355   0.0000       2.253316        61.3158 
 356   0.0000       2.277553        61.9754 
 357   0.0000       2.284830        62.1734 
 358   0.0000       2.297923        62.5297 
 359   0.0000       2.300260        62.5933 
 360   0.0000       2.310233        62.8646 
 361   0.0000       2.333257        63.4912 
 362   0.0000       2.338148        63.6242 
 363   0.0000       2.341793        63.7234 
 364   0.0000       2.361144        64.2500 
 365   0.0000       2.378766        64.7295 
 366   0.0000       2.384790        64.8934 
 367   0.0000       2.398413        65.2641 
 368   0.0000       2.416378        65.7530 
 369   0.0000       2.431093        66.1534 
 370   0.0000       2.442757        66.4708 
 371   0.0000       2.459051        66.9142 
 372   0.0000       2.464343        67.0582 
 373   0.0000       2.473873        67.3175 
 374   0.0000       2.479337        67.4662 
 375   0.0000       2.501468        68.0684 
 376   0.0000       2.509907        68.2980 
 377   0.0000       2.529264        68.8248 
 378   0.0000       2.541658        69.1620 
 379   0.0000       2.553426        69.4823 
 380   0.0000       2.567278        69.8592 
 381   0.0000       2.577287        70.1315 
 382   0.0000       2.585431        70.3532 
 383   0.0000       2.607122        70.9434 
 384   0.0000       2.616974        71.2115 
 385   0.0000       2.620377        71.3041 
 386   0.0000       2.624287        71.4105 
 387   0.0000       2.640359        71.8478 
 388   0.0000       2.653311        72.2003 
 389   0.0000       2.665182        72.5233 
 390   0.0000       2.671322        72.6904 
 391   0.0000       2.691503        73.2395 
 392   0.0000       2.700730        73.4906 
 393   0.0000       2.702759        73.5458 
 394   0.0000       2.721790        74.0637 
 395   0.0000       2.733819        74.3910 
 396   0.0000       2.744017        74.6685 
 397   0.0000       2.752827        74.9082 
 398   0.0000       2.765598        75.2557 
 399   0.0000       2.768289        75.3290 
 400   0.0000       2.772296        75.4380 
 401   0.0000       2.781481        75.6879 
 402   0.0000       2.788717        75.8849 
 403   0.0000       2.807122        76.3857 
 404   0.0000       2.822362        76.8004 
 405   0.0000       2.828443        76.9659 
 406   0.0000       2.833173        77.0946 
 407   0.0000       2.840849        77.3034 
 408   0.0000       2.852569        77.6223 
 409   0.0000       2.856001        77.7157 
 410   0.0000       2.864957        77.9594 
 411   0.0000       2.874685        78.2242 
 412   0.0000       2.886232        78.5384 
 413   0.0000       2.901304        78.9485 
 414   0.0000       2.907622        79.1204 
 415   0.0000       2.912089        79.2420 
 416   0.0000       2.929388        79.7127 
 417   0.0000       2.940526        80.0158 
 418   0.0000       2.945687        80.1562 
 419   0.0000       2.961589        80.5889 
 420   0.0000       2.970686        80.8365 
 421   0.0000       2.979904        81.0873 
 422   0.0000       2.988617        81.3244 
 423   0.0000       2.999212        81.6127 
 424   0.0000       3.002781        81.7098 
 425   0.0000       3.006046        81.7987 
 426   0.0000       3.024414        82.2985 
 427   0.0000       3.032109        82.5079 
 428   0.0000       3.038080        82.6704 
 429   0.0000       3.042891        82.8013 
 430   0.0000       3.052956        83.0752 
 431   0.0000       3.055407        83.1419 
 432   0.0000       3.065664        83.4209 
 433   0.0000       3.076817        83.7245 
 434   0.0000       3.078505        83.7704 
 435   0.0000       3.079203        83.7894 
 436   0.0000       3.089896        84.0804 
 437   0.0000       3.091282        84.1181 
 438   0.0000       3.099284        84.3358 
 439   0.0000       3.100623        84.3722 
 440   0.0000       3.110903        84.6520 
 441   0.0000       3.117488        84.8312 
 442   0.0000       3.124257        85.0154 
 443   0.0000       3.128681        85.1357 
 444   0.0000       3.132450        85.2383 
 445   0.0000       3.145674        85.5981 
 446   0.0000       3.152353        85.7799 
 447   0.0000       3.168518        86.2198 
 448   0.0000       3.177083        86.4528 
 449   0.0000       3.183906        86.6385 
 450   0.0000       3.196837        86.9904 
 451   0.0000       3.201890        87.1279 
 452   0.0000       3.213111        87.4332 
 453   0.0000       3.221686        87.6665 
 454   0.0000       3.227573        87.8267 
 455   0.0000       3.234391        88.0123 
 456   0.0000       3.246683        88.3467 
 457   0.0000       3.248788        88.4040 
 458   0.0000       3.253337        88.5278 
 459   0.0000       3.263831        88.8134 
 460   0.0000       3.267225        88.9057 
 461   0.0000       3.268035        88.9278 
 462   0.0000       3.283030        89.3358 
 463   0.0000       3.290149        89.5295 
 464   0.0000       3.299105        89.7732 
 465   0.0000       3.310399        90.0805 
 466   0.0000       3.310765        90.0905 
 467   0.0000       3.320104        90.3446 
 468   0.0000       3.323104        90.4263 
 469   0.0000       3.328539        90.5741 
 470   0.0000       3.332934        90.6937 
 471   0.0000       3.340373        90.8962 
 472   0.0000       3.344989        91.0218 
 473   0.0000       3.355895        91.3186 
 474   0.0000       3.358401        91.3867 
 475   0.0000       3.367566        91.6361 
 476   0.0000       3.368485        91.6611 
 477   0.0000       3.376666        91.8838 
 478   0.0000       3.388139        92.1959 
 479   0.0000       3.392961        92.3272 
 480   0.0000       3.395921        92.4077 
 481   0.0000       3.399384        92.5019 
 482   0.0000       3.406824        92.7044 
 483   0.0000       3.411385        92.8285 
 484   0.0000       3.417743        93.0015 
 485   0.0000       3.419965        93.0620 
 486   0.0000       3.422757        93.1379 
 487   0.0000       3.428034        93.2815 
 488   0.0000       3.432670        93.4077 
 489   0.0000       3.437395        93.5363 
 490   0.0000       3.441187        93.6395 
 491   0.0000       3.446583        93.7863 
 492   0.0000       3.448870        93.8485 
 493   0.0000       3.453443        93.9730 
 494   0.0000       3.467419        94.3533 
 495   0.0000       3.474347        94.5418 
 496   0.0000       3.476310        94.5952 
 497   0.0000       3.488331        94.9223 
 498   0.0000       3.489989        94.9674 
 499   0.0000       3.496833        95.1537 
 500   0.0000       3.515613        95.6647 
 501   0.0000       3.518698        95.7486 
 502   0.0000       3.531950        96.1092 
 503   0.0000       3.538119        96.2771 
 504   0.0000       3.543618        96.4268 
 505   0.0000       3.554825        96.7317 
 506   0.0000       3.557648        96.8085 
 507   0.0000       3.561334        96.9088 
 508   0.0000       3.576845        97.3309 
 509   0.0000       3.581623        97.4609 
 510   0.0000       3.583283        97.5061 
 511   0.0000       3.595731        97.8448 
 512   0.0000       3.604153        98.0740 
 513   0.0000       3.611964        98.2865 
 514   0.0000       3.617877        98.4474 
 515   0.0000       3.621207        98.5380 
 516   0.0000       3.629211        98.7559 
 517   0.0000       3.632969        98.8581 
 518   0.0000       3.635490        98.9267 
 519   0.0000       3.639981        99.0489 
 520   0.0000       3.648917        99.2921 
 521   0.0000       3.651531        99.3632 
 522   0.0000       3.659624        99.5834 
 523   0.0000       3.664332        99.7115 
 524   0.0000       3.667479        99.7972 
 525   0.0000       3.674448        99.9868 
 526   0.0000       3.678855       100.1067 
 527   0.0000       3.686052       100.3026 
 528   0.0000       3.707083       100.8748 
 529   0.0000       3.711016       100.9819 
 530   0.0000       3.718558       101.1871 
 531   0.0000       3.725145       101.3663 
 532   0.0000       3.726023       101.3902 
 533   0.0000       3.733412       101.5913 
 534   0.0000       3.740746       101.7909 
 535   0.0000       3.745220       101.9126 
 536   0.0000       3.749409       102.0266 
 537   0.0000       3.755524       102.1930 
 538   0.0000       3.765520       102.4650 
 539   0.0000       3.773701       102.6876 
 540   0.0000       3.781331       102.8953 
 541   0.0000       3.787569       103.0650 
 542   0.0000       3.789026       103.1046 
 543   0.0000       3.797509       103.3355 
 544   0.0000       3.813941       103.7826 
 545   0.0000       3.817250       103.8726 
 546   0.0000       3.821166       103.9792 
 547   0.0000       3.825989       104.1104 
 548   0.0000       3.832335       104.2831 
 549   0.0000       3.840565       104.5071 
 550   0.0000       3.850545       104.7787 
 551   0.0000       3.852910       104.8430 
 552   0.0000       3.860342       105.0452 
 553   0.0000       3.874788       105.4383 
 554   0.0000       3.881985       105.6342 
 555   0.0000       3.896450       106.0278 
 556   0.0000       3.905455       106.2728 
 557   0.0000       3.916196       106.5651 
 558   0.0000       3.920191       106.6738 
 559   0.0000       3.928992       106.9133 
 560   0.0000       3.931401       106.9789 
 561   0.0000       3.948842       107.4535 
 562   0.0000       3.952580       107.5552 
 563   0.0000       3.971395       108.0672 
 564   0.0000       3.975360       108.1750 
 565   0.0000       3.983727       108.4027 
 566   0.0000       3.991996       108.6277 
 567   0.0000       3.993130       108.6586 
 568   0.0000       4.010525       109.1319 
 569   0.0000       4.014912       109.2513 
 570   0.0000       4.024267       109.5059 
 571   0.0000       4.040939       109.9596 
 572   0.0000       4.043036       110.0166 
 573   0.0000       4.049887       110.2030 
 574   0.0000       4.066564       110.6568 
 575   0.0000       4.072107       110.8077 
 576   0.0000       4.078496       110.9815 
 577   0.0000       4.080036       111.0234 
 578   0.0000       4.098568       111.5277 
 579   0.0000       4.111665       111.8841 
 580   0.0000       4.113933       111.9458 
 581   0.0000       4.122888       112.1895 
 582   0.0000       4.128566       112.3440 
 583   0.0000       4.137824       112.5959 
 584   0.0000       4.140665       112.6732 
 585   0.0000       4.148223       112.8789 
 586   0.0000       4.151354       112.9641 
 587   0.0000       4.157501       113.1314 
 588   0.0000       4.165151       113.3395 
 589   0.0000       4.175726       113.6273 
 590   0.0000       4.185308       113.8880 
 591   0.0000       4.189152       113.9926 
 592   0.0000       4.193065       114.0991 
 593   0.0000       4.196388       114.1895 
 594   0.0000       4.200973       114.3143 
 595   0.0000       4.213697       114.6605 
 596   0.0000       4.215754       114.7165 
 597   0.0000       4.225515       114.9821 
 598   0.0000       4.230669       115.1223 
 599   0.0000       4.240176       115.3811 
 600   0.0000       4.245702       115.5314 
 601   0.0000       4.255601       115.8008 
 602   0.0000       4.265498       116.0701 
 603   0.0000       4.274519       116.3156 
 604   0.0000       4.296040       116.9012 
 605   0.0000       4.297910       116.9521 
 606   0.0000       4.307428       117.2111 
 607   0.0000       4.316889       117.4685 
 608   0.0000       4.324867       117.6856 
 609   0.0000       4.328830       117.7935 
 610   0.0000       4.341427       118.1362 
 611   0.0000       4.343062       118.1807 
 612   0.0000       4.353276       118.4587 
 613   0.0000       4.356124       118.5362 
 614   0.0000       4.365028       118.7784 
 615   0.0000       4.371681       118.9595 
 616   0.0000       4.376222       119.0831 
 617   0.0000       4.386627       119.3662 
 618   0.0000       4.388406       119.4146 
 619   0.0000       4.397290       119.6564 
 620   0.0000       4.408213       119.9536 
 621   0.0000       4.415613       120.1549 
 622   0.0000       4.420124       120.2777 
 623   0.0000       4.431203       120.5792 
 624   0.0000       4.436699       120.7287 
 625   0.0000       4.440431       120.8303 
 626   0.0000       4.446028       120.9826 
 627   0.0000       4.460644       121.3803 
 628   0.0000       4.470805       121.6568 
 629   0.0000       4.475157       121.7752 
 630   0.0000       4.497670       122.3878 
 631   0.0000       4.505974       122.6138 
 632   0.0000       4.511426       122.7622 
 633   0.0000       4.526212       123.1645 
 634   0.0000       4.536285       123.4386 
 635   0.0000       4.540351       123.5492 
 636   0.0000       4.547642       123.7476 
 637   0.0000       4.556601       123.9914 
 638   0.0000       4.567083       124.2767 
 639   0.0000       4.571797       124.4049 
 640   0.0000       4.585289       124.7721 
 641   0.0000       4.593760       125.0026 
 642   0.0000       4.597886       125.1148 
 643   0.0000       4.611395       125.4824 
 644   0.0000       4.613592       125.5422 
 645   0.0000       4.616985       125.6345 
 646   0.0000       4.622739       125.7911 
 647   0.0000       4.634259       126.1046 
 648   0.0000       4.639390       126.2442 
 649   0.0000       4.648136       126.4822 
 650   0.0000       4.657333       126.7325 
 651   0.0000       4.663766       126.9075 
 652   0.0000       4.677449       127.2799 
 653   0.0000       4.684293       127.4661 
 654   0.0000       4.689089       127.5966 
 655   0.0000       4.695299       127.7656 
 656   0.0000       4.704392       128.0130 
 657   0.0000       4.714375       128.2847 
 658   0.0000       4.737257       128.9073 
 659   0.0000       4.739524       128.9690 
 660   0.0000       4.756698       129.4363 
 661   0.0000       4.760831       129.5488 
 662   0.0000       4.779133       130.0468 
 663   0.0000       4.785771       130.2274 
 664   0.0000       4.806256       130.7849 
 665   0.0000       4.818468       131.1172 
 666   0.0000       4.827278       131.3569 
 667   0.0000       4.842111       131.7605 
 668   0.0000       4.857314       132.1742 
 669   0.0000       4.877266       132.7172 
 670   0.0000       4.908625       133.5705 
 671   0.0000       4.924499       134.0024 
 672   0.0000       4.940711       134.4436 
 673   0.0000       4.960231       134.9747 
 674   0.0000       4.968875       135.2100 
 675   0.0000       4.990707       135.8041 
 676   0.0000       5.010412       136.3402 
 677   0.0000       5.022602       136.6720 
 678   0.0000       5.026980       136.7911 
 679   0.0000       5.040424       137.1569 
 680   0.0000       5.052412       137.4831 
 681   0.0000       5.077559       138.1674 
 682   0.0000       5.082058       138.2898 
 683   0.0000       5.087894       138.4486 
 684   0.0000       5.108150       138.9998 
 685   0.0000       5.117235       139.2470 
 686   0.0000       5.130215       139.6003 
 687   0.0000       5.142645       139.9385 
 688   0.0000       5.147274       140.0645 
 689   0.0000       5.149903       140.1360 
 690   0.0000       5.165886       140.5709 
 691   0.0000       5.167783       140.6225 
 692   0.0000       5.185436       141.1029 
 693   0.0000       5.195532       141.3776 
 694   0.0000       5.206572       141.6780 
 695   0.0000       5.213857       141.8763 
 696   0.0000       5.215830       141.9299 
 697   0.0000       5.225262       142.1866 
 698   0.0000       5.240045       142.5889 
 699   0.0000       5.250815       142.8819 
 700   0.0000       5.264427       143.2524 
 701   0.0000       5.272336       143.4676 
 702   0.0000       5.293225       144.0360 
 703   0.0000       5.312118       144.5501 
 704   0.0000       5.324576       144.8891 
 705   0.0000       5.327873       144.9788 
 706   0.0000       5.342117       145.3664 
 707   0.0000       5.357873       145.7951 
 708   0.0000       5.373658       146.2247 
 709   0.0000       5.381711       146.4438 
 710   0.0000       5.399218       146.9202 
 711   0.0000       5.410572       147.2292 
 712   0.0000       5.428195       147.7087 
 713   0.0000       5.447157       148.2247 
 714   0.0000       5.468942       148.8175 
 715   0.0000       5.492776       149.4660 
 716   0.0000       5.510857       149.9580 
 717   0.0000       5.514379       150.0539 
 718   0.0000       5.520851       150.2300 
 719   0.0000       5.523738       150.3086 
 720   0.0000       5.543011       150.8330 
 721   0.0000       5.546264       150.9215 
 722   0.0000       5.554624       151.1490 
 723   0.0000       5.572731       151.6417 
 724   0.0000       5.587498       152.0435 
 725   0.0000       5.603611       152.4820 
 726   0.0000       5.612904       152.7349 
 727   0.0000       5.627339       153.1277 
 728   0.0000       5.633470       153.2945 
 729   0.0000       5.636334       153.3724 
 730   0.0000       5.644082       153.5833 
 731   0.0000       5.664031       154.1261 
 732   0.0000       5.669602       154.2777 
 733   0.0000       5.691266       154.8672 
 734   0.0000       5.701192       155.1373 
 735   0.0000       5.711943       155.4299 
 736   0.0000       5.721684       155.6949 
 737   0.0000       5.735306       156.0656 
 738   0.0000       5.749678       156.4567 
 739   0.0000       5.755168       156.6061 
 740   0.0000       5.769091       156.9849 
 741   0.0000       5.785066       157.4196 
 742   0.0000       5.795056       157.6915 
 743   0.0000       5.814794       158.2286 
 744   0.0000       5.826136       158.5372 
 745   0.0000       5.848213       159.1380 
 746   0.0000       5.860635       159.4760 
 747   0.0000       5.873088       159.8148 
 748   0.0000       5.915220       160.9613 
 749   0.0000       5.928030       161.3099 
 750   0.0000       5.937816       161.5762 
 751   0.0000       5.973579       162.5493 
 752   0.0000       5.981846       162.7743 
 753   0.0000       5.992023       163.0512 
 754   0.0000       6.012008       163.5951 
 755   0.0000       6.019254       163.7922 
 756   0.0000       6.057336       164.8285 
 757   0.0000       6.065509       165.0509 
 758   0.0000       6.073930       165.2800 
 759   0.0000       6.098190       165.9402 
 760   0.0000       6.114179       166.3753 
 761   0.0000       6.166659       167.8033 
 762   0.0000       6.219160       169.2319 
 763   0.0000       6.226698       169.4371 
 764   0.0000       6.238171       169.7493 
 765   0.0000       6.254056       170.1815 
 766   0.0000       6.292180       171.2189 
 767   0.0000       6.298120       171.3805 
 768   0.0000       6.349742       172.7853 
 769   0.0000       6.370156       173.3408 
 770   0.0000       6.374880       173.4693 
 771   0.0000       6.388708       173.8456 
 772   0.0000       6.410931       174.4503 
 773   0.0000       6.446636       175.4219 
 774   0.0000       6.461157       175.8170 
 775   0.0000       6.495781       176.7592 
 776   0.0000       6.504601       176.9992 
 777   0.0000       6.555320       178.3793 
 778   0.0000       6.585561       179.2022 
 779   0.0000       6.594704       179.4510 
 780   0.0000       6.648080       180.9035 
 781   0.0000       6.675753       181.6565 
 782   0.0000       6.736172       183.3006 
 783   0.0000       6.769752       184.2143 
 784   0.0000       6.813006       185.3913 
 785   0.0000       6.886373       187.3877 
 786   0.0000       6.910709       188.0499 
 787   0.0000       6.917438       188.2331 
 788   0.0000       6.920921       188.3278 
 789   0.0000       7.046023       191.7320 
 790   0.0000       7.053701       191.9410 
 791   0.0000       7.070716       192.4040 
 792   0.0000       7.080922       192.6817 
 793   0.0000       7.144846       194.4211 
 794   0.0000       7.226330       196.6384 
 795   0.0000       7.259919       197.5524 
 796   0.0000       7.281379       198.1364 
 797   0.0000       7.287801       198.3111 
 798   0.0000       7.343048       199.8145 
 799   0.0000       7.368521       200.5076 
 800   0.0000       7.433813       202.2843 
 801   0.0000       7.541392       205.2117 
 802   0.0000       7.577494       206.1941 
 803   0.0000       7.584117       206.3743 
 804   0.0000       7.697530       209.4604 
 805   0.0000       7.816195       212.6895 
 806   0.0000       7.855290       213.7533 
 807   0.0000       7.934880       215.9191 
 808   0.0000       7.962579       216.6728 
 809   0.0000       9.332240       253.9432 
 810   0.0000       9.470170       257.6964 
 811   0.0000      10.814467       294.2766 
 812   0.0000      11.406990       310.4000 
 813   0.0000      11.926297       324.5310 
 814   0.0000      12.566996       341.9653 
 815   0.0000      12.909453       351.2841 
 816   0.0000      13.065857       355.5400 
 817   0.0000      13.138518       357.5173 
 818   0.0000      13.248623       360.5134 
 819   0.0000      13.391410       364.3988 
 820   0.0000      13.534292       368.2868 
 821   0.0000      13.688239       372.4759 
 822   0.0000      13.925832       378.9412 
 823   0.0000      13.949054       379.5731 
 824   0.0000      14.059764       382.5856 
 825   0.0000      14.589695       397.0058 
 826   0.0000      14.823824       403.3768 
 827   0.0000      15.982325       434.9012 

                    ********************************
                    * MULLIKEN POPULATION ANALYSIS *
                    ********************************

-----------------------
MULLIKEN ATOMIC CHARGES
-----------------------
   0 C :   -0.263587
   1 C :    0.014712
   2 O :   -0.358173
   3 C :    0.466766
   4 O :   -0.427316
   5 C :   -0.232314
   6 C :    0.153575
   7 C :   -0.272209
   8 N :   -0.122178
   9 C :    0.211085
  10 S :   -0.439456
  11 N :   -0.204583
  12 C :    0.059073
  13 C :    0.058693
  14 C :   -0.187571
  15 C :   -0.131455
  16 C :   -0.279380
  17 C :    0.315487
  18 O :   -0.356011
  19 C :   -0.267699
  20 H :    0.091620
  21 H :    0.089410
  22 H :    0.098266
  23 H :    0.128314
  24 H :    0.104083
  25 H :    0.132870
  26 H :    0.130108
  27 H :    0.095102
  28 H :    0.197606
  29 H :    0.194731
  30 H :    0.150099
  31 H :    0.152297
  32 H :    0.160957
  33 H :    0.130794
  34 H :    0.240756
  35 H :    0.165528
Sum of atomic charges:   -0.0000000

--------------------------------
MULLIKEN REDUCED ORBITAL CHARGES
--------------------------------
  0 C s       :     3.257713  s :     3.257713
      pz      :     1.002244  p :     2.929904
      px      :     0.999539
      py      :     0.928122
      dz2     :     0.014715  d :     0.071518
      dxz     :     0.017433
      dyz     :     0.013542
      dx2y2   :     0.007675
      dxy     :     0.018152
      f0      :     0.000417  f :     0.004451
      f+1     :     0.001000
      f-1     :     0.000450
      f+2     :     0.000450
      f-2     :     0.000786
      f+3     :     0.000650
      f-3     :     0.000700
  1 C s       :     3.173287  s :     3.173287
      pz      :     1.015206  p :     2.646275
      px      :     0.791262
      py      :     0.839806
      dz2     :     0.022164  d :     0.153909
      dxz     :     0.037695
      dyz     :     0.023452
      dx2y2   :     0.030060
      dxy     :     0.040537
      f0      :     0.001483  f :     0.011818
      f+1     :     0.001600
      f-1     :     0.000942
      f+2     :     0.000644
      f-2     :     0.002319
      f+3     :     0.002615
      f-3     :     0.002215
  2 O s       :     3.719421  s :     3.719421
      pz      :     1.814922  p :     4.602235
      px      :     1.544121
      py      :     1.243192
      dz2     :     0.003838  d :     0.034241
      dxz     :     0.002957
      dyz     :     0.005093
      dx2y2   :     0.013452
      dxy     :     0.008901
      f0      :     0.000252  f :     0.002276
      f+1     :     0.000208
      f-1     :     0.000505
      f+2     :     0.000183
      f-2     :     0.000121
[...]
 15 C s       :     2.705735  s :     2.705735
      pz      :     0.932134  p :     2.797390
      px      :     0.892229
      py      :     0.973027
      dz2     :     0.113746  d :     0.417452
      dxz     :     0.068065
      dyz     :     0.075777
      dx2y2   :     0.103530
      dxy     :     0.056335
      f0      :     0.004467  f :     0.041079
      f+1     :     0.005396
      f-1     :     0.007569
      f+2     :     0.007462
      f-2     :     0.006546
      f+3     :     0.004279
      f-3     :     0.005360
 16 C s       :     2.701720  s :     2.701720
      pz      :     0.950646  p :     2.870066
      px      :     0.939007
      py      :     0.980414
      dz2     :     0.059772  d :     0.390226
      dxz     :     0.049880
      dyz     :     0.107233
      dx2y2   :     0.083103
      dxy     :     0.090239
      f0      :     0.005531  f :     0.040269
      f+1     :     0.004264
      f-1     :     0.005309
      f+2     :     0.007023
      f-2     :     0.004687
      f+3     :     0.007953
      f-3     :     0.005502
 17 C s       :     2.701660  s :     2.701660
      pz      :     0.848124  p :     2.680342
      px      :     0.823105
      py      :     1.009112
      dz2     :     0.148563  d :     0.708394
      dxz     :     0.097228
      dyz     :     0.176998
      dx2y2   :     0.134748
      dxy     :     0.150857
      f0      :     0.014450  f :     0.099208
      f+1     :     0.012494
      f-1     :     0.014134
      f+2     :     0.019014
      f-2     :     0.013991
      f+3     :     0.014316
      f-3     :     0.010808
 18 O s       :     3.177162  s :     3.177162
      pz      :     1.363212  p :     4.346803
      px      :     1.480212
      py      :     1.503379
      dz2     :     0.011217  d :     0.075471
      dxz     :     0.016158
      dyz     :     0.024107
      dx2y2   :     0.009218
      dxy     :     0.014771
      f0      :     0.000713  f :     0.005062
      f+1     :     0.000557
      f-1     :     0.000711
      f+2     :     0.000922
      f-2     :     0.001070
      f+3     :     0.000597
      f-3     :     0.000491
 19 C s       :     2.695113  s :     2.695113
      pz      :     0.948916  p :     2.845067
      px      :     0.927604
      py      :     0.968547
      dz2     :     0.092703  d :     0.387584
      dxz     :     0.067053
      dyz     :     0.078979
      dx2y2   :     0.090554
      dxy     :     0.058295
      f0      :     0.004365  f :     0.040783
      f+1     :     0.006030
      f-1     :     0.007041
      f+2     :     0.007305
      f-2     :     0.007033
      f+3     :     0.004108
      f-3     :     0.004899
 20 H s       :     0.846961  s :     0.846961
      pz      :     0.040305  p :     0.150631
      px      :     0.058100
      py      :     0.052226
      dz2     :     0.002303  d :     0.027384
      dxz     :     0.006079
      dyz     :     0.003549
      dx2y2   :     0.008521
      dxy     :     0.006931
 21 H s       :     0.852607  s :     0.852607
      pz      :     0.052424  p :     0.151374
      px      :     0.053799
      py      :     0.045151
      dz2     :     0.006774  d :     0.027513
      dxz     :     0.005819
      dyz     :     0.004570
      dx2y2   :     0.005109
      dxy     :     0.005240
 22 H s       :     0.848152  s :     0.848152
      pz      :     0.065697  p :     0.150108
      px      :     0.046703
      py      :     0.037708
      dz2     :     0.008856  d :     0.027493
      dxz     :     0.007738
      dyz     :     0.006772
      dx2y2   :     0.001723
      dxy     :     0.002405
 23 H s       :     0.850385  s :     0.850385
      pz      :     0.057301  p :     0.149820
      px      :     0.049338
      py      :     0.043181
      dz2     :     0.007536  d :     0.027261
      dxz     :     0.006724
      dyz     :     0.003647
      dx2y2   :     0.004093
      dxy     :     0.005261
 24 H s       :     0.857621  s :     0.857621
      pz      :     0.070167  p :     0.145464
      px      :     0.040442
      py      :     0.034855
      dz2     :     0.007867  d :     0.026802
      dxz     :     0.008312
      dyz     :     0.006747
      dx2y2   :     0.001696
      dxy     :     0.002181
 25 H s       :     0.825441  s :     0.825441
      pz      :     0.041029  p :     0.151213
      px      :     0.072659
      py      :     0.037525
      dz2     :     0.003585  d :     0.027741
      dxz     :     0.008489
      dyz     :     0.000406
      dx2y2   :     0.007043
      dxy     :     0.008217
 26 H s       :     0.825407  s :     0.825407
      pz      :     0.074217  p :     0.150881
      px      :     0.039255
      py      :     0.037408
      dz2     :     0.009554  d :     0.027756
      dxz     :     0.009145
      dyz     :     0.008452
      dx2y2   :     0.000443
      dxy     :     0.000162
 27 H s       :     0.845291  s :     0.845291
      pz      :     0.041044  p :     0.150361
      px      :     0.040697
      py      :     0.068620
      dz2     :     0.003188  d :     0.027702
      dxz     :     0.000637
      dyz     :     0.008234
      dx2y2   :     0.007499
      dxy     :     0.008144
 28 H s       :     0.742005  s :     0.742005
      pz      :     0.073090  p :     0.253696
      px      :     0.059533
      py      :     0.121073
      dz2     :     0.005459  d :     0.061822
      dxz     :     0.000402
      dyz     :     0.021200
      dx2y2   :     0.015924
      dxy     :     0.018837
 29 H s       :     0.748988  s :     0.748988
      pz      :     0.099273  p :     0.254193
      px      :     0.099944
      py      :     0.054976
      dz2     :     0.014288  d :     0.061407
      dxz     :     0.012869
      dyz     :     0.009033
      dx2y2   :     0.013023
      dxy     :     0.012195
 30 H s       :     0.833357  s :     0.833357
      pz      :     0.054131  p :     0.148720
      px      :     0.041507
      py      :     0.053082
      dz2     :     0.006206  d :     0.028455
      dxz     :     0.005421
      dyz     :     0.006697
      dx2y2   :     0.004337
      dxy     :     0.005794
 31 H s       :     0.846039  s :     0.846039
      pz      :     0.059402  p :     0.157372
      px      :     0.056971
      py      :     0.040998
      dz2     :     0.006674  d :     0.027561
      dxz     :     0.006095
      dyz     :     0.005600
      dx2y2   :     0.004644
      dxy     :     0.004549
 32 H s       :     0.843452  s :     0.843452
      pz      :     0.035652  p :     0.151455
      px      :     0.037612
      py      :     0.078192
      dz2     :     0.002663  d :     0.026465
      dxz     :     0.000119
      dyz     :     0.008109
      dx2y2   :     0.007713
      dxy     :     0.007862
 33 H s       :     0.848567  s :     0.848567
      pz      :     0.059439  p :     0.159155
      px      :     0.053214
      py      :     0.046501
      dz2     :     0.006918  d :     0.027767
      dxz     :     0.005529
      dyz     :     0.006097
      dx2y2   :     0.004776
      dxy     :     0.004448
 34 H s       :     0.706433  s :     0.706433
      pz      :     0.108564  p :     0.347797
      px      :     0.099196
      py      :     0.140037
      dz2     :     0.023483  d :     0.099570
      dxz     :     0.013708
      dyz     :     0.023390
      dx2y2   :     0.019258
      dxy     :     0.019731
 35 H s       :     0.838647  s :     0.838647
      pz      :     0.036862  p :     0.156779
      px      :     0.040461
      py      :     0.079455
      dz2     :     0.002713  d :     0.028024
      dxz     :     0.000119
      dyz     :     0.008743
      dx2y2   :     0.007780
      dxy     :     0.008669


                      *****************************
                      * MAYER POPULATION ANALYSIS *
                      *****************************

  NA   - Mulliken gross atomic population
  ZA   - Total nuclear charge
  QA   - Mulliken gross atomic charge
  VA   - Mayer's total valence
  BVA  - Mayer's bonded valence
  FA   - Mayer's free valence

  ATOM       NA         ZA         QA         VA         BVA        FA
  0 C      6.2636     6.0000    -0.2636     3.8981     3.8981     0.0000
  1 C      5.9853     6.0000     0.0147     3.8344     3.8344    -0.0000
  2 O      8.3582     8.0000    -0.3582     2.0516     2.0516     0.0000
  3 C      5.5332     6.0000     0.4668     4.2429     4.2429    -0.0000
  4 O      8.4273     8.0000    -0.4273     2.0886     2.0886    -0.0000
  5 C      6.2323     6.0000    -0.2323     3.6408     3.6408    -0.0000
  6 C      5.8464     6.0000     0.1536     3.8834     3.8834    -0.0000
  7 C      6.2722     6.0000    -0.2722     3.9044     3.9044     0.0000
  8 N      7.1222     7.0000    -0.1222     3.3086     3.3086     0.0000
  9 C      5.7889     6.0000     0.2111     4.1525     4.1525     0.0000
 10 S     16.4395    16.0000    -0.4395     1.7555     1.7555     0.0000
 11 N      7.2046     7.0000    -0.2046     3.2535     3.2535    -0.0000
 12 C      5.9409     6.0000     0.0591     3.9417     3.9417    -0.0000
 13 C      5.9413     6.0000     0.0587     3.7173     3.7173    -0.0000
 14 C      6.1876     6.0000    -0.1876     3.8482     3.8482    -0.0000
 15 C      6.1315     6.0000    -0.1315     3.7983     3.7983    -0.0000
 16 C      6.2794     6.0000    -0.2794     3.7955     3.7955    -0.0000
 17 C      5.6845     6.0000     0.3155     3.8754     3.8754    -0.0000
 18 O      8.3560     8.0000    -0.3560     2.1198     2.1198     0.0000
 19 C      6.2677     6.0000    -0.2677     3.8595     3.8595    -0.0000
 20 H      0.9084     1.0000     0.0916     0.9839     0.9839     0.0000
 21 H      0.9106     1.0000     0.0894     0.9847     0.9847     0.0000
 22 H      0.9017     1.0000     0.0983     0.9856     0.9856     0.0000
 23 H      0.8717     1.0000     0.1283     0.9848     0.9848     0.0000
 24 H      0.8959     1.0000     0.1041     0.9721     0.9721    -0.0000
 25 H      0.8671     1.0000     0.1329     0.9797     0.9797     0.0000
 26 H      0.8699     1.0000     0.1301     0.9813     0.9813     0.0000
 27 H      0.9049     1.0000     0.0951     0.9859     0.9859    -0.0000
 28 H      0.8024     1.0000     0.1976     1.0226     1.0226     0.0000
 29 H      0.8053     1.0000     0.1947     1.0189     1.0189    -0.0000
 30 H      0.8499     1.0000     0.1501     0.9936     0.9936    -0.0000
 31 H      0.8477     1.0000     0.1523     0.9844     0.9844    -0.0000
 32 H      0.8390     1.0000     0.1610     0.9769     0.9769    -0.0000
 33 H      0.8692     1.0000     0.1308     0.9917     0.9917     0.0000
 34 H      0.7592     1.0000     0.2408     1.0106     1.0106    -0.0000
 35 H      0.8345     1.0000     0.1655     0.9870     0.9870    -0.0000

  Mayer bond orders larger than 0.100000
B(  0-C ,  1-C ) :   0.9737 B(  0-C , 20-H ) :   0.9770 B(  0-C , 21-H ) :   0.9794 
B(  0-C , 22-H ) :   0.9776 B(  1-C ,  2-O ) :   0.8808 B(  1-C , 23-H ) :   0.9780 
B(  1-C , 24-H ) :   0.9716 B(  2-O ,  3-C ) :   1.1584 B(  3-C ,  4-O ) :   1.9898 
B(  3-C ,  5-C ) :   1.0550 B(  5-C ,  6-C ) :   1.6552 B(  5-C , 12-C ) :   0.9726 
B(  6-C ,  7-C ) :   0.9669 B(  6-C ,  8-N ) :   1.1623 B(  7-C , 25-H ) :   0.9594 
B(  7-C , 26-H ) :   0.9612 B(  7-C , 27-H ) :   0.9905 B(  8-N ,  9-C ) :   1.1832 
B(  8-N , 28-H ) :   0.9479 B(  9-C , 10-S ) :   1.6080 B(  9-C , 11-N ) :   1.3048 
B( 11-N , 12-C ) :   0.9871 B( 11-N , 29-H ) :   0.9517 B( 12-C , 13-C ) :   0.9342 
B( 12-C , 30-H ) :   1.0027 B( 13-C , 14-C ) :   1.3587 B( 13-C , 19-C ) :   1.3831 
B( 14-C , 15-C ) :   1.3891 B( 14-C , 31-H ) :   0.9714 B( 15-C , 16-C ) :   1.3634 
B( 15-C , 32-H ) :   0.9703 B( 16-C , 17-C ) :   1.3317 B( 16-C , 33-H ) :   0.9848 
B( 17-C , 18-O ) :   1.1111 B( 17-C , 19-C ) :   1.3720 B( 18-O , 34-H ) :   0.9798 
B( 19-C , 35-H ) :   0.9580 

-------
TIMINGS
-------

Total SCF time: 0 days 1 hours 41 min 54 sec 

Total time                  ....    6114.943 sec
Sum of individual times     ....    6104.965 sec  ( 99.8%)

Fock matrix formation       ....    6068.418 sec  ( 99.2%)
Diagonalization             ....       1.936 sec  (  0.0%)
Density matrix formation    ....       0.212 sec  (  0.0%)
Population analysis         ....       0.548 sec  (  0.0%)
Initial guess               ....       6.117 sec  (  0.1%)
Orbital Transformation      ....       0.000 sec  (  0.0%)
Orbital Orthonormalization  ....       0.000 sec  (  0.0%)
DIIS solution               ....      20.280 sec  (  0.3%)
SOSCF solution              ....       5.721 sec  (  0.1%)

Maximum memory used throughout the entire SCF-calculation: 733.8 MB

------------------------------------------------------------------------------
                                ORCA  MP2 
------------------------------------------------------------------------------

Freezing NCore=48 chemical core electrons

-------------
RI-MP2 ENERGY
-------------
Dimension of the basis                    ...  828
Memory devoted to MP2                     ...  256 MB   
Data format for buffers                   ... DOUBLE
Compression type for matrix containers    ... UNCOMPRESSED
Overall scaling of the MP2 energy         ...   1.000e+00
Calculating two index integrals           ... done (    0.033 sec)
Cholesky decomposition of V**-1           ... done (    0.480 sec)

-----------------
RI-TRANSFORMATION (AUX index driven)
-----------------

Dimension of the orbital-basis         ... 828
Dimension of the aux-basis             ... 2141
Transformation of internal/external MOs...   24-  76 to   77- 827
Number Format for Storage              ... Double (8 Byte)
Integral mode                          ... Direct

First Phase: integral generation and transformation of MO indices
  Aux angular momentum 0               ... done (    6.186 sec)
  Aux angular momentum 1               ... done (   11.301 sec)
  Aux angular momentum 2               ... done (   10.526 sec)
  Aux angular momentum 3               ... done (    9.196 sec)
  Aux angular momentum 4               ... done (    2.660 sec)
Closing buffer VIA ( 0.63 GB; CompressionRatio= 1.00)
  Phase 1 completed in    40.095 sec
Second Phase: sorting and transformation of aux index

IA-Transformation
Memory available                       ... 157 MB 
Max. # MO pairs treated in a batch     ... 11    
# of internal orbitals                 ... 53
# batches for internal orbitals        ... 5
Closing buffer IAV ( 0.63 GB; CompressionRatio= 1.00)
(ia|v) transformation done in   172.339 sec

  Phase 2 completed in   172.443 sec
RI-Integral transformation completed in   212.555 sec
Opening buffers                              ... done

Starting loop over batches of integrals:

Operator 0  - window                       ... ( 24- 76)x( 77-827)
Operator 0  - Memory available             ...   256 MB
Operator 0  - Memory needed per MO         ...  12.3 MB
Operator 0  - Number of orbitals per batch ... 13
Operator 0  - Number of batches            ... 5

OPERATOR  0   PASS   0:  MOs    24 ...   36
  Reading integrals       ... ok
  Internal MO  26
  Internal MO  29
  Internal MO  32
  Internal MO  35
OPERATOR  0   PASS   1:  MOs    37 ...   49
  Reading integrals       ... ok
  Internal MO  38
  Internal MO  41
  Internal MO  44
  Internal MO  47
OPERATOR  0   PASS   2:  MOs    50 ...   62
  Reading integrals       ... ok
  Internal MO  50
  Internal MO  53
  Internal MO  56
  Internal MO  59
  Internal MO  62
OPERATOR  0   PASS   3:  MOs    63 ...   75
  Reading integrals       ... ok
  Internal MO  65
  Internal MO  68
  Internal MO  71
  Internal MO  74
OPERATOR  0   PASS   4:  MOs    76 ...   76
  Reading integrals       ... ok
Time spent in pair loops =   200.347 sec
Deleting buffer (Ka|jb)[aa] ...done

-----------------------------------------------
 RI-MP2 CORRELATION ENERGY:     -3.530651206 Eh
-----------------------------------------------


-------
TIMINGS
-------

Total time                :  413.601 sec
Integral trafo            :  212.565 sec ( 51.4%)
I/O of integrals          :    6.057 sec (  1.5%)
K(i,j) Operators          :   90.082 sec ( 21.8%)
T(i,j) pair energies      :    3.464 sec (  0.8%)
V-calculation             :    0.033 sec (  0.0%)
V**(-1/2)                 :    0.480 sec (  0.1%)
Gamma(ia|P)               :    0.000 sec (  0.0%)
Gamma-Trafo               :    0.000 sec (  0.0%)
D(virtual)                :    0.000 sec (  0.0%)
D(internal)               :    0.000 sec (  0.0%)
W(virtual)                :    0.000 sec (  0.0%)
W(internal)               :    0.000 sec (  0.0%)
L(virtual)                :    0.000 sec (  0.0%)
L(internal)               :    0.000 sec (  0.0%)
G(D)                      :    0.000 sec (  0.0%)
G(Z)                      :    0.000 sec (  0.0%)
Z-Vector Solution         :    0.000 sec (  0.0%)
3-Index Derivative        :    0.000 sec (  0.0%)
2-Index Derivative        :    0.000 sec (  0.0%)
Separable Gradient        :    0.000 sec (  0.0%)


---------------------------------------
MP2 TOTAL ENERGY:    -1274.347196933 Eh
---------------------------------------

Maximum memory used throughout the entire MP2-calculation: 304.2 MB

-------------------------   --------------------
FINAL SINGLE POINT ENERGY     -1274.347196932701
-------------------------   --------------------


                            ***************************************
                            *     ORCA property calculations      *
                            ***************************************


  WARNING: The energy has been calculated at the MP2 level but the densities
           used in the property calculations are still SCF densities
           MP2 response densities have not been calculated 
           use %mp2 Density relaxed end
           or  %mp2 Density unrelaxed end

                                    ---------------------
                                    Active property flags
                                    ---------------------
   (+) Dipole Moment


------------------------------------------------------------------------------
                       ORCA ELECTRIC PROPERTIES CALCULATION
------------------------------------------------------------------------------

Dipole Moment Calculation                       ... on
Quadrupole Moment Calculation                   ... off
Polarizability Calculation                      ... off
GBWName                                         ... CONFS/Conf896.orca.gbw
Electron density file                           ... CONFS/Conf896.orca.scfp
The origin for moment calculation is the CENTER OF MASS  = (32.878880, 31.543956 35.298160)

-------------
DIPOLE MOMENT
-------------
                                X             Y             Z
Electronic contribution:      9.21764      11.13363       7.79687
Nuclear contribution   :    -10.39944     -12.71021      -8.07734
                        -----------------------------------------
Total Dipole Moment    :     -1.18180      -1.57658      -0.28047
                        -----------------------------------------
Magnitude (a.u.)       :      1.99021
Magnitude (Debye)      :      5.05871



--------------------
Rotational spectrum 
--------------------
 
Rotational constants in cm-1:     0.011938     0.008455     0.006204 
Rotational constants in MHz :   357.878547   253.487734   185.976502 

 Dipole components along the rotational axes: 
x,y,z [a.u.] :    -1.988211     0.007275     0.088861 
x,y,z [Debye]:    -5.053631     0.018491     0.225866 

 

Timings for individual modules:

Sum of individual times         ...     6533.749 sec (= 108.896 min)
GTO integral calculation        ...        3.436 sec (=   0.057 min)   0.1 %
SCF iterations                  ...     6115.215 sec (= 101.920 min)  93.6 %
MP2 module                      ...      415.097 sec (=   6.918 min)   6.4 %
                             ****ORCA TERMINATED NORMALLY****
TOTAL RUN TIME: 0 days 1 hours 48 minutes 55 seconds 761 msec
