
                                        *****************
                                        * O   R   C   A *
                                        *****************

                                            #,                                       
                                            ###                                      
                                            ####                                     
                                            #####                                    
                                            ######                                   
                                           ########,                                 
                                     ,,################,,,,,                         
                               ,,#################################,,                 
                          ,,##########################################,,             
                       ,#########################################, ''#####,          
                    ,#############################################,,   '####,        
                  ,##################################################,,,,####,       
                ,###########''''           ''''###############################       
              ,#####''   ,,,,##########,,,,          '''####'''          '####       
            ,##' ,,,,###########################,,,                        '##       
           ' ,,###''''                  '''############,,,                           
         ,,##''                                '''############,,,,        ,,,,,,###''
      ,#''                                            '''#######################'''  
     '                                                          ''''####''''         
             ,#######,   #######,   ,#######,      ##                                
            ,#'     '#,  ##    ##  ,#'     '#,    #''#        ######   ,####,        
            ##       ##  ##   ,#'  ##            #'  '#       #        #'  '#        
            ##       ##  #######   ##           ,######,      #####,   #    #        
            '#,     ,#'  ##    ##  '#,     ,#' ,#      #,         ##   #,  ,#        
             '#######'   ##     ##  '#######'  #'      '#     #####' # '####'        



                  #######################################################
                  #                        -***-                        #
                  #          Department of theory and spectroscopy      #
                  #    Directorship and core code : Frank Neese         #
                  #        Max Planck Institute fuer Kohlenforschung    #
                  #                Kaiser Wilhelm Platz 1               #
                  #                 D-45470 Muelheim/Ruhr               #
                  #                      Germany                        #
                  #                                                     #
                  #                  All rights reserved                #
                  #                        -***-                        #
                  #######################################################


                         Program Version 5.0.0 -  RELEASE  -
                                (SVN: $Rev: 19529$)
                ($Date: 2021-06-28 11:36:33 +0200 (Mo, 28 Jun 2021) $)


 With contributions from (in alphabetic order):
   Daniel Aravena         : Magnetic Suceptibility
   Michael Atanasov       : Ab Initio Ligand Field Theory (pilot matlab implementation)
   Alexander A. Auer      : GIAO ZORA, VPT2 properties, NMR spectrum
   Ute Becker             : Parallelization
   Giovanni Bistoni       : ED, misc. LED, open-shell LED, HFLD
   Martin Brehm           : Molecular dynamics
   Dmytro Bykov           : SCF Hessian
   Vijay G. Chilkuri      : MRCI spin determinant printing, contributions to CSF-ICE
   Dipayan Datta          : RHF DLPNO-CCSD density
   Achintya Kumar Dutta   : EOM-CC, STEOM-CC
   Dmitry Ganyushin       : Spin-Orbit,Spin-Spin,Magnetic field MRCI
   Miquel Garcia          : C-PCM Hessian, Gaussian charge scheme
   Yang Guo               : DLPNO-NEVPT2, F12-NEVPT2, CIM, IAO-localization
   Andreas Hansen         : Spin unrestricted coupled pair/coupled cluster methods
   Benjamin Helmich-Paris : MC-RPA, TRAH-SCF, COSX integrals
   Lee Huntington         : MR-EOM, pCC
   Robert Izsak           : Overlap fitted RIJCOSX, COSX-SCS-MP3, EOM
   Marcus Kettner         : VPT2
   Christian Kollmar      : KDIIS, OOCD, Brueckner-CCSD(T), CCSD density, CASPT2, CASPT2-K
   Simone Kossmann        : Meta GGA functionals, TD-DFT gradient, OOMP2, MP2 Hessian
   Martin Krupicka        : Initial AUTO-CI
   Lucas Lang             : DCDCAS
   Marvin Lechner         : AUTO-CI (C++ implementation), FIC-MRCC
   Dagmar Lenk            : GEPOL surface, SMD
   Dimitrios Liakos       : Extrapolation schemes; Compound Job, initial MDCI parallelization
   Dimitrios Manganas     : Further ROCIS development; embedding schemes
   Dimitrios Pantazis     : SARC Basis sets
   Anastasios Papadopoulos: AUTO-CI, single reference methods and gradients
   Taras Petrenko         : DFT Hessian,TD-DFT gradient, ASA, ECA, R-Raman, ABS, FL, XAS/XES, NRVS
   Peter Pinski           : DLPNO-MP2, DLPNO-MP2 Gradient
   Christoph Reimann      : Effective Core Potentials
   Marius Retegan         : Local ZFS, SOC
   Christoph Riplinger    : Optimizer, TS searches, QM/MM, DLPNO-CCSD(T), (RO)-DLPNO pert. Triples
   Tobias Risthaus        : Range-separated hybrids, TD-DFT gradient, RPA, STAB
   Michael Roemelt        : Original ROCIS implementation
   Masaaki Saitow         : Open-shell DLPNO-CCSD energy and density
   Barbara Sandhoefer     : DKH picture change effects
   Avijit Sen             : IP-ROCIS
   Kantharuban Sivalingam : CASSCF convergence, NEVPT2, FIC-MRCI
   Bernardo de Souza      : ESD, SOC TD-DFT
   Georgi Stoychev        : AutoAux, RI-MP2 NMR
   Willem Van den Heuvel  : Paramagnetic NMR
   Boris Wezisla          : Elementary symmetry handling
   Frank Wennmohs         : Technical directorship


 We gratefully acknowledge several colleagues who have allowed us to
 interface, adapt or use parts of their codes:
   Stefan Grimme, W. Hujo, H. Kruse, P. Pracht,  : VdW corrections, initial TS optimization,
                  C. Bannwarth, S. Ehlert          DFT functionals, gCP, sTDA/sTD-DF
   Ed Valeev, F. Pavosevic, A. Kumar             : LibInt (2-el integral package), F12 methods
   Garnet Chan, S. Sharma, J. Yang, R. Olivares  : DMRG
   Ulf Ekstrom                                   : XCFun DFT Library
   Mihaly Kallay                                 : mrcc  (arbitrary order and MRCC methods)
   Jiri Pittner, Ondrej Demel                    : Mk-CCSD
   Frank Weinhold                                : gennbo (NPA and NBO analysis)
   Christopher J. Cramer and Donald G. Truhlar   : smd solvation model
   Lars Goerigk                                  : TD-DFT with DH, B97 family of functionals
   V. Asgeirsson, H. Jonsson                     : NEB implementation
   FAccTs GmbH                                   : IRC, NEB, NEB-TS, DLPNO-Multilevel, CI-OPT
                                                   MM, QMMM, 2- and 3-layer-ONIOM, Crystal-QMMM,
                                                   LR-CPCM, SF, NACMEs, symmetry and pop. for TD-DFT,
                                                   nearIR, NL-DFT gradient (VV10), updates on ESD,
                                                   ML-optimized integration grids
   S Lehtola, MJT Oliveira, MAL Marques          : LibXC Library
   Liviu Ungur et al                             : ANISO software


 Your calculation uses the libint2 library for the computation of 2-el integrals
 For citations please refer to: http://libint.valeyev.net

 Your ORCA version has been built with support for libXC version: 5.1.0
 For citations please refer to: https://tddft.org/programs/libxc/

 This ORCA versions uses:
   CBLAS   interface :  Fast vector & matrix operations
   LAPACKE interface :  Fast linear algebra routines
   SCALAPACK package :  Parallel linear algebra routines
   Shared memory     :  Shared parallel matrices
   BLAS/LAPACK       :  OpenBLAS 0.3.15  USE64BITINT DYNAMIC_ARCH NO_AFFINITY SkylakeX SINGLE_THREADED
        Core in use  :  SkylakeX
   Copyright (c) 2011-2014, The OpenBLAS Project


================================================================================

----- Orbital basis set information -----
Your calculation utilizes the basis: cc-pVTZ 
       H, B-Ne : Obtained from the ccRepo (grant-hill.group.shef.ac.uk/ccrepo) Feb. 2017
                 T. H. Dunning, Jr., J. Chem. Phys. 90, 1007 (1989)
            He : Obtained from the ccRepo (grant-hill.group.shef.ac.uk/ccrepo) Feb. 2017
                 D. E. Woon, T. H. Dunning, Jr., J. Chem. Phys. 100, 2975 (1994)
  Li-Be, Na-Mg : Obtained from the ccRepo (grant-hill.group.shef.ac.uk/ccrepo) Feb. 2017
                 B. P. Prascher, D. E. Woon, K. A. Peterson, T. H. Dunning, Jr., A. K. Wilson, Theor. Chem. Acc. 128, 69 (2011)
         Al-Ar : Obtained from the ccRepo (grant-hill.group.shef.ac.uk/ccrepo) Feb. 2017
                 D. E. Woon, T. H. Dunning, Jr., J. Chem. Phys. 98, 1358 (1993)
            Ca : Obtained from the Peterson Research Group Website (tyr0.chem.wsu.edu/~kipeters) Feb. 2017
                 J. Koput, K. A. Peterson, J. Phys. Chem. 106, 9595 (2002)
         Sc-Zn : Obtained from the ccRepo (grant-hill.group.shef.ac.uk/ccrepo) Feb. 2017
                 N. B. Balabanov, K. A. Peterson, J. Chem. Phys. 123, 064107 (2005)
                 N. B. Balabanov, K. A. Peterson, J. Chem. Phys. 125, 074110 (2006)
         Ga-Kr : Obtained from the ccRepo (grant-hill.group.shef.ac.uk/ccrepo) Feb. 2017
                 A. K. Wilson, D. E. Woon, K. A. Peterson, T. H. Dunning, Jr., J. Chem. Phys. 110, 7667 (1999)
             Y : Obtained from the ccRepo (grant-hill.group.shef.ac.uk/ccrepo) Feb. 2017
                 K. A. Peterson, D. Figgen, M. Dolg, H. Stoll, J. Chem. Phys. 126, 124101 (2007)
        Ag, Au : Obtained from the Peterson Research Group Website (tyr0.chem.wsu.edu/~kipeters) Feb. 2017
                 K. A. Peterson, C. Puzzarini, Theor. Chem. Acc. 114, 283 (2005)

----- AuxC basis set information -----
Your calculation utilizes the auxiliary basis: cc-pVTZ/C 
  Obtained from the EMSL Basis Set Exchange (bse.pnl.gov) Feb. 2017
  H-He, B-F, Al-Ar, Ga-Kr : F. Weigend, A. Kohn, C. Hattig, J. Chem. Phys. 116, 3175 (2002)
             Li-Be, Na-Mg : C. Haettig, Phys. Chem. Chem. Phys. 7, 59 (2005)
                       Ne : C. Haettig, Phys. Chem. Chem. Phys. 7, 59 (2005)
                            F. Weigend, A. Kohn, C. Hattig, J. Chem. Phys. 116, 3175 (2002)
                    Sc-Zn : J. G. Hill, J. A. Platts, J. Chem. Phys. 128, 044104 (2008)

================================================================================
                                        WARNINGS
                       Please study these warnings very carefully!
================================================================================


WARNING: No MP2 level density has been requested!
         To caclulate MP2 level properties use
         %mp2 Density relaxed end
         or
         %mp2 Density unrelaxed end

WARNING: Post HF methods need fully converged wavefunctions
  ===> : Setting SCFConvForced true
         You can overwrite this default with %scf ConvForced false 


INFO   : the flag for use of the SHARK integral package has been found!

================================================================================
                                       INPUT FILE
================================================================================
NAME = CONFS/Conf86.orca
|  1> ! ri-mp2 cc-pvtz cc-pvtz/c TightSCF NoKeepInts
|  2> 
|  3> %scf
|  4>   MaxCore 4096
|  5> end
|  6> *xyz  0  1
|  7>     C       16.1371756   13.1134698   17.2771017
|  8>     C       15.8434236   14.4513139   16.5773867
|  9>     O       17.0939428   15.0816712   16.2485889
| 10>     C       17.0743937   16.4333551   16.0633297
| 11>     O       16.3188183   16.9140801   15.2374854
| 12>     C       17.6577527   17.2222604   17.2051752
| 13>     C       17.5897645   18.5787086   17.2580535
| 14>     C       16.9066038   19.5077924   16.2768889
| 15>     N       18.2548671   19.2720488   18.2743336
| 16>     C       19.1801129   18.7127299   19.1150079
| 17>     S       20.0883338   19.6238805   20.1548281
| 18>     N       19.3335651   17.3526281   19.0281398
| 19>     C       18.4128874   16.4564463   18.3054650
| 20>     C       17.5027867   15.7772167   19.3267422
| 21>     C       17.9889027   14.6738198   20.0541977
| 22>     C       17.1873837   14.0385797   21.0175088
| 23>     C       15.8890487   14.5148480   21.2639849
| 24>     C       15.4070491   15.6244450   20.5573178
| 25>     O       14.1564756   16.0921001   20.7975483
| 26>     C       16.2072586   16.2566257   19.6006452
| 27>     H       16.6982591   12.4471384   16.6104176
| 28>     H       15.2012934   12.6128222   17.5529083
| 29>     H       16.7236985   13.2604105   18.1877995
| 30>     H       15.2516147   14.2883116   15.6667316
| 31>     H       15.2592559   15.0871566   17.2560713
| 32>     H       17.3112297   19.3678135   15.2663317
| 33>     H       17.0245996   20.5667748   16.5348404
| 34>     H       15.8306434   19.2964797   16.2303247
| 35>     H       18.1609173   20.2730904   18.3383618
| 36>     H       20.0087574   16.9655531   19.6741289
| 37>     H       19.0162636   15.6769027   17.8184978
| 38>     H       18.9935526   14.3036820   19.8678294
| 39>     H       17.5733969   13.1837102   21.5704086
| 40>     H       15.2659302   14.0279407   22.0070885
| 41>     H       13.7860635   15.5721981   21.5270196
| 42>     H       15.8109780   17.1239955   19.0855112
| 43> *
| 44> 
| 45>                          ****END OF INPUT****
================================================================================

                       ****************************
                       * Single Point Calculation *
                       ****************************

---------------------------------
CARTESIAN COORDINATES (ANGSTROEM)
---------------------------------
  C     16.137176   13.113470   17.277102
  C     15.843424   14.451314   16.577387
  O     17.093943   15.081671   16.248589
  C     17.074394   16.433355   16.063330
  O     16.318818   16.914080   15.237485
  C     17.657753   17.222260   17.205175
  C     17.589764   18.578709   17.258053
  C     16.906604   19.507792   16.276889
  N     18.254867   19.272049   18.274334
  C     19.180113   18.712730   19.115008
  S     20.088334   19.623880   20.154828
  N     19.333565   17.352628   19.028140
  C     18.412887   16.456446   18.305465
  C     17.502787   15.777217   19.326742
  C     17.988903   14.673820   20.054198
  C     17.187384   14.038580   21.017509
  C     15.889049   14.514848   21.263985
  C     15.407049   15.624445   20.557318
  O     14.156476   16.092100   20.797548
  C     16.207259   16.256626   19.600645
  H     16.698259   12.447138   16.610418
  H     15.201293   12.612822   17.552908
  H     16.723699   13.260410   18.187800
  H     15.251615   14.288312   15.666732
  H     15.259256   15.087157   17.256071
  H     17.311230   19.367814   15.266332
  H     17.024600   20.566775   16.534840
  H     15.830643   19.296480   16.230325
  H     18.160917   20.273090   18.338362
  H     20.008757   16.965553   19.674129
  H     19.016264   15.676903   17.818498
  H     18.993553   14.303682   19.867829
  H     17.573397   13.183710   21.570409
  H     15.265930   14.027941   22.007088
  H     13.786063   15.572198   21.527020
  H     15.810978   17.123995   19.085511

----------------------------
CARTESIAN COORDINATES (A.U.)
----------------------------
  NO LB      ZA    FRAG     MASS         X           Y           Z
   0 C     6.0000    0    12.011   30.494842   24.780867   32.648991
   1 C     6.0000    0    12.011   29.939732   27.309026   31.326721
   2 O     8.0000    0    15.999   32.302870   28.500228   30.705383
   3 C     6.0000    0    12.011   32.265928   31.054541   30.355294
   4 O     8.0000    0    15.999   30.838097   31.962979   28.794674
   5 C     6.0000    0    12.011   33.368317   32.545356   32.513069
   6 C     6.0000    0    12.011   33.239838   35.108671   32.612995
   7 C     6.0000    0    12.011   31.948851   36.864385   30.758862
   8 N     7.0000    0    14.007   34.496699   36.418894   34.533486
   9 C     6.0000    0    12.011   36.245161   35.361935   36.122130
  10 S    16.0000    0    32.060   37.961449   37.083760   38.087105
  11 N     7.0000    0    14.007   36.535143   32.791715   35.957973
  12 C     6.0000    0    12.011   34.795315   31.098177   34.592316
  13 C     6.0000    0    12.011   33.075473   29.814619   36.522250
  14 C     6.0000    0    12.011   33.994100   27.729501   37.896941
  15 C     6.0000    0    12.011   32.479448   26.529071   39.717336
  16 C     6.0000    0    12.011   30.025951   27.429088   40.183108
  17 C     6.0000    0    12.011   29.115103   29.525922   38.847701
  18 O     8.0000    0    15.999   26.751862   30.409662   39.301671
  19 C     6.0000    0    12.011   30.627280   30.720570   37.039851
  20 H     1.0000    0     1.008   31.555137   23.521683   31.389140
  21 H     1.0000    0     1.008   28.726281   23.834780   33.170190
  22 H     1.0000    0     1.008   31.603210   25.058544   34.369960
  23 H     1.0000    0     1.008   28.821375   27.000996   29.605832
  24 H     1.0000    0     1.008   28.835815   28.510594   32.609249
  25 H     1.0000    0     1.008   32.713483   36.599863   28.849186
  26 H     1.0000    0     1.008   32.171831   38.865572   31.246320
  27 H     1.0000    0     1.008   29.915581   36.465062   30.670869
  28 H     1.0000    0     1.008   34.319160   38.310589   34.654482
  29 H     1.0000    0     1.008   37.811072   32.060249   37.178716
  30 H     1.0000    0     1.008   35.935530   29.625053   33.672081
  31 H     1.0000    0     1.008   35.892613   27.030042   37.544756
  32 H     1.0000    0     1.008   33.208907   24.913602   40.762165
  33 H     1.0000    0     1.008   28.848427   26.508966   41.587370
  34 H     1.0000    0     1.008   26.051884   29.427190   40.680172
  35 H     1.0000    0     1.008   29.878418   32.359662   36.066389

--------------------------------
INTERNAL COORDINATES (ANGSTROEM)
--------------------------------
 C      0   0   0     0.000000000000     0.00000000     0.00000000
 C      1   0   0     1.538089124412     0.00000000     0.00000000
 O      2   1   0     1.438491080444   108.60917517     0.00000000
 C      3   2   1     1.364460517573   116.91595586   202.32481343
 O      4   3   2     1.218199293446   119.46259397   303.98514461
 C      4   3   2     1.505486778793   114.24142649   104.76861410
 C      6   4   3     1.359179984120   122.21457430   187.30035446
 C      7   6   4     1.514129856300   127.57031665     2.75363045
 N      7   6   4     1.398537573009   119.95017056   185.99012279
 C      9   7   6     1.369543975561   124.39388056    11.94289839
 S     10   9   7     1.654172502312   122.12958113   171.19074627
 N     10   9   7     1.371484797891   116.21358469   352.50327705
 C     12  10   9     1.474126219997   124.33746099   347.67986938
 C     13  12  10     1.527299333103   108.34392876   258.63222400
 C     14  13  12     1.408184998097   119.22226595   280.16129888
 C     15  14  13     1.404966536040   120.76642787   178.92986449
 C     16  15  14     1.404726213068   119.62298205   359.59229353
 C     17  16  15     1.401038010559   119.86726604   359.46750164
 O     18  17  16     1.356593551727   120.05578212   180.36160838
 C     18  17  16     1.398288291066   120.41580955     0.42601106
 H      1   2   3     1.096941164234   110.46050611   298.88665840
 H      1   2   3     1.096627918788   110.39698154   179.27733114
 H      1   2   3     1.093147366308   111.37983122    59.24768330
 H      2   1   3     1.098225949011   110.55117097   120.92044025
 H      2   1   3     1.098253443948   108.90745566   239.62587911
 H      8   7   6     1.097516316903   110.61333853   302.28140977
 H      8   7   6     1.096314602967   113.05930842   181.70626418
 H      8   7   6     1.097502648867   110.59030863    61.04578517
 H      9   7   6     1.007477275300   119.63204937   183.27819435
 H     12  10   9     1.011441355158   114.44112397   181.24481938
 H     13  12  10     1.099494482434   107.78320755   142.08327170
 H     15  14  13     1.086764259535   119.82843747   358.64677891
 H     16  15  14     1.088809552422   120.06032857   179.74493413
 H     17  16  15     1.085153603951   119.91772086   180.01132267
 H     19  18  17     0.969345960405   107.49558292     4.03437649
 H     20  18  17     1.083850414884   118.53831792   181.15605689

---------------------------
INTERNAL COORDINATES (A.U.)
---------------------------
 C      0   0   0     0.000000000000     0.00000000     0.00000000
 C      1   0   0     2.906567214701     0.00000000     0.00000000
 O      2   1   0     2.718354188128   108.60917517     0.00000000
 C      3   2   1     2.578456698761   116.91595586   202.32481343
 O      4   3   2     2.302063041150   119.46259397   303.98514461
 C      4   3   2     2.844957710157   114.24142649   104.76861410
 C      6   4   3     2.568477936695   122.21457430   187.30035446
 C      7   6   4     2.861290759601   127.57031665     2.75363045
 N      7   6   4     2.642853000987   119.95017056   185.99012279
 C      9   7   6     2.588063042172   124.39388056    11.94289839
 S     10   9   7     3.125933007633   122.12958113   171.19074627
 N     10   9   7     2.591730664850   116.21358469   352.50327705
 C     12  10   9     2.785694842627   124.33746099   347.67986938
 C     13  12  10     2.886177464085   108.34392876   258.63222400
 C     14  13  12     2.661083992300   119.22226595   280.16129888
 C     15  14  13     2.655001980440   120.76642787   178.92986449
 C     16  15  14     2.654547835839   119.62298205   359.59229353
 C     17  16  15     2.647578143171   119.86726604   359.46750164
 O     18  17  16     2.563590287808   120.05578212   180.36160838
 C     18  17  16     2.642381926384   120.41580955     0.42601106
 H      1   2   3     2.072918385427   110.46050611   298.88665840
 H      1   2   3     2.072326437322   110.39698154   179.27733114
 H      1   2   3     2.065749146339   111.37983122    59.24768330
 H      2   1   3     2.075346276796   110.55117097   120.92044025
 H      2   1   3     2.075398234698   108.90745566   239.62587911
 H      8   7   6     2.074005266456   110.61333853   302.28140977
 H      8   7   6     2.071734356227   113.05930842   181.70626418
 H      8   7   6     2.073979437613   110.59030863    61.04578517
 H      9   7   6     1.903856136466   119.63204937   183.27819435
 H     12  10   9     1.911347161770   114.44112397   181.24481938
 H     13  12  10     2.077743457558   107.78320755   142.08327170
 H     15  14  13     2.053686822656   119.82843747   358.64677891
 H     16  15  14     2.057551866074   120.06032857   179.74493413
 H     17  16  15     2.050643124706   119.91772086   180.01132267
 H     19  18  17     1.831798394189   107.49558292     4.03437649
 H     20  18  17     2.048180454268   118.53831792   181.15605689

---------------------
BASIS SET INFORMATION
---------------------
There are 5 groups of distinct atoms

 Group   1 Type C   : 18s5p2d1f contracted to 4s3p2d1f pattern {8811/311/11/1}
 Group   2 Type O   : 18s5p2d1f contracted to 4s3p2d1f pattern {8811/311/11/1}
 Group   3 Type N   : 18s5p2d1f contracted to 4s3p2d1f pattern {8811/311/11/1}
 Group   4 Type S   : 41s16p2d1f contracted to 5s4p2d1f pattern {13131311/7711/11/1}
 Group   5 Type H   : 5s2p1d contracted to 3s2p1d pattern {311/11/1}

Atom   0C    basis set group =>   1
Atom   1C    basis set group =>   1
Atom   2O    basis set group =>   2
Atom   3C    basis set group =>   1
Atom   4O    basis set group =>   2
Atom   5C    basis set group =>   1
Atom   6C    basis set group =>   1
Atom   7C    basis set group =>   1
Atom   8N    basis set group =>   3
Atom   9C    basis set group =>   1
Atom  10S    basis set group =>   4
Atom  11N    basis set group =>   3
Atom  12C    basis set group =>   1
Atom  13C    basis set group =>   1
Atom  14C    basis set group =>   1
Atom  15C    basis set group =>   1
Atom  16C    basis set group =>   1
Atom  17C    basis set group =>   1
Atom  18O    basis set group =>   2
Atom  19C    basis set group =>   1
Atom  20H    basis set group =>   5
Atom  21H    basis set group =>   5
Atom  22H    basis set group =>   5
Atom  23H    basis set group =>   5
Atom  24H    basis set group =>   5
Atom  25H    basis set group =>   5
Atom  26H    basis set group =>   5
Atom  27H    basis set group =>   5
Atom  28H    basis set group =>   5
Atom  29H    basis set group =>   5
Atom  30H    basis set group =>   5
Atom  31H    basis set group =>   5
Atom  32H    basis set group =>   5
Atom  33H    basis set group =>   5
Atom  34H    basis set group =>   5
Atom  35H    basis set group =>   5
---------------------------------
AUXILIARY/C BASIS SET INFORMATION
---------------------------------
There are 5 groups of distinct atoms

 Group   1 Type C   : 8s6p5d3f1g contracted to 8s6p5d3f1g pattern {11111111/111111/11111/111/1}
 Group   2 Type O   : 8s6p5d3f1g contracted to 8s6p5d3f1g pattern {11111111/111111/11111/111/1}
 Group   3 Type N   : 8s6p5d3f1g contracted to 8s6p5d3f1g pattern {11111111/111111/11111/111/1}
 Group   4 Type S   : 10s8p7d5f2g contracted to 10s8p7d5f2g pattern {1111111111/11111111/1111111/11111/11}
 Group   5 Type H   : 4s3p2d1f contracted to 4s3p2d1f pattern {1111/111/11/1}

Atom   0C    basis set group =>   1
Atom   1C    basis set group =>   1
Atom   2O    basis set group =>   2
Atom   3C    basis set group =>   1
Atom   4O    basis set group =>   2
Atom   5C    basis set group =>   1
Atom   6C    basis set group =>   1
Atom   7C    basis set group =>   1
Atom   8N    basis set group =>   3
Atom   9C    basis set group =>   1
Atom  10S    basis set group =>   4
Atom  11N    basis set group =>   3
Atom  12C    basis set group =>   1
Atom  13C    basis set group =>   1
Atom  14C    basis set group =>   1
Atom  15C    basis set group =>   1
Atom  16C    basis set group =>   1
Atom  17C    basis set group =>   1
Atom  18O    basis set group =>   2
Atom  19C    basis set group =>   1
Atom  20H    basis set group =>   5
Atom  21H    basis set group =>   5
Atom  22H    basis set group =>   5
Atom  23H    basis set group =>   5
Atom  24H    basis set group =>   5
Atom  25H    basis set group =>   5
Atom  26H    basis set group =>   5
Atom  27H    basis set group =>   5
Atom  28H    basis set group =>   5
Atom  29H    basis set group =>   5
Atom  30H    basis set group =>   5
Atom  31H    basis set group =>   5
Atom  32H    basis set group =>   5
Atom  33H    basis set group =>   5
Atom  34H    basis set group =>   5
Atom  35H    basis set group =>   5
------------------------------------------------------------------------------
                           ORCA GTO INTEGRAL CALCULATION
------------------------------------------------------------------------------
------------------------------------------------------------------------------
                   ___                                                        
                  /   \      - P O W E R E D   B Y -                         
                 /     \                                                     
                 |  |  |   _    _      __       _____    __    __             
                 |  |  |  | |  | |    /  \     |  _  \  |  |  /  |          
                  \  \/   | |  | |   /    \    | | | |  |  | /  /          
                 / \  \   | |__| |  /  /\  \   | |_| |  |  |/  /          
                |  |  |   |  __  | /  /__\  \  |    /   |      \           
                |  |  |   | |  | | |   __   |  |    \   |  |\   \          
                \     /   | |  | | |  |  |  |  | |\  \  |  | \   \       
                 \___/    |_|  |_| |__|  |__|  |_| \__\ |__|  \__/        
                                                                              
                      - O R C A' S   B I G   F R I E N D -                    
                                      &                                       
                       - I N T E G R A L  F E E D E R -                       
                                                                              
 v1 FN, 2020, v2 2021                                                         
------------------------------------------------------------------------------


Reading SHARK input file CONFS/Conf86.orca.SHARKINP.tmp ... ok
----------------------
SHARK INTEGRAL PACKAGE
----------------------

Number of atoms                             ...     36
Number of basis functions                   ...    828
Number of shells                            ...    298
Maximum angular momentum                    ...      3
Integral batch strategy                     ... SHARK/LIBINT Hybrid
RI-J (if used) integral strategy            ... SPLIT-RIJ (Revised 2003 algorithm where possible)
Printlevel                                  ...      1
Contraction scheme used                     ... SEGMENTED contraction
Coulomb Range Separation                    ... NOT USED
Exchange Range Separation                   ... NOT USED
Finite Nucleus Model                        ... NOT USED
Auxiliary Coulomb fitting basis             ... NOT available
Auxiliary J/K fitting basis                 ... NOT available
Auxiliary Correlation fitting basis         ... AVAILABLE
   # of basis functions in Aux-C            ...   2141
   # of shells in Aux-C                     ...    629
   Maximum angular momentum in Aux-C        ...      4
Auxiliary 'external' fitting basis          ... NOT available
Integral threshold                          ...     2.500000e-11
Primitive cut-off                           ...     2.500000e-12
Primitive pair pre-selection threshold      ...     2.500000e-12

Calculating pre-screening integrals         ... done (  0.6 sec) Dimension = 298
Organizing shell pair data                  ... done (  1.2 sec)
Shell pair information
Total number of shell pairs                 ...     44551
Shell pairs after pre-screening             ...     34194
Total number of primitive shell pairs       ...    234348
Primitive shell pairs kept                  ...     98022
          la=0 lb=0:   6799 shell pairs
          la=1 lb=0:   9488 shell pairs
          la=1 lb=1:   3352 shell pairs
          la=2 lb=0:   5459 shell pairs
          la=2 lb=1:   3756 shell pairs
          la=2 lb=2:   1071 shell pairs
          la=3 lb=0:   1978 shell pairs
          la=3 lb=1:   1360 shell pairs
          la=3 lb=2:    780 shell pairs
          la=3 lb=3:    151 shell pairs

Calculating one electron integrals          ... done (  0.4 sec)
Calculating RI/C V-Matrix + Cholesky decomp.... done (  1.0 sec)
Calculating Nuclear repulsion               ... done (  0.1 sec) ENN=   1724.274411079716 Eh

SHARK setup successfully completed in   3.8 seconds

Maximum memory used throughout the entire GTOINT-calculation: 509.3 MB
-------------------------------------------------------------------------------
                                 ORCA SCF
-------------------------------------------------------------------------------

------------
SCF SETTINGS
------------
Hamiltonian:
 Ab initio Hamiltonian  Method          .... Hartree-Fock(GTOs)


General Settings:
 Integral files         IntName         .... CONFS/Conf86.orca
 Hartree-Fock type      HFTyp           .... RHF
 Total Charge           Charge          ....    0
 Multiplicity           Mult            ....    1
 Number of Electrons    NEL             ....  154
 Basis Dimension        Dim             ....  828
 Nuclear Repulsion      ENuc            ....   1724.2744110797 Eh

Convergence Acceleration:
 DIIS                   CNVDIIS         .... on
   Start iteration      DIISMaxIt       ....    12
   Startup error        DIISStart       ....  0.200000
   # of expansion vecs  DIISMaxEq       ....     5
   Bias factor          DIISBfac        ....   1.050
   Max. coefficient     DIISMaxC        ....  10.000
 Trust-Rad. Augm. Hess. CNVTRAH         .... auto
   Auto Start mean grad. ratio tolernc. ....  1.125000
   Auto Start start iteration           ....    20
   Auto Start num. interpolation iter.  ....    10
   Max. Number of Micro iterations      ....    16
   Max. Number of Macro iterations      .... Maxiter - #DIIS iter
   Number of Davidson start vectors     ....     2
   Converg. threshold I  (grad. norm)   ....   1.000e-05
   Converg. threshold II (energy diff.) ....   1.000e-08
   Grad. Scal. Fac. for Micro threshold ....   0.100
   Minimum threshold for Micro iter.    ....   0.010
   NR start threshold (gradient norm)   ....   0.001
   Initial trust radius                 ....   0.400
   Minimum AH scaling param. (alpha)    ....   1.000
   Maximum AH scaling param. (alpha)    .... 1000.000
   Orbital update algorithm             .... Taylor
   White noise on init. David. guess    .... on
   Maximum white noise                  ....   0.010
   Quad. conv. algorithm                .... NR
 SOSCF                  CNVSOSCF        .... on
   Start iteration      SOSCFMaxIt      ....   150
   Startup grad/error   SOSCFStart      ....  0.003300
 Level Shifting         CNVShift        .... on
   Level shift para.    LevelShift      ....    0.2500
   Turn off err/grad.   ShiftErr        ....    0.0010
 Zerner damping         CNVZerner       .... off
 Static damping         CNVDamp         .... on
   Fraction old density DampFac         ....    0.7000
   Max. Damping (<1)    DampMax         ....    0.9800
   Min. Damping (>=0)   DampMin         ....    0.0000
   Turn off err/grad.   DampErr         ....    0.1000
 Fernandez-Rico         CNVRico         .... off

SCF Procedure:
 Maximum # iterations   MaxIter         ....   125
 SCF integral mode      SCFMode         .... Direct
   Integral package                     .... SHARK and LIBINT hybrid scheme
 Reset frequency        DirectResetFreq ....    20
 Integral Threshold     Thresh          ....  2.500e-11 Eh
 Primitive CutOff       TCut            ....  2.500e-12 Eh

Convergence Tolerance:
 Convergence Check Mode ConvCheckMode   .... Total+1el-Energy
 Convergence forced     ConvForced      .... 1
 Energy Change          TolE            ....  1.000e-08 Eh
 1-El. energy change                    ....  1.000e-05 Eh
 Orbital Gradient       TolG            ....  1.000e-05
 Orbital Rotation angle TolX            ....  1.000e-05
 DIIS Error             TolErr          ....  5.000e-07


Diagonalization of the overlap matrix:
Smallest eigenvalue                        ... 3.044e-05
Time for diagonalization                   ...    0.157 sec
Threshold for overlap eigenvalues          ... 1.000e-08
Number of eigenvalues below threshold      ... 0
Time for construction of square roots      ...    0.255 sec
Total time needed                          ...    0.415 sec

Time for model grid setup =    1.508 sec

------------------------------
INITIAL GUESS: MODEL POTENTIAL
------------------------------
Loading Hartree-Fock densities                     ... done
Calculating cut-offs                               ... done
Initializing the effective Hamiltonian             ... done
Setting up the integral package (SHARK)            ... done
Starting the Coulomb interaction                   ... done (   4.7 sec)
Reading the grid                                   ... done
Mapping shells                                     ... done
Starting the XC term evaluation                    ... done (   1.6 sec)
Transforming the Hamiltonian                       ... done (   0.1 sec)
Diagonalizing the Hamiltonian                      ... done (   0.1 sec)
Back transforming the eigenvectors                 ... done (   0.0 sec)
Now organizing SCF variables                       ... done
                      ------------------
                      INITIAL GUESS DONE (   8.1 sec)
                      ------------------
--------------
SCF ITERATIONS
--------------
ITER       Energy         Delta-E        Max-DP      RMS-DP      [F,P]     Damp
               ***  Starting incremental Fock matrix formation  ***
  0  -1270.0019118677   0.000000000000 0.04930271  0.00043959  0.3129858 0.7000
  1  -1270.2695512184  -0.267639350731 0.03606806  0.00035436  0.1852102 0.7000
                               ***Turning on DIIS***
  2  -1270.4360312088  -0.166479990460 0.02582604  0.00023544  0.1096573 0.7000
  3  -1272.5631198475  -2.127088638616 0.06309268  0.00050285  0.0829186 0.0000
  4  -1270.7462223784   1.816897469060 0.01181081  0.00010271  0.0070265 0.0000
  5  -1270.8032805871  -0.057058208717 0.00411512  0.00005298  0.0051459 0.0000
                      *** Initiating the SOSCF procedure ***
                           *** Shutting down DIIS ***
                      *** Re-Reading the Fockian *** 
                      *** Removing any level shift *** 
ITER      Energy       Delta-E        Grad      Rot      Max-DP    RMS-DP
  6  -1270.78282399   0.0204565992  0.001814  0.001814  0.002360  0.000027
               *** Restarting incremental Fock matrix formation ***
  7  -1270.79769726  -0.0148732729  0.001058  0.002727  0.001827  0.000017
  8  -1270.79774974  -0.0000524813  0.000471  0.003219  0.002212  0.000019
  9  -1270.79777023  -0.0000204901  0.000153  0.000309  0.000368  0.000005
 10  -1270.79777298  -0.0000027509  0.000055  0.000154  0.000130  0.000002
 11  -1270.79777326  -0.0000002773  0.000027  0.000160  0.000074  0.000001
 12  -1270.79777335  -0.0000000859  0.000010  0.000042  0.000037  0.000000
 13  -1270.79777335  -0.0000000039  0.000003  0.000009  0.000008  0.000000
                  ***Gradient check signals convergence***
              ***Rediagonalizing the Fockian in SOSCF/NRSCF***

               *****************************************************
               *                     SUCCESS                       *
               *           SCF CONVERGED AFTER  14 CYCLES          *
               *****************************************************


----------------
TOTAL SCF ENERGY
----------------

Total Energy       :        -1270.79777334 Eh          -34580.16543 eV

Components:
Nuclear Repulsion  :         1724.27441108 Eh           46919.89209 eV
Electronic Energy  :        -2995.07218442 Eh          -81500.05752 eV
One Electron Energy:        -5169.50318018 Eh         -140669.33302 eV
Two Electron Energy:         2174.43099575 Eh           59169.27550 eV

Virial components:
Potential Energy   :        -2539.80891534 Eh          -69111.71416 eV
Kinetic Energy     :         1269.01114200 Eh           34531.54872 eV
Virial Ratio       :            2.00140789


---------------
SCF CONVERGENCE
---------------

  Last Energy change         ...    6.1837e-09  Tolerance :   1.0000e-08
  Last MAX-Density change    ...    1.8543e-06  Tolerance :   1.0000e-07
  Last RMS-Density change    ...    3.4667e-08  Tolerance :   5.0000e-09
  Last Orbital Gradient      ...    1.2797e-06  Tolerance :   1.0000e-05
  Last Orbital Rotation      ...    3.0799e-06  Tolerance :   1.0000e-05

             **** THE GBW FILE WAS UPDATED (CONFS/Conf86.orca.gbw) ****
             **** DENSITY CONFS/Conf86.orca.scfp WAS UPDATED ****
             **** ENERGY FILE WAS UPDATED (CONFS/Conf86.orca.en.tmp) ****
             **** THE GBW FILE WAS UPDATED (CONFS/Conf86.orca.gbw) ****
             **** DENSITY CONFS/Conf86.orca.scfp WAS UPDATED ****
----------------
ORBITAL ENERGIES
----------------

  NO   OCC          E(Eh)            E(eV) 
   0   2.0000     -91.890656     -2500.4719 
   1   2.0000     -20.602961      -560.6351 
   2   2.0000     -20.584436      -560.1310 
   3   2.0000     -20.545364      -559.0678 
   4   2.0000     -15.631803      -425.3630 
   5   2.0000     -15.609561      -424.7577 
   6   2.0000     -11.392245      -309.9987 
   7   2.0000     -11.385293      -309.8096 
   8   2.0000     -11.338783      -308.5440 
   9   2.0000     -11.320116      -308.0360 
  10   2.0000     -11.312317      -307.8238 
  11   2.0000     -11.294067      -307.3272 
  12   2.0000     -11.266370      -306.5735 
  13   2.0000     -11.261505      -306.4411 
  14   2.0000     -11.260191      -306.4054 
  15   2.0000     -11.253857      -306.2330 
  16   2.0000     -11.248012      -306.0740 
  17   2.0000     -11.243590      -305.9536 
  18   2.0000     -11.243424      -305.9491 
  19   2.0000     -11.222502      -305.3798 
  20   2.0000      -8.895681      -242.0638 
  21   2.0000      -6.577249      -178.9760 
  22   2.0000      -6.575252      -178.9217 
  23   2.0000      -6.574660      -178.9056 
  24   2.0000      -1.449042       -39.4304 
  25   2.0000      -1.422566       -38.7100 
  26   2.0000      -1.351255       -36.7695 
  27   2.0000      -1.342762       -36.5384 
  28   2.0000      -1.241095       -33.7719 
  29   2.0000      -1.162600       -31.6360 
  30   2.0000      -1.121770       -30.5249 
  31   2.0000      -1.046230       -28.4694 
  32   2.0000      -1.033204       -28.1149 
  33   2.0000      -1.021534       -27.7974 
  34   2.0000      -0.998720       -27.1765 
  35   2.0000      -0.985836       -26.8260 
  36   2.0000      -0.925888       -25.1947 
  37   2.0000      -0.880770       -23.9670 
  38   2.0000      -0.850486       -23.1429 
  39   2.0000      -0.843675       -22.9576 
  40   2.0000      -0.837220       -22.7819 
  41   2.0000      -0.824801       -22.4440 
  42   2.0000      -0.762078       -20.7372 
  43   2.0000      -0.736814       -20.0497 
  44   2.0000      -0.722705       -19.6658 
  45   2.0000      -0.701394       -19.0859 
  46   2.0000      -0.691359       -18.8128 
  47   2.0000      -0.677313       -18.4306 
  48   2.0000      -0.671580       -18.2746 
  49   2.0000      -0.662617       -18.0307 
  50   2.0000      -0.649233       -17.6665 
  51   2.0000      -0.645072       -17.5533 
  52   2.0000      -0.639564       -17.4034 
  53   2.0000      -0.614823       -16.7302 
  54   2.0000      -0.608458       -16.5570 
  55   2.0000      -0.603740       -16.4286 
  56   2.0000      -0.600808       -16.3488 
  57   2.0000      -0.583332       -15.8733 
  58   2.0000      -0.573252       -15.5990 
  59   2.0000      -0.567191       -15.4341 
  60   2.0000      -0.551457       -15.0059 
  61   2.0000      -0.544119       -14.8062 
  62   2.0000      -0.538959       -14.6658 
  63   2.0000      -0.531832       -14.4719 
  64   2.0000      -0.515983       -14.0406 
  65   2.0000      -0.510084       -13.8801 
  66   2.0000      -0.507695       -13.8151 
  67   2.0000      -0.500883       -13.6297 
  68   2.0000      -0.486131       -13.2283 
  69   2.0000      -0.463028       -12.5996 
  70   2.0000      -0.457022       -12.4362 
  71   2.0000      -0.442946       -12.0532 
  72   2.0000      -0.358697        -9.7606 
  73   2.0000      -0.355476        -9.6730 
  74   2.0000      -0.331196        -9.0123 
  75   2.0000      -0.326233        -8.8772 
  76   2.0000      -0.318169        -8.6578 
  77   0.0000       0.070576         1.9205 
  78   0.0000       0.102149         2.7796 
  79   0.0000       0.119645         3.2557 
  80   0.0000       0.124591         3.3903 
  81   0.0000       0.130400         3.5484 
  82   0.0000       0.137243         3.7346 
  83   0.0000       0.150587         4.0977 
  84   0.0000       0.153920         4.1884 
  85   0.0000       0.157553         4.2872 
  86   0.0000       0.165799         4.5116 
  87   0.0000       0.185928         5.0594 
  88   0.0000       0.193833         5.2745 
  89   0.0000       0.197829         5.3832 
  90   0.0000       0.202973         5.5232 
  91   0.0000       0.210231         5.7207 
  92   0.0000       0.214201         5.8287 
  93   0.0000       0.220589         6.0025 
  94   0.0000       0.230148         6.2626 
  95   0.0000       0.244599         6.6559 
  96   0.0000       0.249007         6.7758 
  97   0.0000       0.261552         7.1172 
  98   0.0000       0.262479         7.1424 
  99   0.0000       0.290049         7.8926 
 100   0.0000       0.292645         7.9633 
 101   0.0000       0.301650         8.2083 
 102   0.0000       0.312241         8.4965 
 103   0.0000       0.312585         8.5059 
 104   0.0000       0.322187         8.7672 
 105   0.0000       0.337712         9.1896 
 106   0.0000       0.345663         9.4060 
 107   0.0000       0.348204         9.4751 
 108   0.0000       0.356493         9.7007 
 109   0.0000       0.366711         9.9787 
 110   0.0000       0.369845        10.0640 
 111   0.0000       0.373019        10.1504 
 112   0.0000       0.378632        10.3031 
 113   0.0000       0.387853        10.5540 
 114   0.0000       0.398851        10.8533 
 115   0.0000       0.401353        10.9214 
 116   0.0000       0.414855        11.2888 
 117   0.0000       0.424185        11.5427 
 118   0.0000       0.432607        11.7718 
 119   0.0000       0.436895        11.8885 
 120   0.0000       0.442658        12.0453 
 121   0.0000       0.448216        12.1966 
 122   0.0000       0.455662        12.3992 
 123   0.0000       0.460005        12.5174 
 124   0.0000       0.469496        12.7756 
 125   0.0000       0.474211        12.9039 
 126   0.0000       0.474896        12.9226 
 127   0.0000       0.484088        13.1727 
 128   0.0000       0.488611        13.2958 
 129   0.0000       0.491242        13.3674 
 130   0.0000       0.496000        13.4968 
 131   0.0000       0.499143        13.5824 
 132   0.0000       0.509038        13.8516 
 133   0.0000       0.517985        14.0951 
 134   0.0000       0.526418        14.3246 
 135   0.0000       0.533063        14.5054 
 136   0.0000       0.539783        14.6882 
 137   0.0000       0.545637        14.8475 
 138   0.0000       0.546663        14.8755 
 139   0.0000       0.549863        14.9625 
 140   0.0000       0.557500        15.1704 
 141   0.0000       0.562548        15.3077 
 142   0.0000       0.566963        15.4278 
 143   0.0000       0.570236        15.5169 
 144   0.0000       0.577037        15.7020 
 145   0.0000       0.582402        15.8480 
 146   0.0000       0.589193        16.0328 
 147   0.0000       0.589612        16.0442 
 148   0.0000       0.595084        16.1930 
 149   0.0000       0.599906        16.3243 
 150   0.0000       0.601608        16.3706 
 151   0.0000       0.608176        16.5493 
 152   0.0000       0.610334        16.6080 
 153   0.0000       0.618892        16.8409 
 154   0.0000       0.623683        16.9713 
 155   0.0000       0.624955        17.0059 
 156   0.0000       0.633345        17.2342 
 157   0.0000       0.637091        17.3361 
 158   0.0000       0.639320        17.3968 
 159   0.0000       0.642258        17.4767 
 160   0.0000       0.655298        17.8316 
 161   0.0000       0.658369        17.9151 
 162   0.0000       0.662615        18.0307 
 163   0.0000       0.666800        18.1446 
 164   0.0000       0.668827        18.1997 
 165   0.0000       0.675533        18.3822 
 166   0.0000       0.679932        18.5019 
 167   0.0000       0.685465        18.6524 
 168   0.0000       0.689777        18.7698 
 169   0.0000       0.698373        19.0037 
 170   0.0000       0.702523        19.1166 
 171   0.0000       0.715276        19.4636 
 172   0.0000       0.718078        19.5399 
 173   0.0000       0.720808        19.6142 
 174   0.0000       0.728854        19.8331 
 175   0.0000       0.734924        19.9983 
 176   0.0000       0.738890        20.1062 
 177   0.0000       0.743777        20.2392 
 178   0.0000       0.751759        20.4564 
 179   0.0000       0.766662        20.8619 
 180   0.0000       0.770336        20.9619 
 181   0.0000       0.779175        21.2024 
 182   0.0000       0.780923        21.2500 
 183   0.0000       0.788960        21.4687 
 184   0.0000       0.801793        21.8179 
 185   0.0000       0.808866        22.0104 
 186   0.0000       0.820723        22.3330 
 187   0.0000       0.826683        22.4952 
 188   0.0000       0.838505        22.8169 
 189   0.0000       0.839863        22.8538 
 190   0.0000       0.847468        23.0608 
 191   0.0000       0.851473        23.1698 
 192   0.0000       0.853172        23.2160 
 193   0.0000       0.868493        23.6329 
 194   0.0000       0.870897        23.6983 
 195   0.0000       0.879399        23.9297 
 196   0.0000       0.894889        24.3512 
 197   0.0000       0.903004        24.5720 
 198   0.0000       0.904085        24.6014 
 199   0.0000       0.909120        24.7384 
 200   0.0000       0.914112        24.8743 
 201   0.0000       0.918818        25.0023 
 202   0.0000       0.928741        25.2723 
 203   0.0000       0.931115        25.3369 
 204   0.0000       0.940848        25.6018 
 205   0.0000       0.944442        25.6996 
 206   0.0000       0.953897        25.9569 
 207   0.0000       0.960402        26.1339 
 208   0.0000       0.968976        26.3672 
 209   0.0000       0.969917        26.3928 
 210   0.0000       0.985755        26.8237 
 211   0.0000       0.999437        27.1961 
 212   0.0000       1.001829        27.2612 
 213   0.0000       1.007746        27.4222 
 214   0.0000       1.015928        27.6448 
 215   0.0000       1.024279        27.8721 
 216   0.0000       1.028809        27.9953 
 217   0.0000       1.034091        28.1390 
 218   0.0000       1.037459        28.2307 
 219   0.0000       1.039260        28.2797 
 220   0.0000       1.051111        28.6022 
 221   0.0000       1.061814        28.8934 
 222   0.0000       1.062456        28.9109 
 223   0.0000       1.074083        29.2273 
 224   0.0000       1.081257        29.4225 
 225   0.0000       1.093387        29.7526 
 226   0.0000       1.099421        29.9168 
 227   0.0000       1.104522        30.0556 
 228   0.0000       1.114534        30.3280 
 229   0.0000       1.120943        30.5024 
 230   0.0000       1.131217        30.7820 
 231   0.0000       1.133797        30.8522 
 232   0.0000       1.137156        30.9436 
 233   0.0000       1.145929        31.1823 
 234   0.0000       1.149844        31.2889 
 235   0.0000       1.159637        31.5553 
 236   0.0000       1.164795        31.6957 
 237   0.0000       1.176717        32.0201 
 238   0.0000       1.182397        32.1746 
 239   0.0000       1.183548        32.2060 
 240   0.0000       1.191098        32.4114 
 241   0.0000       1.204271        32.7699 
 242   0.0000       1.209545        32.9134 
 243   0.0000       1.212262        32.9873 
 244   0.0000       1.222496        33.2658 
 245   0.0000       1.235274        33.6135 
 246   0.0000       1.244948        33.8768 
 247   0.0000       1.247369        33.9426 
 248   0.0000       1.260603        34.3027 
 249   0.0000       1.268520        34.5182 
 250   0.0000       1.275489        34.7078 
 251   0.0000       1.278842        34.7990 
 252   0.0000       1.281495        34.8713 
 253   0.0000       1.291550        35.1449 
 254   0.0000       1.297567        35.3086 
 255   0.0000       1.310337        35.6561 
 256   0.0000       1.317545        35.8522 
 257   0.0000       1.323384        36.0111 
 258   0.0000       1.334226        36.3061 
 259   0.0000       1.349097        36.7108 
 260   0.0000       1.352763        36.8106 
 261   0.0000       1.361087        37.0371 
 262   0.0000       1.367365        37.2079 
 263   0.0000       1.375363        37.4255 
 264   0.0000       1.384123        37.6639 
 265   0.0000       1.395314        37.9684 
 266   0.0000       1.399744        38.0890 
 267   0.0000       1.401507        38.1370 
 268   0.0000       1.407894        38.3107 
 269   0.0000       1.416717        38.5508 
 270   0.0000       1.425336        38.7854 
 271   0.0000       1.426881        38.8274 
 272   0.0000       1.440388        39.1950 
 273   0.0000       1.451351        39.4933 
 274   0.0000       1.458471        39.6870 
 275   0.0000       1.468876        39.9701 
 276   0.0000       1.482373        40.3374 
 277   0.0000       1.486352        40.4457 
 278   0.0000       1.490734        40.5649 
 279   0.0000       1.497546        40.7503 
 280   0.0000       1.502857        40.8948 
 281   0.0000       1.504536        40.9405 
 282   0.0000       1.508078        41.0369 
 283   0.0000       1.520525        41.3756 
 284   0.0000       1.524769        41.4911 
 285   0.0000       1.532823        41.7102 
 286   0.0000       1.539670        41.8965 
 287   0.0000       1.543655        42.0050 
 288   0.0000       1.549305        42.1587 
 289   0.0000       1.561982        42.5037 
 290   0.0000       1.567370        42.6503 
 291   0.0000       1.570904        42.7465 
 292   0.0000       1.575848        42.8810 
 293   0.0000       1.584670        43.1211 
 294   0.0000       1.597842        43.4795 
 295   0.0000       1.599104        43.5138 
 296   0.0000       1.609041        43.7842 
 297   0.0000       1.613224        43.8980 
 298   0.0000       1.619719        44.0748 
 299   0.0000       1.626937        44.2712 
 300   0.0000       1.640469        44.6394 
 301   0.0000       1.643478        44.7213 
 302   0.0000       1.658001        45.1165 
 303   0.0000       1.666724        45.3539 
 304   0.0000       1.672605        45.5139 
 305   0.0000       1.683984        45.8235 
 306   0.0000       1.693629        46.0860 
 307   0.0000       1.708619        46.4939 
 308   0.0000       1.713508        46.6269 
 309   0.0000       1.720217        46.8095 
 310   0.0000       1.725988        46.9665 
 311   0.0000       1.734323        47.1933 
 312   0.0000       1.749273        47.6001 
 313   0.0000       1.756065        47.7850 
 314   0.0000       1.772188        48.2237 
 315   0.0000       1.777176        48.3594 
 316   0.0000       1.786644        48.6171 
 317   0.0000       1.799186        48.9583 
 318   0.0000       1.811210        49.2855 
 319   0.0000       1.811414        49.2911 
 320   0.0000       1.823138        49.6101 
 321   0.0000       1.836487        49.9734 
 322   0.0000       1.838425        50.0261 
 323   0.0000       1.865200        50.7547 
 324   0.0000       1.866554        50.7915 
 325   0.0000       1.877284        51.0835 
 326   0.0000       1.895102        51.5683 
 327   0.0000       1.911946        52.0267 
 328   0.0000       1.915404        52.1208 
 329   0.0000       1.929299        52.4989 
 330   0.0000       1.934222        52.6329 
 331   0.0000       1.943715        52.8912 
 332   0.0000       1.951787        53.1108 
 333   0.0000       1.967411        53.5360 
 334   0.0000       1.973025        53.6887 
 335   0.0000       1.977967        53.8232 
 336   0.0000       1.999307        54.4039 
 337   0.0000       2.003584        54.5203 
 338   0.0000       2.012562        54.7646 
 339   0.0000       2.019563        54.9551 
 340   0.0000       2.040028        55.5120 
 341   0.0000       2.049754        55.7766 
 342   0.0000       2.056200        55.9520 
 343   0.0000       2.081213        56.6327 
 344   0.0000       2.088634        56.8346 
 345   0.0000       2.114893        57.5492 
 346   0.0000       2.123633        57.7870 
 347   0.0000       2.133036        58.0429 
 348   0.0000       2.148741        58.4702 
 349   0.0000       2.159274        58.7568 
 350   0.0000       2.192292        59.6553 
 351   0.0000       2.207549        60.0705 
 352   0.0000       2.221321        60.4452 
 353   0.0000       2.226883        60.5966 
 354   0.0000       2.239863        60.9498 
 355   0.0000       2.264922        61.6317 
 356   0.0000       2.269324        61.7515 
 357   0.0000       2.282814        62.1185 
 358   0.0000       2.296197        62.4827 
 359   0.0000       2.298927        62.5570 
 360   0.0000       2.303521        62.6820 
 361   0.0000       2.310612        62.8750 
 362   0.0000       2.327986        63.3477 
 363   0.0000       2.348086        63.8947 
 364   0.0000       2.369994        64.4908 
 365   0.0000       2.377026        64.6822 
 366   0.0000       2.383925        64.8699 
 367   0.0000       2.395268        65.1786 
 368   0.0000       2.405071        65.4453 
 369   0.0000       2.430706        66.1429 
 370   0.0000       2.443263        66.4846 
 371   0.0000       2.451694        66.7140 
 372   0.0000       2.462034        66.9953 
 373   0.0000       2.478317        67.4384 
 374   0.0000       2.490741        67.7765 
 375   0.0000       2.502402        68.0938 
 376   0.0000       2.506616        68.2085 
 377   0.0000       2.537586        69.0512 
 378   0.0000       2.548522        69.3488 
 379   0.0000       2.559077        69.6360 
 380   0.0000       2.575305        70.0776 
 381   0.0000       2.586530        70.3831 
 382   0.0000       2.590021        70.4781 
 383   0.0000       2.609704        71.0136 
 384   0.0000       2.613871        71.1270 
 385   0.0000       2.619600        71.2829 
 386   0.0000       2.635212        71.7078 
 387   0.0000       2.645047        71.9754 
 388   0.0000       2.657253        72.3075 
 389   0.0000       2.680631        72.9437 
 390   0.0000       2.686773        73.1108 
 391   0.0000       2.696589        73.3779 
 392   0.0000       2.704369        73.5896 
 393   0.0000       2.717822        73.9557 
 394   0.0000       2.726484        74.1914 
 395   0.0000       2.733104        74.3715 
 396   0.0000       2.745599        74.7115 
 397   0.0000       2.750510        74.8452 
 398   0.0000       2.759358        75.0859 
 399   0.0000       2.779869        75.6441 
 400   0.0000       2.793334        76.0105 
 401   0.0000       2.800848        76.2150 
 402   0.0000       2.805211        76.3337 
 403   0.0000       2.823794        76.8393 
 404   0.0000       2.827383        76.9370 
 405   0.0000       2.836531        77.1859 
 406   0.0000       2.839770        77.2741 
 407   0.0000       2.844128        77.3927 
 408   0.0000       2.860580        77.8403 
 409   0.0000       2.862790        77.9005 
 410   0.0000       2.870832        78.1193 
 411   0.0000       2.884669        78.4958 
 412   0.0000       2.902775        78.9885 
 413   0.0000       2.916114        79.3515 
 414   0.0000       2.919255        79.4370 
 415   0.0000       2.928916        79.6999 
 416   0.0000       2.931642        79.7740 
 417   0.0000       2.943731        80.1030 
 418   0.0000       2.950594        80.2897 
 419   0.0000       2.961564        80.5883 
 420   0.0000       2.973014        80.8998 
 421   0.0000       2.981129        81.1206 
 422   0.0000       2.986608        81.2697 
 423   0.0000       2.994601        81.4872 
 424   0.0000       3.002983        81.7153 
 425   0.0000       3.010149        81.9103 
 426   0.0000       3.016951        82.0954 
 427   0.0000       3.025087        82.3168 
 428   0.0000       3.042018        82.7775 
 429   0.0000       3.046935        82.9113 
 430   0.0000       3.049232        82.9738 
 431   0.0000       3.056687        83.1767 
 432   0.0000       3.065550        83.4179 
 433   0.0000       3.068827        83.5070 
 434   0.0000       3.076696        83.7212 
 435   0.0000       3.086563        83.9897 
 436   0.0000       3.090585        84.0991 
 437   0.0000       3.095511        84.2331 
 438   0.0000       3.101608        84.3990 
 439   0.0000       3.117873        84.8416 
 440   0.0000       3.124033        85.0093 
 441   0.0000       3.125843        85.0585 
 442   0.0000       3.131140        85.2027 
 443   0.0000       3.138603        85.4057 
 444   0.0000       3.144902        85.5771 
 445   0.0000       3.153916        85.8224 
 446   0.0000       3.158200        85.9390 
 447   0.0000       3.166708        86.1705 
 448   0.0000       3.180289        86.5401 
 449   0.0000       3.186056        86.6970 
 450   0.0000       3.196894        86.9919 
 451   0.0000       3.203976        87.1846 
 452   0.0000       3.217990        87.5660 
 453   0.0000       3.223875        87.7261 
 454   0.0000       3.232661        87.9652 
 455   0.0000       3.245497        88.3145 
 456   0.0000       3.245742        88.3211 
 457   0.0000       3.249986        88.4366 
 458   0.0000       3.251577        88.4799 
 459   0.0000       3.262087        88.7659 
 460   0.0000       3.273319        89.0715 
 461   0.0000       3.274166        89.0946 
 462   0.0000       3.284930        89.3875 
 463   0.0000       3.293861        89.6305 
 464   0.0000       3.307150        89.9921 
 465   0.0000       3.316283        90.2407 
 466   0.0000       3.318231        90.2937 
 467   0.0000       3.326093        90.5076 
 468   0.0000       3.326860        90.5285 
 469   0.0000       3.339694        90.8777 
 470   0.0000       3.343463        90.9802 
 471   0.0000       3.351526        91.1996 
 472   0.0000       3.354918        91.2920 
 473   0.0000       3.356760        91.3421 
 474   0.0000       3.361742        91.4776 
 475   0.0000       3.367715        91.6402 
 476   0.0000       3.373392        91.7947 
 477   0.0000       3.387045        92.1662 
 478   0.0000       3.388390        92.2028 
 479   0.0000       3.397602        92.4535 
 480   0.0000       3.403167        92.6049 
 481   0.0000       3.407601        92.7255 
 482   0.0000       3.412666        92.8634 
 483   0.0000       3.418455        93.0209 
 484   0.0000       3.420582        93.0788 
 485   0.0000       3.426537        93.2408 
 486   0.0000       3.429383        93.3183 
 487   0.0000       3.434192        93.4491 
 488   0.0000       3.438379        93.5631 
 489   0.0000       3.442198        93.6670 
 490   0.0000       3.445720        93.7628 
 491   0.0000       3.452055        93.9352 
 492   0.0000       3.465786        94.3088 
 493   0.0000       3.469560        94.4115 
 494   0.0000       3.476424        94.5983 
 495   0.0000       3.481113        94.7259 
 496   0.0000       3.484786        94.8258 
 497   0.0000       3.493194        95.0546 
 498   0.0000       3.500916        95.2648 
 499   0.0000       3.511218        95.5451 
 500   0.0000       3.517856        95.7257 
 501   0.0000       3.528896        96.0261 
 502   0.0000       3.538083        96.2761 
 503   0.0000       3.543790        96.4314 
 504   0.0000       3.546182        96.4965 
 505   0.0000       3.555857        96.7598 
 506   0.0000       3.561130        96.9033 
 507   0.0000       3.568007        97.0904 
 508   0.0000       3.577543        97.3499 
 509   0.0000       3.586568        97.5955 
 510   0.0000       3.594644        97.8152 
 511   0.0000       3.602368        98.0254 
 512   0.0000       3.611119        98.2635 
 513   0.0000       3.616481        98.4095 
 514   0.0000       3.621455        98.5448 
 515   0.0000       3.625913        98.6661 
 516   0.0000       3.634169        98.8908 
 517   0.0000       3.639776        99.0433 
 518   0.0000       3.645424        99.1970 
 519   0.0000       3.647574        99.2555 
 520   0.0000       3.655982        99.4843 
 521   0.0000       3.659002        99.5665 
 522   0.0000       3.662295        99.6561 
 523   0.0000       3.668705        99.8306 
 524   0.0000       3.677366       100.0662 
 525   0.0000       3.690343       100.4193 
 526   0.0000       3.692621       100.4813 
 527   0.0000       3.697452       100.6128 
 528   0.0000       3.699512       100.6689 
 529   0.0000       3.707324       100.8814 
 530   0.0000       3.712925       101.0338 
 531   0.0000       3.719857       101.2224 
 532   0.0000       3.732414       101.5641 
 533   0.0000       3.742066       101.8268 
 534   0.0000       3.747263       101.9682 
 535   0.0000       3.754992       102.1785 
 536   0.0000       3.763086       102.3988 
 537   0.0000       3.764248       102.4304 
 538   0.0000       3.774265       102.7030 
 539   0.0000       3.780844       102.8820 
 540   0.0000       3.787442       103.0615 
 541   0.0000       3.788948       103.1025 
 542   0.0000       3.801440       103.4425 
 543   0.0000       3.807193       103.5990 
 544   0.0000       3.816593       103.8548 
 545   0.0000       3.821862       103.9982 
 546   0.0000       3.825120       104.0868 
 547   0.0000       3.835618       104.3725 
 548   0.0000       3.839829       104.4871 
 549   0.0000       3.846808       104.6770 
 550   0.0000       3.855716       104.9194 
 551   0.0000       3.872890       105.3867 
 552   0.0000       3.881122       105.6107 
 553   0.0000       3.887299       105.7788 
 554   0.0000       3.892058       105.9083 
 555   0.0000       3.898069       106.0718 
 556   0.0000       3.916193       106.5650 
 557   0.0000       3.922488       106.7363 
 558   0.0000       3.928444       106.8984 
 559   0.0000       3.929528       106.9279 
 560   0.0000       3.942656       107.2851 
 561   0.0000       3.953099       107.5693 
 562   0.0000       3.959536       107.7444 
 563   0.0000       3.969583       108.0178 
 564   0.0000       3.981099       108.3312 
 565   0.0000       3.992086       108.6302 
 566   0.0000       4.006297       109.0169 
 567   0.0000       4.013678       109.2177 
 568   0.0000       4.017796       109.3298 
 569   0.0000       4.030283       109.6696 
 570   0.0000       4.032312       109.7248 
 571   0.0000       4.040676       109.9524 
 572   0.0000       4.044517       110.0569 
 573   0.0000       4.059641       110.4684 
 574   0.0000       4.068770       110.7169 
 575   0.0000       4.079755       111.0158 
 576   0.0000       4.082071       111.0788 
 577   0.0000       4.096877       111.4817 
 578   0.0000       4.103509       111.6621 
 579   0.0000       4.112083       111.8955 
 580   0.0000       4.117296       112.0373 
 581   0.0000       4.121344       112.1475 
 582   0.0000       4.134217       112.4978 
 583   0.0000       4.135151       112.5232 
 584   0.0000       4.146022       112.8190 
 585   0.0000       4.152610       112.9983 
 586   0.0000       4.158683       113.1635 
 587   0.0000       4.169497       113.4578 
 588   0.0000       4.175266       113.6148 
 589   0.0000       4.185480       113.8927 
 590   0.0000       4.191791       114.0644 
 591   0.0000       4.198131       114.2369 
 592   0.0000       4.201542       114.3298 
 593   0.0000       4.209191       114.5379 
 594   0.0000       4.211279       114.5947 
 595   0.0000       4.213990       114.6685 
 596   0.0000       4.228928       115.0750 
 597   0.0000       4.235265       115.2474 
 598   0.0000       4.241443       115.4155 
 599   0.0000       4.243747       115.4782 
 600   0.0000       4.254889       115.7814 
 601   0.0000       4.260988       115.9474 
 602   0.0000       4.269683       116.1840 
 603   0.0000       4.280705       116.4839 
 604   0.0000       4.282406       116.5302 
 605   0.0000       4.290630       116.7540 
 606   0.0000       4.306631       117.1894 
 607   0.0000       4.314952       117.4158 
 608   0.0000       4.320760       117.5739 
 609   0.0000       4.331820       117.8748 
 610   0.0000       4.333369       117.9170 
 611   0.0000       4.344991       118.2332 
 612   0.0000       4.353888       118.4753 
 613   0.0000       4.355708       118.5248 
 614   0.0000       4.359267       118.6217 
 615   0.0000       4.379225       119.1648 
 616   0.0000       4.388462       119.4161 
 617   0.0000       4.396398       119.6321 
 618   0.0000       4.405566       119.8815 
 619   0.0000       4.411621       120.0463 
 620   0.0000       4.415356       120.1479 
 621   0.0000       4.420403       120.2853 
 622   0.0000       4.434912       120.6801 
 623   0.0000       4.438357       120.7738 
 624   0.0000       4.447247       121.0157 
 625   0.0000       4.453884       121.1964 
 626   0.0000       4.461931       121.4153 
 627   0.0000       4.468500       121.5941 
 628   0.0000       4.474574       121.7593 
 629   0.0000       4.488218       122.1306 
 630   0.0000       4.495863       122.3387 
 631   0.0000       4.506663       122.6325 
 632   0.0000       4.515867       122.8830 
 633   0.0000       4.525646       123.1491 
 634   0.0000       4.531391       123.3054 
 635   0.0000       4.544973       123.6750 
 636   0.0000       4.556772       123.9961 
 637   0.0000       4.564640       124.2102 
 638   0.0000       4.577081       124.5487 
 639   0.0000       4.582690       124.7013 
 640   0.0000       4.594703       125.0282 
 641   0.0000       4.607053       125.3643 
 642   0.0000       4.614667       125.5715 
 643   0.0000       4.616060       125.6094 
 644   0.0000       4.622813       125.7931 
 645   0.0000       4.630642       126.0062 
 646   0.0000       4.635039       126.1258 
 647   0.0000       4.641799       126.3098 
 648   0.0000       4.643510       126.3563 
 649   0.0000       4.650762       126.5537 
 650   0.0000       4.657969       126.7498 
 651   0.0000       4.671406       127.1154 
 652   0.0000       4.679051       127.3234 
 653   0.0000       4.689979       127.6208 
 654   0.0000       4.695930       127.7827 
 655   0.0000       4.703680       127.9936 
 656   0.0000       4.709821       128.1607 
 657   0.0000       4.719618       128.4273 
 658   0.0000       4.727650       128.6459 
 659   0.0000       4.743873       129.0873 
 660   0.0000       4.749518       129.2409 
 661   0.0000       4.772063       129.8544 
 662   0.0000       4.798720       130.5798 
 663   0.0000       4.810162       130.8912 
 664   0.0000       4.814055       130.9971 
 665   0.0000       4.820505       131.1726 
 666   0.0000       4.834163       131.5443 
 667   0.0000       4.847183       131.8986 
 668   0.0000       4.884341       132.9097 
 669   0.0000       4.890253       133.0705 
 670   0.0000       4.912556       133.6774 
 671   0.0000       4.940990       134.4512 
 672   0.0000       4.947216       134.6206 
 673   0.0000       4.964008       135.0775 
 674   0.0000       4.975017       135.3771 
 675   0.0000       5.003331       136.1476 
 676   0.0000       5.026766       136.7852 
 677   0.0000       5.028500       136.8324 
 678   0.0000       5.043737       137.2471 
 679   0.0000       5.047801       137.3577 
 680   0.0000       5.052820       137.4942 
 681   0.0000       5.062031       137.7449 
 682   0.0000       5.069929       137.9598 
 683   0.0000       5.102583       138.8484 
 684   0.0000       5.111235       139.0838 
 685   0.0000       5.117629       139.2578 
 686   0.0000       5.129633       139.5844 
 687   0.0000       5.144574       139.9910 
 688   0.0000       5.150590       140.1547 
 689   0.0000       5.167138       140.6050 
 690   0.0000       5.172400       140.7482 
 691   0.0000       5.189320       141.2086 
 692   0.0000       5.199104       141.4748 
 693   0.0000       5.202064       141.5553 
 694   0.0000       5.210454       141.7837 
 695   0.0000       5.213103       141.8557 
 696   0.0000       5.227142       142.2378 
 697   0.0000       5.236320       142.4875 
 698   0.0000       5.239130       142.5640 
 699   0.0000       5.260102       143.1347 
 700   0.0000       5.274638       143.5302 
 701   0.0000       5.281857       143.7266 
 702   0.0000       5.304920       144.3542 
 703   0.0000       5.313352       144.5837 
 704   0.0000       5.316258       144.6627 
 705   0.0000       5.335929       145.1980 
 706   0.0000       5.342813       145.3853 
 707   0.0000       5.363512       145.9486 
 708   0.0000       5.370965       146.1514 
 709   0.0000       5.379909       146.3948 
 710   0.0000       5.387168       146.5923 
 711   0.0000       5.407512       147.1459 
 712   0.0000       5.446987       148.2201 
 713   0.0000       5.452505       148.3702 
 714   0.0000       5.466301       148.7456 
 715   0.0000       5.480723       149.1380 
 716   0.0000       5.494731       149.5192 
 717   0.0000       5.514438       150.0555 
 718   0.0000       5.522492       150.2747 
 719   0.0000       5.537819       150.6917 
 720   0.0000       5.542818       150.8278 
 721   0.0000       5.548644       150.9863 
 722   0.0000       5.553364       151.1147 
 723   0.0000       5.579916       151.8372 
 724   0.0000       5.587595       152.0462 
 725   0.0000       5.600984       152.4105 
 726   0.0000       5.616140       152.8229 
 727   0.0000       5.619538       152.9154 
 728   0.0000       5.633987       153.3086 
 729   0.0000       5.642034       153.5276 
 730   0.0000       5.657582       153.9506 
 731   0.0000       5.665743       154.1727 
 732   0.0000       5.685171       154.7014 
 733   0.0000       5.690991       154.8597 
 734   0.0000       5.708919       155.3476 
 735   0.0000       5.716087       155.5426 
 736   0.0000       5.725951       155.8110 
 737   0.0000       5.733565       156.0182 
 738   0.0000       5.748628       156.4281 
 739   0.0000       5.762628       156.8091 
 740   0.0000       5.765951       156.8995 
 741   0.0000       5.783921       157.3885 
 742   0.0000       5.794226       157.6689 
 743   0.0000       5.811377       158.1356 
 744   0.0000       5.839325       158.8961 
 745   0.0000       5.856450       159.3621 
 746   0.0000       5.859423       159.4430 
 747   0.0000       5.879031       159.9766 
 748   0.0000       5.901281       160.5820 
 749   0.0000       5.928599       161.3254 
 750   0.0000       5.960079       162.1820 
 751   0.0000       5.972099       162.5091 
 752   0.0000       5.983973       162.8322 
 753   0.0000       6.000718       163.2878 
 754   0.0000       6.021627       163.8568 
 755   0.0000       6.037923       164.3002 
 756   0.0000       6.042504       164.4249 
 757   0.0000       6.055521       164.7791 
 758   0.0000       6.079417       165.4293 
 759   0.0000       6.102953       166.0698 
 760   0.0000       6.106974       166.1792 
 761   0.0000       6.172961       167.9748 
 762   0.0000       6.220987       169.2817 
 763   0.0000       6.230824       169.5493 
 764   0.0000       6.265974       170.5058 
 765   0.0000       6.283474       170.9820 
 766   0.0000       6.310079       171.7060 
 767   0.0000       6.330087       172.2504 
 768   0.0000       6.339704       172.5121 
 769   0.0000       6.348624       172.7548 
 770   0.0000       6.364821       173.1956 
 771   0.0000       6.381586       173.6518 
 772   0.0000       6.392544       173.9500 
 773   0.0000       6.444538       175.3648 
 774   0.0000       6.450992       175.5404 
 775   0.0000       6.464042       175.8955 
 776   0.0000       6.497154       176.7966 
 777   0.0000       6.550995       178.2616 
 778   0.0000       6.594452       179.4442 
 779   0.0000       6.631857       180.4620 
 780   0.0000       6.645952       180.8456 
 781   0.0000       6.694662       182.1710 
 782   0.0000       6.716572       182.7672 
 783   0.0000       6.775934       184.3825 
 784   0.0000       6.793652       184.8647 
 785   0.0000       6.884447       187.3353 
 786   0.0000       6.901557       187.8009 
 787   0.0000       6.917219       188.2271 
 788   0.0000       6.985581       190.0873 
 789   0.0000       7.025129       191.1635 
 790   0.0000       7.047813       191.7807 
 791   0.0000       7.058589       192.0740 
 792   0.0000       7.077380       192.5853 
 793   0.0000       7.129665       194.0081 
 794   0.0000       7.254553       197.4064 
 795   0.0000       7.266322       197.7267 
 796   0.0000       7.278311       198.0529 
 797   0.0000       7.288468       198.3293 
 798   0.0000       7.340137       199.7353 
 799   0.0000       7.373612       200.6462 
 800   0.0000       7.394456       201.2134 
 801   0.0000       7.573754       206.0923 
 802   0.0000       7.581793       206.3111 
 803   0.0000       7.627755       207.5618 
 804   0.0000       7.633294       207.7125 
 805   0.0000       7.814569       212.6452 
 806   0.0000       7.852206       213.6694 
 807   0.0000       7.889784       214.6919 
 808   0.0000       7.930441       215.7983 
 809   0.0000       9.463116       257.5045 
 810   0.0000       9.631901       262.0973 
 811   0.0000      10.694146       291.0025 
 812   0.0000      11.407592       310.4164 
 813   0.0000      11.897083       323.7361 
 814   0.0000      12.580912       342.3440 
 815   0.0000      12.925639       351.7245 
 816   0.0000      13.063102       355.4651 
 817   0.0000      13.164538       358.2253 
 818   0.0000      13.263996       360.9317 
 819   0.0000      13.374933       363.9504 
 820   0.0000      13.616293       370.5182 
 821   0.0000      13.855473       377.0266 
 822   0.0000      13.967532       380.0759 
 823   0.0000      14.046844       382.2341 
 824   0.0000      14.114030       384.0623 
 825   0.0000      14.508208       394.7884 
 826   0.0000      14.756608       401.5477 
 827   0.0000      16.027727       436.1366 

                    ********************************
                    * MULLIKEN POPULATION ANALYSIS *
                    ********************************

-----------------------
MULLIKEN ATOMIC CHARGES
-----------------------
   0 C :   -0.272728
   1 C :    0.022655
   2 O :   -0.378746
   3 C :    0.498674
   4 O :   -0.412857
   5 C :   -0.290311
   6 C :    0.165892
   7 C :   -0.265750
   8 N :   -0.127173
   9 C :    0.224354
  10 S :   -0.441180
  11 N :   -0.210029
  12 C :    0.060788
  13 C :    0.095945
  14 C :   -0.239745
  15 C :   -0.118864
  16 C :   -0.279287
  17 C :    0.327780
  18 O :   -0.357638
  19 C :   -0.284761
  20 H :    0.099730
  21 H :    0.090624
  22 H :    0.105099
  23 H :    0.124200
  24 H :    0.092677
  25 H :    0.133072
  26 H :    0.095581
  27 H :    0.130775
  28 H :    0.197951
  29 H :    0.191253
  30 H :    0.149873
  31 H :    0.153080
  32 H :    0.162111
  33 H :    0.132859
  34 H :    0.242939
  35 H :    0.181157
Sum of atomic charges:    0.0000000

--------------------------------
MULLIKEN REDUCED ORBITAL CHARGES
--------------------------------
  0 C s       :     3.257171  s :     3.257171
      pz      :     0.999978  p :     2.939009
      px      :     1.011320
      py      :     0.927711
      dz2     :     0.012418  d :     0.072104
      dxz     :     0.015968
      dyz     :     0.017908
      dx2y2   :     0.013030
      dxy     :     0.012781
      f0      :     0.000357  f :     0.004445
      f+1     :     0.000705
      f-1     :     0.000479
      f+2     :     0.000945
      f-2     :     0.000920
      f+3     :     0.000342
      f-3     :     0.000697
  1 C s       :     3.163236  s :     3.163236
      pz      :     1.002938  p :     2.640043
      px      :     0.740001
      py      :     0.897104
      dz2     :     0.019680  d :     0.162164
      dxz     :     0.047056
      dyz     :     0.027420
      dx2y2   :     0.030700
      dxy     :     0.037309
      f0      :     0.001322  f :     0.011902
      f+1     :     0.001916
      f-1     :     0.000895
      f+2     :     0.001475
      f-2     :     0.002090
      f+3     :     0.002233
      f-3     :     0.001972
  2 O s       :     3.722210  s :     3.722210
      pz      :     1.821927  p :     4.620705
      px      :     1.498247
      py      :     1.300532
      dz2     :     0.004183  d :     0.033550
      dxz     :     0.003353
      dyz     :     0.004562
      dx2y2   :     0.015608
      dxy     :     0.005844
      f0      :     0.000314  f :     0.002280
      f+1     :     0.000217
      f-1     :     0.000448
      f+2     :     0.000253
      f-2     :     0.000172
[...]
 15 C s       :     2.705618  s :     2.705618
      pz      :     0.900108  p :     2.789620
      px      :     0.976733
      py      :     0.912779
      dz2     :     0.064705  d :     0.418562
      dxz     :     0.098993
      dyz     :     0.061356
      dx2y2   :     0.094835
      dxy     :     0.098673
      f0      :     0.006127  f :     0.041261
      f+1     :     0.005221
      f-1     :     0.003285
      f+2     :     0.007308
      f-2     :     0.005035
      f+3     :     0.008412
      f-3     :     0.005874
 16 C s       :     2.701222  s :     2.701222
      pz      :     0.935674  p :     2.869679
      px      :     0.980193
      py      :     0.953812
      dz2     :     0.043970  d :     0.389805
      dxz     :     0.093966
      dyz     :     0.059078
      dx2y2   :     0.092860
      dxy     :     0.099932
      f0      :     0.004008  f :     0.040339
      f+1     :     0.004387
      f-1     :     0.004946
      f+2     :     0.006170
      f-2     :     0.005233
      f+3     :     0.007751
      f-3     :     0.007845
 17 C s       :     2.701699  s :     2.701699
      pz      :     0.916513  p :     2.678062
      px      :     0.825564
      py      :     0.935985
      dz2     :     0.122599  d :     0.710375
      dxz     :     0.146645
      dyz     :     0.091432
      dx2y2   :     0.172107
      dxy     :     0.177592
      f0      :     0.010641  f :     0.099406
      f+1     :     0.013499
      f-1     :     0.008729
      f+2     :     0.015739
      f-2     :     0.010272
      f+3     :     0.020805
      f-3     :     0.019721
 18 O s       :     3.177127  s :     3.177127
      pz      :     1.460945  p :     4.346332
      px      :     1.324561
      py      :     1.560826
      dz2     :     0.009882  d :     0.075415
      dxz     :     0.018125
      dyz     :     0.010515
      dx2y2   :     0.017866
      dxy     :     0.019027
      f0      :     0.000466  f :     0.005057
      f+1     :     0.000752
      f-1     :     0.000639
      f+2     :     0.000436
      f-2     :     0.000742
      f+3     :     0.000906
      f-3     :     0.001115
 19 C s       :     2.695275  s :     2.695275
      pz      :     0.932812  p :     2.846468
      px      :     0.974281
      py      :     0.939376
      dz2     :     0.057210  d :     0.387850
      dxz     :     0.093143
      dyz     :     0.057461
      dx2y2   :     0.085301
      dxy     :     0.094735
      f0      :     0.005555  f :     0.040552
      f+1     :     0.005451
      f-1     :     0.003118
      f+2     :     0.007282
      f-2     :     0.005430
      f+3     :     0.007904
      f-3     :     0.005813
 20 H s       :     0.849089  s :     0.849089
      pz      :     0.051251  p :     0.151592
      px      :     0.048737
      py      :     0.051604
      dz2     :     0.006232  d :     0.027517
      dxz     :     0.004897
      dyz     :     0.005567
      dx2y2   :     0.005893
      dxy     :     0.004928
 21 H s       :     0.846118  s :     0.846118
      pz      :     0.042666  p :     0.151196
      px      :     0.062781
      py      :     0.045749
      dz2     :     0.002720  d :     0.027462
      dxz     :     0.007484
      dyz     :     0.002561
      dx2y2   :     0.007480
      dxy     :     0.007217
 22 H s       :     0.842974  s :     0.842974
      pz      :     0.067793  p :     0.159800
      px      :     0.052046
      py      :     0.039961
      dz2     :     0.008563  d :     0.027883
      dxz     :     0.007302
      dyz     :     0.006501
      dx2y2   :     0.002721
      dxy     :     0.002797
 23 H s       :     0.856963  s :     0.856963
      pz      :     0.065687  p :     0.145048
      px      :     0.041712
      py      :     0.037649
      dz2     :     0.006757  d :     0.026824
      dxz     :     0.007929
      dyz     :     0.006911
      dx2y2   :     0.002531
      dxy     :     0.002696
 24 H s       :     0.857862  s :     0.857862
      pz      :     0.057757  p :     0.149427
      px      :     0.041905
      py      :     0.049766
      dz2     :     0.007006  d :     0.027224
      dxz     :     0.005293
      dyz     :     0.005260
      dx2y2   :     0.004241
      dxy     :     0.005423
 25 H s       :     0.824027  s :     0.824027
      pz      :     0.070053  p :     0.151144
      px      :     0.043363
      py      :     0.037728
      dz2     :     0.009300  d :     0.027767
      dxz     :     0.007916
      dyz     :     0.007694
      dx2y2   :     0.001934
      dxy     :     0.000922
 26 H s       :     0.845079  s :     0.845079
      pz      :     0.039619  p :     0.150265
      px      :     0.040641
      py      :     0.070005
      dz2     :     0.003246  d :     0.027706
      dxz     :     0.000530
      dyz     :     0.008330
      dx2y2   :     0.006973
      dxy     :     0.008627
 27 H s       :     0.826636  s :     0.826636
      pz      :     0.039107  p :     0.151060
      px      :     0.073270
      py      :     0.038682
      dz2     :     0.002298  d :     0.027758
      dxz     :     0.009101
      dyz     :     0.000402
      dx2y2   :     0.007819
      dxy     :     0.008138
 28 H s       :     0.742227  s :     0.742227
      pz      :     0.062275  p :     0.253110
      px      :     0.069027
      py      :     0.121808
      dz2     :     0.005565  d :     0.061764
      dxz     :     0.000607
      dyz     :     0.019307
      dx2y2   :     0.015995
      dxy     :     0.020290
 29 H s       :     0.751302  s :     0.751302
      pz      :     0.105109  p :     0.255398
      px      :     0.098982
      py      :     0.051307
      dz2     :     0.017277  d :     0.061517
      dxz     :     0.013124
      dyz     :     0.009659
      dx2y2   :     0.011451
      dxy     :     0.010006
 30 H s       :     0.829196  s :     0.829196
      pz      :     0.044715  p :     0.149105
      px      :     0.046404
      py      :     0.057986
      dz2     :     0.004093  d :     0.028340
      dxz     :     0.004927
      dyz     :     0.006268
      dx2y2   :     0.005927
      dxy     :     0.007125
 31 H s       :     0.845549  s :     0.845549
      pz      :     0.040974  p :     0.158258
      px      :     0.073271
      py      :     0.044014
      dz2     :     0.002941  d :     0.027596
      dxz     :     0.007545
      dyz     :     0.001265
      dx2y2   :     0.007850
      dxy     :     0.007994
 32 H s       :     0.841854  s :     0.841854
      pz      :     0.048000  p :     0.151020
      px      :     0.039260
      py      :     0.063759
      dz2     :     0.004601  d :     0.026415
      dxz     :     0.003072
      dyz     :     0.006793
      dx2y2   :     0.005796
      dxy     :     0.006153
 33 H s       :     0.847730  s :     0.847730
      pz      :     0.062017  p :     0.158926
      px      :     0.048863
      py      :     0.048046
      dz2     :     0.006982  d :     0.027753
      dxz     :     0.006193
      dyz     :     0.005420
      dx2y2   :     0.004717
      dxy     :     0.004441
 34 H s       :     0.705434  s :     0.705434
      pz      :     0.142434  p :     0.347044
      px      :     0.079509
      py      :     0.125102
      dz2     :     0.031240  d :     0.099421
      dxz     :     0.017727
      dyz     :     0.023443
      dx2y2   :     0.014002
      dxy     :     0.013008
 35 H s       :     0.837034  s :     0.837034
      pz      :     0.052836  p :     0.162856
      px      :     0.040818
      py      :     0.069201
      dz2     :     0.004927  d :     0.028379
      dxz     :     0.003287
      dyz     :     0.006935
      dx2y2   :     0.006735
      dxy     :     0.006495


                      *****************************
                      * MAYER POPULATION ANALYSIS *
                      *****************************

  NA   - Mulliken gross atomic population
  ZA   - Total nuclear charge
  QA   - Mulliken gross atomic charge
  VA   - Mayer's total valence
  BVA  - Mayer's bonded valence
  FA   - Mayer's free valence

  ATOM       NA         ZA         QA         VA         BVA        FA
  0 C      6.2727     6.0000    -0.2727     3.8833     3.8833    -0.0000
  1 C      5.9773     6.0000     0.0227     3.8633     3.8633     0.0000
  2 O      8.3787     8.0000    -0.3787     2.0069     2.0069    -0.0000
  3 C      5.5013     6.0000     0.4987     4.2370     4.2370     0.0000
  4 O      8.4129     8.0000    -0.4129     2.0942     2.0942    -0.0000
  5 C      6.2903     6.0000    -0.2903     3.6607     3.6607     0.0000
  6 C      5.8341     6.0000     0.1659     3.8640     3.8640     0.0000
  7 C      6.2657     6.0000    -0.2657     3.9028     3.9028    -0.0000
  8 N      7.1272     7.0000    -0.1272     3.3188     3.3188    -0.0000
  9 C      5.7756     6.0000     0.2244     4.1413     4.1413    -0.0000
 10 S     16.4412    16.0000    -0.4412     1.7510     1.7510     0.0000
 11 N      7.2100     7.0000    -0.2100     3.2219     3.2219     0.0000
 12 C      5.9392     6.0000     0.0608     3.9502     3.9502     0.0000
 13 C      5.9041     6.0000     0.0959     3.6878     3.6878     0.0000
 14 C      6.2397     6.0000    -0.2397     3.8701     3.8701     0.0000
 15 C      6.1189     6.0000    -0.1189     3.8047     3.8047     0.0000
 16 C      6.2793     6.0000    -0.2793     3.7992     3.7992     0.0000
 17 C      5.6722     6.0000     0.3278     3.8697     3.8697    -0.0000
 18 O      8.3576     8.0000    -0.3576     2.1197     2.1197    -0.0000
 19 C      6.2848     6.0000    -0.2848     3.7829     3.7829     0.0000
 20 H      0.9003     1.0000     0.0997     0.9840     0.9840    -0.0000
 21 H      0.9094     1.0000     0.0906     0.9851     0.9851    -0.0000
 22 H      0.8949     1.0000     0.1051     0.9845     0.9845     0.0000
 23 H      0.8758     1.0000     0.1242     0.9822     0.9822     0.0000
 24 H      0.9073     1.0000     0.0927     0.9726     0.9726     0.0000
 25 H      0.8669     1.0000     0.1331     0.9803     0.9803     0.0000
 26 H      0.9044     1.0000     0.0956     0.9856     0.9856     0.0000
 27 H      0.8692     1.0000     0.1308     0.9787     0.9787    -0.0000
 28 H      0.8020     1.0000     0.1980     1.0222     1.0222    -0.0000
 29 H      0.8087     1.0000     0.1913     1.0208     1.0208     0.0000
 30 H      0.8501     1.0000     0.1499     0.9929     0.9929     0.0000
 31 H      0.8469     1.0000     0.1531     0.9834     0.9834    -0.0000
 32 H      0.8379     1.0000     0.1621     0.9773     0.9773    -0.0000
 33 H      0.8671     1.0000     0.1329     0.9912     0.9912    -0.0000
 34 H      0.7571     1.0000     0.2429     1.0094     1.0094    -0.0000
 35 H      0.8188     1.0000     0.1812     0.9805     0.9805    -0.0000

  Mayer bond orders larger than 0.100000
B(  0-C ,  1-C ) :   0.9727 B(  0-C , 20-H ) :   0.9788 B(  0-C , 21-H ) :   0.9777 
B(  0-C , 22-H ) :   0.9714 B(  1-C ,  2-O ) :   0.8792 B(  1-C , 23-H ) :   0.9834 
B(  1-C , 24-H ) :   0.9692 B(  2-O ,  3-C ) :   1.1187 B(  3-C ,  4-O ) :   2.0046 
B(  3-C ,  5-C ) :   1.0632 B(  5-C ,  6-C ) :   1.6392 B(  5-C , 12-C ) :   0.9780 
B(  6-C ,  7-C ) :   0.9671 B(  6-C ,  8-N ) :   1.1625 B(  7-C , 25-H ) :   0.9584 
B(  7-C , 26-H ) :   0.9902 B(  7-C , 27-H ) :   0.9604 B(  8-N ,  9-C ) :   1.1857 
B(  8-N , 28-H ) :   0.9479 B(  9-C , 10-S ) :   1.5983 B(  9-C , 11-N ) :   1.3056 
B( 11-N , 12-C ) :   0.9455 B( 11-N , 29-H ) :   0.9523 B( 12-C , 13-C ) :   0.9602 
B( 12-C , 30-H ) :   0.9977 B( 13-C , 14-C ) :   1.3500 B( 13-C , 19-C ) :   1.3478 
B( 14-C , 15-C ) :   1.4043 B( 14-C , 31-H ) :   0.9738 B( 15-C , 16-C ) :   1.3581 
B( 15-C , 32-H ) :   0.9701 B( 16-C , 17-C ) :   1.3401 B( 16-C , 33-H ) :   0.9841 
B( 17-C , 18-O ) :   1.1147 B( 17-C , 19-C ) :   1.3525 B( 18-O , 34-H ) :   0.9785 
B( 19-C , 35-H ) :   0.9535 

-------
TIMINGS
-------

Total SCF time: 0 days 2 hours 4 min 20 sec 

Total time                  ....    7460.369 sec
Sum of individual times     ....    7453.977 sec  ( 99.9%)

Fock matrix formation       ....    7439.308 sec  ( 99.7%)
Diagonalization             ....       1.475 sec  (  0.0%)
Density matrix formation    ....       0.205 sec  (  0.0%)
Population analysis         ....       0.250 sec  (  0.0%)
Initial guess               ....       6.551 sec  (  0.1%)
Orbital Transformation      ....       0.000 sec  (  0.0%)
Orbital Orthonormalization  ....       0.000 sec  (  0.0%)
DIIS solution               ....       1.809 sec  (  0.0%)
SOSCF solution              ....       2.871 sec  (  0.0%)

Maximum memory used throughout the entire SCF-calculation: 751.7 MB

------------------------------------------------------------------------------
                                ORCA  MP2 
------------------------------------------------------------------------------

Freezing NCore=48 chemical core electrons

-------------
RI-MP2 ENERGY
-------------
Dimension of the basis                    ...  828
Memory devoted to MP2                     ...  256 MB   
Data format for buffers                   ... DOUBLE
Compression type for matrix containers    ... UNCOMPRESSED
Overall scaling of the MP2 energy         ...   1.000e+00
Calculating two index integrals           ... done (    0.044 sec)
Cholesky decomposition of V**-1           ... done (    0.588 sec)

-----------------
RI-TRANSFORMATION (AUX index driven)
-----------------

Dimension of the orbital-basis         ... 828
Dimension of the aux-basis             ... 2141
Transformation of internal/external MOs...   24-  76 to   77- 827
Number Format for Storage              ... Double (8 Byte)
Integral mode                          ... Direct

First Phase: integral generation and transformation of MO indices
  Aux angular momentum 0               ... done (    5.386 sec)
  Aux angular momentum 1               ... done (    8.566 sec)
  Aux angular momentum 2               ... done (   11.628 sec)
  Aux angular momentum 3               ... done (    9.038 sec)
  Aux angular momentum 4               ... done (    3.067 sec)
Closing buffer VIA ( 0.63 GB; CompressionRatio= 1.00)
  Phase 1 completed in    38.078 sec
Second Phase: sorting and transformation of aux index

IA-Transformation
Memory available                       ... 157 MB 
Max. # MO pairs treated in a batch     ... 11    
# of internal orbitals                 ... 53
# batches for internal orbitals        ... 5
Closing buffer IAV ( 0.63 GB; CompressionRatio= 1.00)
(ia|v) transformation done in    21.407 sec

  Phase 2 completed in    21.417 sec
RI-Integral transformation completed in    59.503 sec
Opening buffers                              ... done

Starting loop over batches of integrals:

Operator 0  - window                       ... ( 24- 76)x( 77-827)
Operator 0  - Memory available             ...   256 MB
Operator 0  - Memory needed per MO         ...  12.3 MB
Operator 0  - Number of orbitals per batch ... 13
Operator 0  - Number of batches            ... 5

OPERATOR  0   PASS   0:  MOs    24 ...   36
  Reading integrals       ... ok
  Internal MO  26
  Internal MO  29
  Internal MO  32
  Internal MO  35
OPERATOR  0   PASS   1:  MOs    37 ...   49
  Reading integrals       ... ok
  Internal MO  38
  Internal MO  41
  Internal MO  44
  Internal MO  47
OPERATOR  0   PASS   2:  MOs    50 ...   62
  Reading integrals       ... ok
  Internal MO  50
  Internal MO  53
  Internal MO  56
  Internal MO  59
  Internal MO  62
OPERATOR  0   PASS   3:  MOs    63 ...   75
  Reading integrals       ... ok
  Internal MO  65
  Internal MO  68
  Internal MO  71
  Internal MO  74
OPERATOR  0   PASS   4:  MOs    76 ...   76
  Reading integrals       ... ok
Time spent in pair loops =    87.518 sec
Deleting buffer (Ka|jb)[aa] ...done

-----------------------------------------------
 RI-MP2 CORRELATION ENERGY:     -3.535188434 Eh
-----------------------------------------------


-------
TIMINGS
-------

Total time                :  147.794 sec
Integral trafo            :   59.556 sec ( 40.3%)
I/O of integrals          :    1.389 sec (  0.9%)
K(i,j) Operators          :   58.066 sec ( 39.3%)
T(i,j) pair energies      :    8.043 sec (  5.4%)
V-calculation             :    0.044 sec (  0.0%)
V**(-1/2)                 :    0.588 sec (  0.4%)
Gamma(ia|P)               :    0.000 sec (  0.0%)
Gamma-Trafo               :    0.000 sec (  0.0%)
D(virtual)                :    0.000 sec (  0.0%)
D(internal)               :    0.000 sec (  0.0%)
W(virtual)                :    0.000 sec (  0.0%)
W(internal)               :    0.000 sec (  0.0%)
L(virtual)                :    0.000 sec (  0.0%)
L(internal)               :    0.000 sec (  0.0%)
G(D)                      :    0.000 sec (  0.0%)
G(Z)                      :    0.000 sec (  0.0%)
Z-Vector Solution         :    0.000 sec (  0.0%)
3-Index Derivative        :    0.000 sec (  0.0%)
2-Index Derivative        :    0.000 sec (  0.0%)
Separable Gradient        :    0.000 sec (  0.0%)


---------------------------------------
MP2 TOTAL ENERGY:    -1274.332961778 Eh
---------------------------------------

Maximum memory used throughout the entire MP2-calculation: 305.4 MB

-------------------------   --------------------
FINAL SINGLE POINT ENERGY     -1274.332961778019
-------------------------   --------------------


                            ***************************************
                            *     ORCA property calculations      *
                            ***************************************


  WARNING: The energy has been calculated at the MP2 level but the densities
           used in the property calculations are still SCF densities
           MP2 response densities have not been calculated 
           use %mp2 Density relaxed end
           or  %mp2 Density unrelaxed end

                                    ---------------------
                                    Active property flags
                                    ---------------------
   (+) Dipole Moment


------------------------------------------------------------------------------
                       ORCA ELECTRIC PROPERTIES CALCULATION
------------------------------------------------------------------------------

Dipole Moment Calculation                       ... on
Quadrupole Moment Calculation                   ... off
Polarizability Calculation                      ... off
GBWName                                         ... CONFS/Conf86.orca.gbw
Electron density file                           ... CONFS/Conf86.orca.scfp
The origin for moment calculation is the CENTER OF MASS  = (32.785274, 31.507431 35.049129)

-------------
DIPOLE MOMENT
-------------
                                X             Y             Z
Electronic contribution:      8.13203      10.69835       3.80359
Nuclear contribution   :     -9.20278     -12.02414      -3.43584
                        -----------------------------------------
Total Dipole Moment    :     -1.07075      -1.32579       0.36776
                        -----------------------------------------
Magnitude (a.u.)       :      1.74341
Magnitude (Debye)      :      4.43139



--------------------
Rotational spectrum 
--------------------
 
Rotational constants in cm-1:     0.012354     0.008923     0.006578 
Rotational constants in MHz :   370.350271   267.491891   197.202995 

 Dipole components along the rotational axes: 
x,y,z [a.u.] :    -1.705282    -0.307063     0.192850 
x,y,z [Debye]:    -4.334483    -0.780492     0.490186 

 

Timings for individual modules:

Sum of individual times         ...     7612.954 sec (= 126.883 min)
GTO integral calculation        ...        3.944 sec (=   0.066 min)   0.1 %
SCF iterations                  ...     7460.499 sec (= 124.342 min)  98.0 %
MP2 module                      ...      148.510 sec (=   2.475 min)   2.0 %
                             ****ORCA TERMINATED NORMALLY****
TOTAL RUN TIME: 0 days 2 hours 6 minutes 54 seconds 564 msec
