
                                        *****************
                                        * O   R   C   A *
                                        *****************

                                            #,                                       
                                            ###                                      
                                            ####                                     
                                            #####                                    
                                            ######                                   
                                           ########,                                 
                                     ,,################,,,,,                         
                               ,,#################################,,                 
                          ,,##########################################,,             
                       ,#########################################, ''#####,          
                    ,#############################################,,   '####,        
                  ,##################################################,,,,####,       
                ,###########''''           ''''###############################       
              ,#####''   ,,,,##########,,,,          '''####'''          '####       
            ,##' ,,,,###########################,,,                        '##       
           ' ,,###''''                  '''############,,,                           
         ,,##''                                '''############,,,,        ,,,,,,###''
      ,#''                                            '''#######################'''  
     '                                                          ''''####''''         
             ,#######,   #######,   ,#######,      ##                                
            ,#'     '#,  ##    ##  ,#'     '#,    #''#        ######   ,####,        
            ##       ##  ##   ,#'  ##            #'  '#       #        #'  '#        
            ##       ##  #######   ##           ,######,      #####,   #    #        
            '#,     ,#'  ##    ##  '#,     ,#' ,#      #,         ##   #,  ,#        
             '#######'   ##     ##  '#######'  #'      '#     #####' # '####'        



                  #######################################################
                  #                        -***-                        #
                  #          Department of theory and spectroscopy      #
                  #    Directorship and core code : Frank Neese         #
                  #        Max Planck Institute fuer Kohlenforschung    #
                  #                Kaiser Wilhelm Platz 1               #
                  #                 D-45470 Muelheim/Ruhr               #
                  #                      Germany                        #
                  #                                                     #
                  #                  All rights reserved                #
                  #                        -***-                        #
                  #######################################################


                         Program Version 5.0.0 -  RELEASE  -
                                (SVN: $Rev: 19529$)
                ($Date: 2021-06-28 11:36:33 +0200 (Mo, 28 Jun 2021) $)


 With contributions from (in alphabetic order):
   Daniel Aravena         : Magnetic Suceptibility
   Michael Atanasov       : Ab Initio Ligand Field Theory (pilot matlab implementation)
   Alexander A. Auer      : GIAO ZORA, VPT2 properties, NMR spectrum
   Ute Becker             : Parallelization
   Giovanni Bistoni       : ED, misc. LED, open-shell LED, HFLD
   Martin Brehm           : Molecular dynamics
   Dmytro Bykov           : SCF Hessian
   Vijay G. Chilkuri      : MRCI spin determinant printing, contributions to CSF-ICE
   Dipayan Datta          : RHF DLPNO-CCSD density
   Achintya Kumar Dutta   : EOM-CC, STEOM-CC
   Dmitry Ganyushin       : Spin-Orbit,Spin-Spin,Magnetic field MRCI
   Miquel Garcia          : C-PCM Hessian, Gaussian charge scheme
   Yang Guo               : DLPNO-NEVPT2, F12-NEVPT2, CIM, IAO-localization
   Andreas Hansen         : Spin unrestricted coupled pair/coupled cluster methods
   Benjamin Helmich-Paris : MC-RPA, TRAH-SCF, COSX integrals
   Lee Huntington         : MR-EOM, pCC
   Robert Izsak           : Overlap fitted RIJCOSX, COSX-SCS-MP3, EOM
   Marcus Kettner         : VPT2
   Christian Kollmar      : KDIIS, OOCD, Brueckner-CCSD(T), CCSD density, CASPT2, CASPT2-K
   Simone Kossmann        : Meta GGA functionals, TD-DFT gradient, OOMP2, MP2 Hessian
   Martin Krupicka        : Initial AUTO-CI
   Lucas Lang             : DCDCAS
   Marvin Lechner         : AUTO-CI (C++ implementation), FIC-MRCC
   Dagmar Lenk            : GEPOL surface, SMD
   Dimitrios Liakos       : Extrapolation schemes; Compound Job, initial MDCI parallelization
   Dimitrios Manganas     : Further ROCIS development; embedding schemes
   Dimitrios Pantazis     : SARC Basis sets
   Anastasios Papadopoulos: AUTO-CI, single reference methods and gradients
   Taras Petrenko         : DFT Hessian,TD-DFT gradient, ASA, ECA, R-Raman, ABS, FL, XAS/XES, NRVS
   Peter Pinski           : DLPNO-MP2, DLPNO-MP2 Gradient
   Christoph Reimann      : Effective Core Potentials
   Marius Retegan         : Local ZFS, SOC
   Christoph Riplinger    : Optimizer, TS searches, QM/MM, DLPNO-CCSD(T), (RO)-DLPNO pert. Triples
   Tobias Risthaus        : Range-separated hybrids, TD-DFT gradient, RPA, STAB
   Michael Roemelt        : Original ROCIS implementation
   Masaaki Saitow         : Open-shell DLPNO-CCSD energy and density
   Barbara Sandhoefer     : DKH picture change effects
   Avijit Sen             : IP-ROCIS
   Kantharuban Sivalingam : CASSCF convergence, NEVPT2, FIC-MRCI
   Bernardo de Souza      : ESD, SOC TD-DFT
   Georgi Stoychev        : AutoAux, RI-MP2 NMR
   Willem Van den Heuvel  : Paramagnetic NMR
   Boris Wezisla          : Elementary symmetry handling
   Frank Wennmohs         : Technical directorship


 We gratefully acknowledge several colleagues who have allowed us to
 interface, adapt or use parts of their codes:
   Stefan Grimme, W. Hujo, H. Kruse, P. Pracht,  : VdW corrections, initial TS optimization,
                  C. Bannwarth, S. Ehlert          DFT functionals, gCP, sTDA/sTD-DF
   Ed Valeev, F. Pavosevic, A. Kumar             : LibInt (2-el integral package), F12 methods
   Garnet Chan, S. Sharma, J. Yang, R. Olivares  : DMRG
   Ulf Ekstrom                                   : XCFun DFT Library
   Mihaly Kallay                                 : mrcc  (arbitrary order and MRCC methods)
   Jiri Pittner, Ondrej Demel                    : Mk-CCSD
   Frank Weinhold                                : gennbo (NPA and NBO analysis)
   Christopher J. Cramer and Donald G. Truhlar   : smd solvation model
   Lars Goerigk                                  : TD-DFT with DH, B97 family of functionals
   V. Asgeirsson, H. Jonsson                     : NEB implementation
   FAccTs GmbH                                   : IRC, NEB, NEB-TS, DLPNO-Multilevel, CI-OPT
                                                   MM, QMMM, 2- and 3-layer-ONIOM, Crystal-QMMM,
                                                   LR-CPCM, SF, NACMEs, symmetry and pop. for TD-DFT,
                                                   nearIR, NL-DFT gradient (VV10), updates on ESD,
                                                   ML-optimized integration grids
   S Lehtola, MJT Oliveira, MAL Marques          : LibXC Library
   Liviu Ungur et al                             : ANISO software


 Your calculation uses the libint2 library for the computation of 2-el integrals
 For citations please refer to: http://libint.valeyev.net

 Your ORCA version has been built with support for libXC version: 5.1.0
 For citations please refer to: https://tddft.org/programs/libxc/

 This ORCA versions uses:
   CBLAS   interface :  Fast vector & matrix operations
   LAPACKE interface :  Fast linear algebra routines
   SCALAPACK package :  Parallel linear algebra routines
   Shared memory     :  Shared parallel matrices
   BLAS/LAPACK       :  OpenBLAS 0.3.15  USE64BITINT DYNAMIC_ARCH NO_AFFINITY Zen SINGLE_THREADED
        Core in use  :  Zen
   Copyright (c) 2011-2014, The OpenBLAS Project


================================================================================

----- Orbital basis set information -----
Your calculation utilizes the basis: cc-pVTZ 
       H, B-Ne : Obtained from the ccRepo (grant-hill.group.shef.ac.uk/ccrepo) Feb. 2017
                 T. H. Dunning, Jr., J. Chem. Phys. 90, 1007 (1989)
            He : Obtained from the ccRepo (grant-hill.group.shef.ac.uk/ccrepo) Feb. 2017
                 D. E. Woon, T. H. Dunning, Jr., J. Chem. Phys. 100, 2975 (1994)
  Li-Be, Na-Mg : Obtained from the ccRepo (grant-hill.group.shef.ac.uk/ccrepo) Feb. 2017
                 B. P. Prascher, D. E. Woon, K. A. Peterson, T. H. Dunning, Jr., A. K. Wilson, Theor. Chem. Acc. 128, 69 (2011)
         Al-Ar : Obtained from the ccRepo (grant-hill.group.shef.ac.uk/ccrepo) Feb. 2017
                 D. E. Woon, T. H. Dunning, Jr., J. Chem. Phys. 98, 1358 (1993)
            Ca : Obtained from the Peterson Research Group Website (tyr0.chem.wsu.edu/~kipeters) Feb. 2017
                 J. Koput, K. A. Peterson, J. Phys. Chem. 106, 9595 (2002)
         Sc-Zn : Obtained from the ccRepo (grant-hill.group.shef.ac.uk/ccrepo) Feb. 2017
                 N. B. Balabanov, K. A. Peterson, J. Chem. Phys. 123, 064107 (2005)
                 N. B. Balabanov, K. A. Peterson, J. Chem. Phys. 125, 074110 (2006)
         Ga-Kr : Obtained from the ccRepo (grant-hill.group.shef.ac.uk/ccrepo) Feb. 2017
                 A. K. Wilson, D. E. Woon, K. A. Peterson, T. H. Dunning, Jr., J. Chem. Phys. 110, 7667 (1999)
             Y : Obtained from the ccRepo (grant-hill.group.shef.ac.uk/ccrepo) Feb. 2017
                 K. A. Peterson, D. Figgen, M. Dolg, H. Stoll, J. Chem. Phys. 126, 124101 (2007)
        Ag, Au : Obtained from the Peterson Research Group Website (tyr0.chem.wsu.edu/~kipeters) Feb. 2017
                 K. A. Peterson, C. Puzzarini, Theor. Chem. Acc. 114, 283 (2005)

----- AuxC basis set information -----
Your calculation utilizes the auxiliary basis: cc-pVTZ/C 
  Obtained from the EMSL Basis Set Exchange (bse.pnl.gov) Feb. 2017
  H-He, B-F, Al-Ar, Ga-Kr : F. Weigend, A. Kohn, C. Hattig, J. Chem. Phys. 116, 3175 (2002)
             Li-Be, Na-Mg : C. Haettig, Phys. Chem. Chem. Phys. 7, 59 (2005)
                       Ne : C. Haettig, Phys. Chem. Chem. Phys. 7, 59 (2005)
                            F. Weigend, A. Kohn, C. Hattig, J. Chem. Phys. 116, 3175 (2002)
                    Sc-Zn : J. G. Hill, J. A. Platts, J. Chem. Phys. 128, 044104 (2008)

================================================================================
                                        WARNINGS
                       Please study these warnings very carefully!
================================================================================


WARNING: No MP2 level density has been requested!
         To caclulate MP2 level properties use
         %mp2 Density relaxed end
         or
         %mp2 Density unrelaxed end

WARNING: Post HF methods need fully converged wavefunctions
  ===> : Setting SCFConvForced true
         You can overwrite this default with %scf ConvForced false 


INFO   : the flag for use of the SHARK integral package has been found!

================================================================================
                                       INPUT FILE
================================================================================
NAME = CONFS/Conf181.orca
|  1> ! ri-mp2 cc-pvtz cc-pvtz/c TightSCF NoKeepInts
|  2> 
|  3> %scf
|  4>   MaxCore 4096
|  5> end
|  6> *xyz  0  1
|  7>     C       15.8187584   13.5281918   17.3873202
|  8>     C       16.2767532   14.1740727   16.0705119
|  9>     O       17.3841645   15.0619480   16.3345458
| 10>     C       17.2220997   16.4011162   16.1097250
| 11>     O       16.5464675   16.8043230   15.1784362
| 12>     C       17.6392071   17.2592337   17.2736239
| 13>     C       17.3850993   18.5931148   17.3226162
| 14>     C       16.6074891   19.4217380   16.3222089
| 15>     N       17.9155155   19.3675750   18.3595474
| 16>     C       18.8695917   18.9342022   19.2417097
| 17>     S       19.5968329   19.9561653   20.3200822
| 18>     N       19.2057353   17.6063055   19.1689052
| 19>     C       18.4597735   16.5981383   18.3944121
| 20>     C       17.6147985   15.7721123   19.3583925
| 21>     C       18.0708649   14.5128463   19.7915624
| 22>     C       17.3229631   13.7579287   20.7110161
| 23>     C       16.1118819   14.2689747   21.2076849
| 24>     C       15.6613992   15.5285888   20.7897701
| 25>     O       14.4955554   16.0276348   21.2718726
| 26>     C       16.4076977   16.2778579   19.8749383
| 27>     H       16.6483871   12.9977020   17.8690638
| 28>     H       15.0158187   12.8054039   17.1994966
| 29>     H       15.4345180   14.2869665   18.0781835
| 30>     H       16.6023822   13.3880285   15.3771522
| 31>     H       15.4293128   14.6979316   15.6075190
| 32>     H       15.5915995   19.0250541   16.1994684
| 33>     H       17.0915610   19.3920437   15.3376705
| 34>     H       16.5166073   20.4742591   16.6150373
| 35>     H       17.6884221   20.3475662   18.4151128
| 36>     H       19.8929377   17.3085174   19.8490377
| 37>     H       19.1941728   15.9306307   17.9218198
| 38>     H       19.0091458   14.1167721   19.4125159
| 39>     H       17.6833093   12.7838329   21.0373315
| 40>     H       15.5311633   13.6901615   21.9183828
| 41>     H       14.1576389   15.3980170   21.9264770
| 42>     H       16.0473751   17.2570449   19.5808498
| 43> *
| 44> 
| 45>                          ****END OF INPUT****
================================================================================

                       ****************************
                       * Single Point Calculation *
                       ****************************

---------------------------------
CARTESIAN COORDINATES (ANGSTROEM)
---------------------------------
  C     15.818758   13.528192   17.387320
  C     16.276753   14.174073   16.070512
  O     17.384165   15.061948   16.334546
  C     17.222100   16.401116   16.109725
  O     16.546467   16.804323   15.178436
  C     17.639207   17.259234   17.273624
  C     17.385099   18.593115   17.322616
  C     16.607489   19.421738   16.322209
  N     17.915516   19.367575   18.359547
  C     18.869592   18.934202   19.241710
  S     19.596833   19.956165   20.320082
  N     19.205735   17.606306   19.168905
  C     18.459774   16.598138   18.394412
  C     17.614798   15.772112   19.358392
  C     18.070865   14.512846   19.791562
  C     17.322963   13.757929   20.711016
  C     16.111882   14.268975   21.207685
  C     15.661399   15.528589   20.789770
  O     14.495555   16.027635   21.271873
  C     16.407698   16.277858   19.874938
  H     16.648387   12.997702   17.869064
  H     15.015819   12.805404   17.199497
  H     15.434518   14.286967   18.078184
  H     16.602382   13.388029   15.377152
  H     15.429313   14.697932   15.607519
  H     15.591599   19.025054   16.199468
  H     17.091561   19.392044   15.337670
  H     16.516607   20.474259   16.615037
  H     17.688422   20.347566   18.415113
  H     19.892938   17.308517   19.849038
  H     19.194173   15.930631   17.921820
  H     19.009146   14.116772   19.412516
  H     17.683309   12.783833   21.037332
  H     15.531163   13.690162   21.918383
  H     14.157639   15.398017   21.926477
  H     16.047375   17.257045   19.580850

----------------------------
CARTESIAN COORDINATES (A.U.)
----------------------------
  NO LB      ZA    FRAG     MASS         X           Y           Z
   0 C     6.0000    0    12.011   29.893121   25.564578   32.857273
   1 C     6.0000    0    12.011   30.758606   26.785116   30.368866
   2 O     8.0000    0    15.999   32.851310   28.462957   30.867818
   3 C     6.0000    0    12.011   32.545052   30.993618   30.442968
   4 O     8.0000    0    15.999   31.268292   31.755568   28.683088
   5 C     6.0000    0    12.011   33.333271   32.615225   32.642419
   6 C     6.0000    0    12.011   32.853076   35.135895   32.735001
   7 C     6.0000    0    12.011   31.383606   36.701766   30.844505
   8 N     7.0000    0    14.007   33.855418   36.599413   34.694517
   9 C     6.0000    0    12.011   35.658361   35.780457   36.361562
  10 S    16.0000    0    32.060   37.032647   37.711687   38.399390
  11 N     7.0000    0    14.007   36.293580   33.271096   36.223981
  12 C     6.0000    0    12.011   34.883916   31.365936   34.760401
  13 C     6.0000    0    12.011   33.287145   29.804973   36.582060
  14 C     6.0000    0    12.011   34.148986   27.425305   37.400633
  15 C     6.0000    0    12.011   32.735656   25.998717   39.138148
  16 C     6.0000    0    12.011   30.447044   26.964454   40.076716
  17 C     6.0000    0    12.011   29.595755   29.344780   39.286972
  18 O     8.0000    0    15.999   27.392630   30.287840   40.198014
  19 C     6.0000    0    12.011   31.006055   30.760693   37.558190
  20 H     1.0000    0     1.008   31.460892   24.562097   33.767637
  21 H     1.0000    0     1.008   28.375785   24.198706   32.502338
  22 H     1.0000    0     1.008   29.167012   26.998454   34.162816
  23 H     1.0000    0     1.008   31.373956   25.299707   29.058606
  24 H     1.0000    0     1.008   29.157176   27.775065   29.493937
  25 H     1.0000    0     1.008   29.463853   35.952142   30.612559
  26 H     1.0000    0     1.008   32.298369   36.645652   28.983997
  27 H     1.0000    0     1.008   31.211864   38.690742   31.397870
  28 H     1.0000    0     1.008   33.426274   38.451328   34.799520
  29 H     1.0000    0     1.008   37.592204   32.708358   37.509245
  30 H     1.0000    0     1.008   36.271730   30.104529   33.867331
  31 H     1.0000    0     1.008   35.922080   26.676833   36.684339
  32 H     1.0000    0     1.008   33.416612   24.157943   39.754795
  33 H     1.0000    0     1.008   29.349645   25.870656   41.419741
  34 H     1.0000    0     1.008   26.754060   29.098035   41.435037
  35 H     1.0000    0     1.008   30.325144   32.611089   37.002444

--------------------------------
INTERNAL COORDINATES (ANGSTROEM)
--------------------------------
 C      0   0   0     0.000000000000     0.00000000     0.00000000
 C      1   0   0     1.536523827593     0.00000000     0.00000000
 O      2   1   0     1.443743826330   109.29378094     0.00000000
 C      3   2   1     1.367545560266   118.76736008   244.34647979
 O      4   3   2     1.219160950100   121.00519562   324.18793188
 C      4   3   2     1.504993314391   113.47609322   129.64149186
 C      6   4   3     1.358753034373   122.39796633   189.37369571
 C      7   6   4     1.513971200722   127.55543264     3.81288089
 N      7   6   4     1.398698058961   119.95872024   186.66994171
 C      9   7   6     1.369775055521   124.49965240    11.17460984
 S     10   9   7     1.654138926903   122.04658599   171.90282906
 N     10   9   7     1.371715225880   116.28131983   352.86754402
 C     12  10   9     1.474008029884   124.47079593   348.79102038
 C     13  12  10     1.524978660469   108.58732439   257.08717376
 C     14  13  12     1.407616276629   119.97216199   261.10373732
 C     15  14  13     1.405223395648   120.63154214   178.05681754
 C     16  15  14     1.405192365480   119.64319210   359.65751910
 C     17  16  15     1.401504592920   119.90043888   359.66121790
 O     18  17  16     1.356709805604   120.05577592   180.29541833
 C     18  17  16     1.398314291427   120.33970029     0.32843357
 H      1   2   3     1.096257316468   110.75926541   302.97594342
 H      1   2   3     1.096545582700   110.39823665   183.29477923
 H      1   2   3     1.095751718976   110.71852222    63.84925157
 H      2   1   3     1.097564304986   109.19480028   119.35965299
 H      2   1   3     1.098610851991   109.37114940   236.98880886
 H      8   7   6     1.097476663190   110.57986210    57.38618377
 H      8   7   6     1.097507729766   110.57408356   298.62693945
 H      8   7   6     1.096270331334   113.05106610   177.93143286
 H      9   7   6     1.007492768251   119.60353333   182.86322355
 H     12  10   9     1.011684292961   114.56473014   181.65961735
 H     13  12  10     1.099205262868   107.64578318   140.11556685
 H     15  14  13     1.086702382611   119.89882884   357.97310677
 H     16  15  14     1.088666042324   120.04242955   179.82191168
 H     17  16  15     1.085057748668   119.91851186   180.04529290
 H     19  18  17     0.969078456859   107.49911356     3.57887186
 H     20  18  17     1.084033026652   118.95352114   181.10112328

---------------------------
INTERNAL COORDINATES (A.U.)
---------------------------
 C      0   0   0     0.000000000000     0.00000000     0.00000000
 C      1   0   0     2.903609232395     0.00000000     0.00000000
 O      2   1   0     2.728280439304   109.29378094     0.00000000
 C      3   2   1     2.584286584562   118.76736008   244.34647979
 O      4   3   2     2.303880308860   121.00519562   324.18793188
 C      4   3   2     2.844025197582   113.47609322   129.64149186
 C      6   4   3     2.567671118599   122.39796633   189.37369571
 C      7   6   4     2.860990944008   127.55543264     3.81288089
 N      7   6   4     2.643156275483   119.95872024   186.66994171
 C      9   7   6     2.588499720011   124.49965240    11.17460984
 S     10   9   7     3.125869559305   122.04658599   171.90282906
 N     10   9   7     2.592166110644   116.28131983   352.86754402
 C     12  10   9     2.785471495682   124.47079593   348.79102038
 C     13  12  10     2.881792028360   108.58732439   257.08717376
 C     14  13  12     2.660009264479   119.97216199   261.10373732
 C     15  14  13     2.655487374754   120.63154214   178.05681754
 C     16  15  14     2.655428736234   119.64319210   359.65751910
 C     17  16  15     2.648459856052   119.90043888   359.66121790
 O     18  17  16     2.563809975796   120.05577592   180.29541833
 C     18  17  16     2.642431059945   120.33970029     0.32843357
 H      1   2   3     2.071626100431   110.75926541   302.97594342
 H      1   2   3     2.072170844665   110.39823665   183.29477923
 H      1   2   3     2.070670659638   110.71852222    63.84925157
 H      2   1   3     2.074095950791   109.19480028   119.35965299
 H      2   1   3     2.076073638016   109.37114940   236.98880886
 H      8   7   6     2.073930331800   110.57986210    57.38618377
 H      8   7   6     2.073989039120   110.57408356   298.62693945
 H      8   7   6     2.071650694964   113.05106610   177.93143286
 H      9   7   6     1.903885413901   119.60353333   182.86322355
 H     12  10   9     1.911806247686   114.56473014   181.65961735
 H     13  12  10     2.077196911786   107.64578318   140.11556685
 H     15  14  13     2.053569892215   119.89882884   357.97310677
 H     16  15  14     2.057280671292   120.04242955   179.82191168
 H     17  16  15     2.050461984472   119.91851186   180.04529290
 H     19  18  17     1.831292885747   107.49911356     3.57887186
 H     20  18  17     2.048525540498   118.95352114   181.10112328

---------------------
BASIS SET INFORMATION
---------------------
There are 5 groups of distinct atoms

 Group   1 Type C   : 18s5p2d1f contracted to 4s3p2d1f pattern {8811/311/11/1}
 Group   2 Type O   : 18s5p2d1f contracted to 4s3p2d1f pattern {8811/311/11/1}
 Group   3 Type N   : 18s5p2d1f contracted to 4s3p2d1f pattern {8811/311/11/1}
 Group   4 Type S   : 41s16p2d1f contracted to 5s4p2d1f pattern {13131311/7711/11/1}
 Group   5 Type H   : 5s2p1d contracted to 3s2p1d pattern {311/11/1}

Atom   0C    basis set group =>   1
Atom   1C    basis set group =>   1
Atom   2O    basis set group =>   2
Atom   3C    basis set group =>   1
Atom   4O    basis set group =>   2
Atom   5C    basis set group =>   1
Atom   6C    basis set group =>   1
Atom   7C    basis set group =>   1
Atom   8N    basis set group =>   3
Atom   9C    basis set group =>   1
Atom  10S    basis set group =>   4
Atom  11N    basis set group =>   3
Atom  12C    basis set group =>   1
Atom  13C    basis set group =>   1
Atom  14C    basis set group =>   1
Atom  15C    basis set group =>   1
Atom  16C    basis set group =>   1
Atom  17C    basis set group =>   1
Atom  18O    basis set group =>   2
Atom  19C    basis set group =>   1
Atom  20H    basis set group =>   5
Atom  21H    basis set group =>   5
Atom  22H    basis set group =>   5
Atom  23H    basis set group =>   5
Atom  24H    basis set group =>   5
Atom  25H    basis set group =>   5
Atom  26H    basis set group =>   5
Atom  27H    basis set group =>   5
Atom  28H    basis set group =>   5
Atom  29H    basis set group =>   5
Atom  30H    basis set group =>   5
Atom  31H    basis set group =>   5
Atom  32H    basis set group =>   5
Atom  33H    basis set group =>   5
Atom  34H    basis set group =>   5
Atom  35H    basis set group =>   5
---------------------------------
AUXILIARY/C BASIS SET INFORMATION
---------------------------------
There are 5 groups of distinct atoms

 Group   1 Type C   : 8s6p5d3f1g contracted to 8s6p5d3f1g pattern {11111111/111111/11111/111/1}
 Group   2 Type O   : 8s6p5d3f1g contracted to 8s6p5d3f1g pattern {11111111/111111/11111/111/1}
 Group   3 Type N   : 8s6p5d3f1g contracted to 8s6p5d3f1g pattern {11111111/111111/11111/111/1}
 Group   4 Type S   : 10s8p7d5f2g contracted to 10s8p7d5f2g pattern {1111111111/11111111/1111111/11111/11}
 Group   5 Type H   : 4s3p2d1f contracted to 4s3p2d1f pattern {1111/111/11/1}

Atom   0C    basis set group =>   1
Atom   1C    basis set group =>   1
Atom   2O    basis set group =>   2
Atom   3C    basis set group =>   1
Atom   4O    basis set group =>   2
Atom   5C    basis set group =>   1
Atom   6C    basis set group =>   1
Atom   7C    basis set group =>   1
Atom   8N    basis set group =>   3
Atom   9C    basis set group =>   1
Atom  10S    basis set group =>   4
Atom  11N    basis set group =>   3
Atom  12C    basis set group =>   1
Atom  13C    basis set group =>   1
Atom  14C    basis set group =>   1
Atom  15C    basis set group =>   1
Atom  16C    basis set group =>   1
Atom  17C    basis set group =>   1
Atom  18O    basis set group =>   2
Atom  19C    basis set group =>   1
Atom  20H    basis set group =>   5
Atom  21H    basis set group =>   5
Atom  22H    basis set group =>   5
Atom  23H    basis set group =>   5
Atom  24H    basis set group =>   5
Atom  25H    basis set group =>   5
Atom  26H    basis set group =>   5
Atom  27H    basis set group =>   5
Atom  28H    basis set group =>   5
Atom  29H    basis set group =>   5
Atom  30H    basis set group =>   5
Atom  31H    basis set group =>   5
Atom  32H    basis set group =>   5
Atom  33H    basis set group =>   5
Atom  34H    basis set group =>   5
Atom  35H    basis set group =>   5
------------------------------------------------------------------------------
                           ORCA GTO INTEGRAL CALCULATION
------------------------------------------------------------------------------
------------------------------------------------------------------------------
                   ___                                                        
                  /   \      - P O W E R E D   B Y -                         
                 /     \                                                     
                 |  |  |   _    _      __       _____    __    __             
                 |  |  |  | |  | |    /  \     |  _  \  |  |  /  |          
                  \  \/   | |  | |   /    \    | | | |  |  | /  /          
                 / \  \   | |__| |  /  /\  \   | |_| |  |  |/  /          
                |  |  |   |  __  | /  /__\  \  |    /   |      \           
                |  |  |   | |  | | |   __   |  |    \   |  |\   \          
                \     /   | |  | | |  |  |  |  | |\  \  |  | \   \       
                 \___/    |_|  |_| |__|  |__|  |_| \__\ |__|  \__/        
                                                                              
                      - O R C A' S   B I G   F R I E N D -                    
                                      &                                       
                       - I N T E G R A L  F E E D E R -                       
                                                                              
 v1 FN, 2020, v2 2021                                                         
------------------------------------------------------------------------------


Reading SHARK input file CONFS/Conf181.orca.SHARKINP.tmp ... ok
----------------------
SHARK INTEGRAL PACKAGE
----------------------

Number of atoms                             ...     36
Number of basis functions                   ...    828
Number of shells                            ...    298
Maximum angular momentum                    ...      3
Integral batch strategy                     ... SHARK/LIBINT Hybrid
RI-J (if used) integral strategy            ... SPLIT-RIJ (Revised 2003 algorithm where possible)
Printlevel                                  ...      1
Contraction scheme used                     ... SEGMENTED contraction
Coulomb Range Separation                    ... NOT USED
Exchange Range Separation                   ... NOT USED
Finite Nucleus Model                        ... NOT USED
Auxiliary Coulomb fitting basis             ... NOT available
Auxiliary J/K fitting basis                 ... NOT available
Auxiliary Correlation fitting basis         ... AVAILABLE
   # of basis functions in Aux-C            ...   2141
   # of shells in Aux-C                     ...    629
   Maximum angular momentum in Aux-C        ...      4
Auxiliary 'external' fitting basis          ... NOT available
Integral threshold                          ...     2.500000e-11
Primitive cut-off                           ...     2.500000e-12
Primitive pair pre-selection threshold      ...     2.500000e-12

Calculating pre-screening integrals         ... done (  0.6 sec) Dimension = 298
Organizing shell pair data                  ... done (  1.0 sec)
Shell pair information
Total number of shell pairs                 ...     44551
Shell pairs after pre-screening             ...     34050
Total number of primitive shell pairs       ...    234348
Primitive shell pairs kept                  ...     97625
          la=0 lb=0:   6777 shell pairs
          la=1 lb=0:   9439 shell pairs
          la=1 lb=1:   3342 shell pairs
          la=2 lb=0:   5450 shell pairs
          la=2 lb=1:   3734 shell pairs
          la=2 lb=2:   1065 shell pairs
          la=3 lb=0:   1968 shell pairs
          la=3 lb=1:   1353 shell pairs
          la=3 lb=2:    773 shell pairs
          la=3 lb=3:    149 shell pairs

Calculating one electron integrals          ... done (  0.3 sec)
Calculating RI/C V-Matrix + Cholesky decomp.... done (  1.0 sec)
Calculating Nuclear repulsion               ... done (  0.0 sec) ENN=   1722.482037448131 Eh

SHARK setup successfully completed in   3.7 seconds

Maximum memory used throughout the entire GTOINT-calculation: 507.0 MB
-------------------------------------------------------------------------------
                                 ORCA SCF
-------------------------------------------------------------------------------

------------
SCF SETTINGS
------------
Hamiltonian:
 Ab initio Hamiltonian  Method          .... Hartree-Fock(GTOs)


General Settings:
 Integral files         IntName         .... CONFS/Conf181.orca
 Hartree-Fock type      HFTyp           .... RHF
 Total Charge           Charge          ....    0
 Multiplicity           Mult            ....    1
 Number of Electrons    NEL             ....  154
 Basis Dimension        Dim             ....  828
 Nuclear Repulsion      ENuc            ....   1722.4820374481 Eh

Convergence Acceleration:
 DIIS                   CNVDIIS         .... on
   Start iteration      DIISMaxIt       ....    12
   Startup error        DIISStart       ....  0.200000
   # of expansion vecs  DIISMaxEq       ....     5
   Bias factor          DIISBfac        ....   1.050
   Max. coefficient     DIISMaxC        ....  10.000
 Trust-Rad. Augm. Hess. CNVTRAH         .... auto
   Auto Start mean grad. ratio tolernc. ....  1.125000
   Auto Start start iteration           ....    20
   Auto Start num. interpolation iter.  ....    10
   Max. Number of Micro iterations      ....    16
   Max. Number of Macro iterations      .... Maxiter - #DIIS iter
   Number of Davidson start vectors     ....     2
   Converg. threshold I  (grad. norm)   ....   1.000e-05
   Converg. threshold II (energy diff.) ....   1.000e-08
   Grad. Scal. Fac. for Micro threshold ....   0.100
   Minimum threshold for Micro iter.    ....   0.010
   NR start threshold (gradient norm)   ....   0.001
   Initial trust radius                 ....   0.400
   Minimum AH scaling param. (alpha)    ....   1.000
   Maximum AH scaling param. (alpha)    .... 1000.000
   Orbital update algorithm             .... Taylor
   White noise on init. David. guess    .... on
   Maximum white noise                  ....   0.010
   Quad. conv. algorithm                .... NR
 SOSCF                  CNVSOSCF        .... on
   Start iteration      SOSCFMaxIt      ....   150
   Startup grad/error   SOSCFStart      ....  0.003300
 Level Shifting         CNVShift        .... on
   Level shift para.    LevelShift      ....    0.2500
   Turn off err/grad.   ShiftErr        ....    0.0010
 Zerner damping         CNVZerner       .... off
 Static damping         CNVDamp         .... on
   Fraction old density DampFac         ....    0.7000
   Max. Damping (<1)    DampMax         ....    0.9800
   Min. Damping (>=0)   DampMin         ....    0.0000
   Turn off err/grad.   DampErr         ....    0.1000
 Fernandez-Rico         CNVRico         .... off

SCF Procedure:
 Maximum # iterations   MaxIter         ....   125
 SCF integral mode      SCFMode         .... Direct
   Integral package                     .... SHARK and LIBINT hybrid scheme
 Reset frequency        DirectResetFreq ....    20
 Integral Threshold     Thresh          ....  2.500e-11 Eh
 Primitive CutOff       TCut            ....  2.500e-12 Eh

Convergence Tolerance:
 Convergence Check Mode ConvCheckMode   .... Total+1el-Energy
 Convergence forced     ConvForced      .... 1
 Energy Change          TolE            ....  1.000e-08 Eh
 1-El. energy change                    ....  1.000e-05 Eh
 Orbital Gradient       TolG            ....  1.000e-05
 Orbital Rotation angle TolX            ....  1.000e-05
 DIIS Error             TolErr          ....  5.000e-07


Diagonalization of the overlap matrix:
Smallest eigenvalue                        ... 3.259e-05
Time for diagonalization                   ...    0.107 sec
Threshold for overlap eigenvalues          ... 1.000e-08
Number of eigenvalues below threshold      ... 0
Time for construction of square roots      ...    0.072 sec
Total time needed                          ...    0.179 sec

Time for model grid setup =    1.391 sec

------------------------------
INITIAL GUESS: MODEL POTENTIAL
------------------------------
Loading Hartree-Fock densities                     ... done
Calculating cut-offs                               ... done
Initializing the effective Hamiltonian             ... done
Setting up the integral package (SHARK)            ... done
Starting the Coulomb interaction                   ... done (   3.8 sec)
Reading the grid                                   ... done
Mapping shells                                     ... done
Starting the XC term evaluation                    ... done (   1.2 sec)
Transforming the Hamiltonian                       ... done (   0.1 sec)
Diagonalizing the Hamiltonian                      ... done (   0.1 sec)
Back transforming the eigenvectors                 ... done (   0.0 sec)
Now organizing SCF variables                       ... done
                      ------------------
                      INITIAL GUESS DONE (   7.0 sec)
                      ------------------
--------------
SCF ITERATIONS
--------------
ITER       Energy         Delta-E        Max-DP      RMS-DP      [F,P]     Damp
               ***  Starting incremental Fock matrix formation  ***
  0  -1270.0088386747   0.000000000000 0.04932282  0.00043454  0.3163352 0.7000
  1  -1270.2764018841  -0.267563209380 0.03608330  0.00034938  0.1878669 0.7000
                               ***Turning on DIIS***
  2  -1270.4429560673  -0.166554183143 0.02583773  0.00023334  0.1096418 0.7000
  3  -1272.5810157999  -2.138059732673 0.06312773  0.00050118  0.0829124 0.0000
  4  -1270.7534983244   1.827517475484 0.00730133  0.00009480  0.0069590 0.0000
  5  -1270.8105812176  -0.057082893174 0.00349805  0.00004998  0.0049442 0.0000
                      *** Initiating the SOSCF procedure ***
                           *** Shutting down DIIS ***
                      *** Re-Reading the Fockian *** 
                      *** Removing any level shift *** 
ITER      Energy       Delta-E        Grad      Rot      Max-DP    RMS-DP
  6  -1270.79036142   0.0202197993  0.001531  0.001531  0.001733  0.000026
               *** Restarting incremental Fock matrix formation ***
  7  -1270.80484284  -0.0144814188  0.000904  0.002328  0.001247  0.000016
  8  -1270.80488965  -0.0000468098  0.000390  0.002631  0.001434  0.000017
  9  -1270.80490727  -0.0000176181  0.000160  0.000313  0.000350  0.000004
 10  -1270.80490954  -0.0000022722  0.000045  0.000120  0.000120  0.000001
 11  -1270.80490976  -0.0000002249  0.000024  0.000127  0.000067  0.000001
 12  -1270.80490983  -0.0000000710  0.000009  0.000040  0.000035  0.000000
 13  -1270.80490983  -0.0000000019  0.000003  0.000011  0.000007  0.000000
                  ***Gradient check signals convergence***
              ***Rediagonalizing the Fockian in SOSCF/NRSCF***

               *****************************************************
               *                     SUCCESS                       *
               *           SCF CONVERGED AFTER  14 CYCLES          *
               *****************************************************


----------------
TOTAL SCF ENERGY
----------------

Total Energy       :        -1270.80490983 Eh          -34580.35963 eV

Components:
Nuclear Repulsion  :         1722.48203745 Eh           46871.11912 eV
Electronic Energy  :        -2993.28694727 Eh          -81451.47875 eV
One Electron Energy:        -5166.15050955 Eh         -140578.10222 eV
Two Electron Energy:         2172.86356228 Eh           59126.62347 eV

Virial components:
Potential Energy   :        -2539.78218658 Eh          -69110.98683 eV
Kinetic Energy     :         1268.97727675 Eh           34530.62720 eV
Virial Ratio       :            2.00144024


---------------
SCF CONVERGENCE
---------------

  Last Energy change         ...    8.7412e-09  Tolerance :   1.0000e-08
  Last MAX-Density change    ...    1.8523e-06  Tolerance :   1.0000e-07
  Last RMS-Density change    ...    3.0479e-08  Tolerance :   5.0000e-09
  Last Orbital Gradient      ...    1.4069e-06  Tolerance :   1.0000e-05
  Last Orbital Rotation      ...    3.2405e-06  Tolerance :   1.0000e-05

             **** THE GBW FILE WAS UPDATED (CONFS/Conf181.orca.gbw) ****
             **** DENSITY CONFS/Conf181.orca.scfp WAS UPDATED ****
             **** ENERGY FILE WAS UPDATED (CONFS/Conf181.orca.en.tmp) ****
             **** THE GBW FILE WAS UPDATED (CONFS/Conf181.orca.gbw) ****
             **** DENSITY CONFS/Conf181.orca.scfp WAS UPDATED ****
----------------
ORBITAL ENERGIES
----------------

  NO   OCC          E(Eh)            E(eV) 
   0   2.0000     -91.889638     -2500.4442 
   1   2.0000     -20.599500      -560.5409 
   2   2.0000     -20.593441      -560.3760 
   3   2.0000     -20.543284      -559.0112 
   4   2.0000     -15.630391      -425.3246 
   5   2.0000     -15.608326      -424.7241 
   6   2.0000     -11.394252      -310.0533 
   7   2.0000     -11.384222      -309.7804 
   8   2.0000     -11.337110      -308.4984 
   9   2.0000     -11.316624      -307.9410 
  10   2.0000     -11.310133      -307.7644 
  11   2.0000     -11.293601      -307.3145 
  12   2.0000     -11.261854      -306.4506 
  13   2.0000     -11.259834      -306.3957 
  14   2.0000     -11.257838      -306.3413 
  15   2.0000     -11.252641      -306.1999 
  16   2.0000     -11.245460      -306.0045 
  17   2.0000     -11.240025      -305.8566 
  18   2.0000     -11.239911      -305.8535 
  19   2.0000     -11.220355      -305.3214 
  20   2.0000      -8.894666      -242.0362 
  21   2.0000      -6.576234      -178.9484 
  22   2.0000      -6.574239      -178.8941 
  23   2.0000      -6.573646      -178.8780 
  24   2.0000      -1.448698       -39.4211 
  25   2.0000      -1.419158       -38.6172 
  26   2.0000      -1.352102       -36.7926 
  27   2.0000      -1.341351       -36.5000 
  28   2.0000      -1.239543       -33.7297 
  29   2.0000      -1.159490       -31.5513 
  30   2.0000      -1.120681       -30.4953 
  31   2.0000      -1.043819       -28.4038 
  32   2.0000      -1.034496       -28.1501 
  33   2.0000      -1.017826       -27.6965 
  34   2.0000      -0.996928       -27.1278 
  35   2.0000      -0.984795       -26.7976 
  36   2.0000      -0.923870       -25.1398 
  37   2.0000      -0.887362       -24.1463 
  38   2.0000      -0.847749       -23.0684 
  39   2.0000      -0.840421       -22.8690 
  40   2.0000      -0.835519       -22.7356 
  41   2.0000      -0.816201       -22.2099 
  42   2.0000      -0.761046       -20.7091 
  43   2.0000      -0.734079       -19.9753 
  44   2.0000      -0.720817       -19.6144 
  45   2.0000      -0.698385       -19.0040 
  46   2.0000      -0.689425       -18.7602 
  47   2.0000      -0.678403       -18.4603 
  48   2.0000      -0.671337       -18.2680 
  49   2.0000      -0.666381       -18.1332 
  50   2.0000      -0.648059       -17.6346 
  51   2.0000      -0.645236       -17.5578 
  52   2.0000      -0.637765       -17.3545 
  53   2.0000      -0.610430       -16.6106 
  54   2.0000      -0.603021       -16.4090 
  55   2.0000      -0.599900       -16.3241 
  56   2.0000      -0.585651       -15.9364 
  57   2.0000      -0.578550       -15.7432 
  58   2.0000      -0.571416       -15.5490 
  59   2.0000      -0.567188       -15.4340 
  60   2.0000      -0.565224       -15.3805 
  61   2.0000      -0.550508       -14.9801 
  62   2.0000      -0.537204       -14.6181 
  63   2.0000      -0.527757       -14.3610 
  64   2.0000      -0.521910       -14.2019 
  65   2.0000      -0.513329       -13.9684 
  66   2.0000      -0.503420       -13.6988 
  67   2.0000      -0.495393       -13.4803 
  68   2.0000      -0.483353       -13.1527 
  69   2.0000      -0.462796       -12.5933 
  70   2.0000      -0.451015       -12.2728 
  71   2.0000      -0.446738       -12.1564 
  72   2.0000      -0.356985        -9.7140 
  73   2.0000      -0.352038        -9.5795 
  74   2.0000      -0.329247        -8.9593 
  75   2.0000      -0.323903        -8.8138 
  76   2.0000      -0.316563        -8.6141 
  77   0.0000       0.072660         1.9772 
  78   0.0000       0.104177         2.8348 
  79   0.0000       0.122493         3.3332 
  80   0.0000       0.130420         3.5489 
  81   0.0000       0.134010         3.6466 
  82   0.0000       0.139769         3.8033 
  83   0.0000       0.149146         4.0585 
  84   0.0000       0.154718         4.2101 
  85   0.0000       0.160667         4.3720 
  86   0.0000       0.170449         4.6382 
  87   0.0000       0.185342         5.0434 
  88   0.0000       0.192235         5.2310 
  89   0.0000       0.195157         5.3105 
  90   0.0000       0.199870         5.4387 
  91   0.0000       0.207844         5.6557 
  92   0.0000       0.220491         5.9999 
  93   0.0000       0.221862         6.0372 
  94   0.0000       0.227154         6.1812 
  95   0.0000       0.234611         6.3841 
  96   0.0000       0.246281         6.7017 
  97   0.0000       0.260304         7.0832 
  98   0.0000       0.265385         7.2215 
  99   0.0000       0.285299         7.7634 
 100   0.0000       0.295221         8.0334 
 101   0.0000       0.300331         8.1724 
 102   0.0000       0.314400         8.5553 
 103   0.0000       0.318688         8.6720 
 104   0.0000       0.320641         8.7251 
 105   0.0000       0.333852         9.0846 
 106   0.0000       0.343379         9.3438 
 107   0.0000       0.346063         9.4168 
 108   0.0000       0.359424         9.7804 
 109   0.0000       0.367695        10.0055 
 110   0.0000       0.373505        10.1636 
 111   0.0000       0.378139        10.2897 
 112   0.0000       0.383182        10.4269 
 113   0.0000       0.386450        10.5158 
 114   0.0000       0.397529        10.8173 
 115   0.0000       0.402127        10.9424 
 116   0.0000       0.415368        11.3027 
 117   0.0000       0.423296        11.5185 
 118   0.0000       0.435250        11.8438 
 119   0.0000       0.437721        11.9110 
 120   0.0000       0.441169        12.0048 
 121   0.0000       0.444405        12.0929 
 122   0.0000       0.456136        12.4121 
 123   0.0000       0.462672        12.5899 
 124   0.0000       0.465843        12.6762 
 125   0.0000       0.472287        12.8516 
 126   0.0000       0.481440        13.1007 
 127   0.0000       0.488141        13.2830 
 128   0.0000       0.491016        13.3612 
 129   0.0000       0.497353        13.5337 
 130   0.0000       0.502692        13.6789 
 131   0.0000       0.511089        13.9074 
 132   0.0000       0.516472        14.0539 
 133   0.0000       0.522149        14.2084 
 134   0.0000       0.531650        14.4669 
 135   0.0000       0.535622        14.5750 
 136   0.0000       0.539231        14.6732 
 137   0.0000       0.545801        14.8520 
 138   0.0000       0.548954        14.9378 
 139   0.0000       0.553344        15.0573 
 140   0.0000       0.560030        15.2392 
 141   0.0000       0.560440        15.2503 
 142   0.0000       0.567427        15.4405 
 143   0.0000       0.574281        15.6270 
 144   0.0000       0.579732        15.7753 
 145   0.0000       0.584336        15.9006 
 146   0.0000       0.586893        15.9702 
 147   0.0000       0.593532        16.1508 
 148   0.0000       0.595623        16.2077 
 149   0.0000       0.596114        16.2211 
 150   0.0000       0.607829        16.5399 
 151   0.0000       0.610826        16.6214 
 152   0.0000       0.615775        16.7561 
 153   0.0000       0.617860        16.8128 
 154   0.0000       0.620488        16.8843 
 155   0.0000       0.629908        17.1407 
 156   0.0000       0.632343        17.2069 
 157   0.0000       0.635085        17.2815 
 158   0.0000       0.638870        17.3845 
 159   0.0000       0.646250        17.5853 
 160   0.0000       0.650034        17.6883 
 161   0.0000       0.658099        17.9078 
 162   0.0000       0.660476        17.9725 
 163   0.0000       0.665795        18.1172 
 164   0.0000       0.668450        18.1895 
 165   0.0000       0.671535        18.2734 
 166   0.0000       0.678703        18.4684 
 167   0.0000       0.684300        18.6207 
 168   0.0000       0.691721        18.8227 
 169   0.0000       0.695399        18.9228 
 170   0.0000       0.704509        19.1707 
 171   0.0000       0.712139        19.3783 
 172   0.0000       0.716993        19.5104 
 173   0.0000       0.723431        19.6856 
 174   0.0000       0.730816        19.8865 
 175   0.0000       0.735325        20.0092 
 176   0.0000       0.738275        20.0895 
 177   0.0000       0.741842        20.1866 
 178   0.0000       0.760088        20.6831 
 179   0.0000       0.766886        20.8680 
 180   0.0000       0.770268        20.9601 
 181   0.0000       0.777393        21.1540 
 182   0.0000       0.782860        21.3027 
 183   0.0000       0.788699        21.4616 
 184   0.0000       0.800506        21.7829 
 185   0.0000       0.816405        22.2155 
 186   0.0000       0.824543        22.4370 
 187   0.0000       0.833620        22.6840 
 188   0.0000       0.837056        22.7774 
 189   0.0000       0.842082        22.9142 
 190   0.0000       0.844169        22.9710 
 191   0.0000       0.851529        23.1713 
 192   0.0000       0.862190        23.4614 
 193   0.0000       0.866838        23.5879 
 194   0.0000       0.871426        23.7127 
 195   0.0000       0.880061        23.9477 
 196   0.0000       0.884440        24.0668 
 197   0.0000       0.888558        24.1789 
 198   0.0000       0.900887        24.5144 
 199   0.0000       0.911285        24.7973 
 200   0.0000       0.915065        24.9002 
 201   0.0000       0.922004        25.0890 
 202   0.0000       0.926575        25.2134 
 203   0.0000       0.933600        25.4045 
 204   0.0000       0.941800        25.6277 
 205   0.0000       0.955203        25.9924 
 206   0.0000       0.958286        26.0763 
 207   0.0000       0.969245        26.3745 
 208   0.0000       0.975911        26.5559 
 209   0.0000       0.978591        26.6288 
 210   0.0000       0.984715        26.7954 
 211   0.0000       0.989826        26.9345 
 212   0.0000       0.998320        27.1657 
 213   0.0000       1.004547        27.3351 
 214   0.0000       1.016302        27.6550 
 215   0.0000       1.026823        27.9413 
 216   0.0000       1.028610        27.9899 
 217   0.0000       1.031677        28.0734 
 218   0.0000       1.037508        28.2320 
 219   0.0000       1.047520        28.5045 
 220   0.0000       1.056134        28.7389 
 221   0.0000       1.066911        29.0321 
 222   0.0000       1.069918        29.1139 
 223   0.0000       1.081623        29.4325 
 224   0.0000       1.089234        29.6396 
 225   0.0000       1.092449        29.7271 
 226   0.0000       1.106236        30.1022 
 227   0.0000       1.121113        30.5070 
 228   0.0000       1.121366        30.5139 
 229   0.0000       1.131678        30.7945 
 230   0.0000       1.137075        30.9414 
 231   0.0000       1.138803        30.9884 
 232   0.0000       1.145141        31.1609 
 233   0.0000       1.148965        31.2649 
 234   0.0000       1.160421        31.5767 
 235   0.0000       1.165690        31.7200 
 236   0.0000       1.174256        31.9531 
 237   0.0000       1.179494        32.0957 
 238   0.0000       1.188244        32.3338 
 239   0.0000       1.192836        32.4587 
 240   0.0000       1.201754        32.7014 
 241   0.0000       1.204684        32.7811 
 242   0.0000       1.211667        32.9711 
 243   0.0000       1.212691        32.9990 
 244   0.0000       1.223744        33.2998 
 245   0.0000       1.227746        33.4087 
 246   0.0000       1.235956        33.6321 
 247   0.0000       1.240138        33.7459 
 248   0.0000       1.246584        33.9213 
 249   0.0000       1.254958        34.1492 
 250   0.0000       1.269587        34.5472 
 251   0.0000       1.275384        34.7050 
 252   0.0000       1.280678        34.8490 
 253   0.0000       1.293610        35.2009 
 254   0.0000       1.302583        35.4451 
 255   0.0000       1.312599        35.7176 
 256   0.0000       1.316802        35.8320 
 257   0.0000       1.321144        35.9501 
 258   0.0000       1.334843        36.3229 
 259   0.0000       1.348924        36.7061 
 260   0.0000       1.354718        36.8637 
 261   0.0000       1.356675        36.9170 
 262   0.0000       1.370278        37.2872 
 263   0.0000       1.382827        37.6286 
 264   0.0000       1.383631        37.6505 
 265   0.0000       1.394750        37.9531 
 266   0.0000       1.395930        37.9852 
 267   0.0000       1.403591        38.1937 
 268   0.0000       1.408179        38.3185 
 269   0.0000       1.412408        38.4336 
 270   0.0000       1.420591        38.6562 
 271   0.0000       1.429630        38.9022 
 272   0.0000       1.438341        39.1393 
 273   0.0000       1.451222        39.4897 
 274   0.0000       1.456468        39.6325 
 275   0.0000       1.467929        39.9444 
 276   0.0000       1.472055        40.0567 
 277   0.0000       1.484668        40.3999 
 278   0.0000       1.488722        40.5102 
 279   0.0000       1.493513        40.6406 
 280   0.0000       1.494674        40.6722 
 281   0.0000       1.509982        41.0887 
 282   0.0000       1.515218        41.2312 
 283   0.0000       1.520847        41.3844 
 284   0.0000       1.521848        41.4116 
 285   0.0000       1.529483        41.6194 
 286   0.0000       1.533981        41.7417 
 287   0.0000       1.543566        42.0026 
 288   0.0000       1.548246        42.1299 
 289   0.0000       1.553308        42.2677 
 290   0.0000       1.553759        42.2799 
 291   0.0000       1.564638        42.5760 
 292   0.0000       1.575539        42.8726 
 293   0.0000       1.580977        43.0206 
 294   0.0000       1.588300        43.2198 
 295   0.0000       1.594278        43.3825 
 296   0.0000       1.600578        43.5540 
 297   0.0000       1.613234        43.8983 
 298   0.0000       1.621200        44.1151 
 299   0.0000       1.634110        44.4664 
 300   0.0000       1.645552        44.7777 
 301   0.0000       1.650901        44.9233 
 302   0.0000       1.664297        45.2878 
 303   0.0000       1.668146        45.3926 
 304   0.0000       1.674514        45.5659 
 305   0.0000       1.684372        45.8341 
 306   0.0000       1.698309        46.2133 
 307   0.0000       1.712443        46.5979 
 308   0.0000       1.713846        46.6361 
 309   0.0000       1.720996        46.8307 
 310   0.0000       1.731333        47.1120 
 311   0.0000       1.735006        47.2119 
 312   0.0000       1.746241        47.5176 
 313   0.0000       1.757452        47.8227 
 314   0.0000       1.777333        48.3637 
 315   0.0000       1.778455        48.3942 
 316   0.0000       1.789342        48.6905 
 317   0.0000       1.799210        48.9590 
 318   0.0000       1.809750        49.2458 
 319   0.0000       1.817055        49.4446 
 320   0.0000       1.825699        49.6798 
 321   0.0000       1.836274        49.9676 
 322   0.0000       1.837991        50.0143 
 323   0.0000       1.842543        50.1381 
 324   0.0000       1.856593        50.5205 
 325   0.0000       1.865084        50.7515 
 326   0.0000       1.883465        51.2517 
 327   0.0000       1.896699        51.6118 
 328   0.0000       1.905611        51.8543 
 329   0.0000       1.921142        52.2769 
 330   0.0000       1.929080        52.4929 
 331   0.0000       1.940181        52.7950 
 332   0.0000       1.943053        52.8732 
 333   0.0000       1.950805        53.0841 
 334   0.0000       1.965948        53.4962 
 335   0.0000       1.974564        53.7306 
 336   0.0000       1.976764        53.7905 
 337   0.0000       1.998783        54.3897 
 338   0.0000       2.010428        54.7065 
 339   0.0000       2.021781        55.0155 
 340   0.0000       2.032870        55.3172 
 341   0.0000       2.047938        55.7272 
 342   0.0000       2.057142        55.9777 
 343   0.0000       2.068523        56.2874 
 344   0.0000       2.092061        56.9279 
 345   0.0000       2.116979        57.6059 
 346   0.0000       2.121567        57.7308 
 347   0.0000       2.124989        57.8239 
 348   0.0000       2.152817        58.5811 
 349   0.0000       2.160369        58.7866 
 350   0.0000       2.183896        59.4268 
 351   0.0000       2.202935        59.9449 
 352   0.0000       2.208426        60.0943 
 353   0.0000       2.224386        60.5286 
 354   0.0000       2.231089        60.7110 
 355   0.0000       2.241838        61.0035 
 356   0.0000       2.266068        61.6628 
 357   0.0000       2.285787        62.1994 
 358   0.0000       2.297507        62.5183 
 359   0.0000       2.302142        62.6445 
 360   0.0000       2.313165        62.9444 
 361   0.0000       2.320790        63.1519 
 362   0.0000       2.330907        63.4272 
 363   0.0000       2.347085        63.8674 
 364   0.0000       2.370180        64.4959 
 365   0.0000       2.383460        64.8572 
 366   0.0000       2.388716        65.0003 
 367   0.0000       2.406835        65.4933 
 368   0.0000       2.413441        65.6731 
 369   0.0000       2.417539        65.7846 
 370   0.0000       2.443477        66.4904 
 371   0.0000       2.457868        66.8820 
 372   0.0000       2.465728        67.0959 
 373   0.0000       2.488715        67.7214 
 374   0.0000       2.503207        68.1157 
 375   0.0000       2.504503        68.1510 
 376   0.0000       2.512997        68.3821 
 377   0.0000       2.542884        69.1954 
 378   0.0000       2.545349        69.2625 
 379   0.0000       2.561838        69.7111 
 380   0.0000       2.568508        69.8927 
 381   0.0000       2.583076        70.2891 
 382   0.0000       2.593479        70.5722 
 383   0.0000       2.595800        70.6353 
 384   0.0000       2.614959        71.1566 
 385   0.0000       2.635049        71.7033 
 386   0.0000       2.639225        71.8170 
 387   0.0000       2.649279        72.0906 
 388   0.0000       2.675060        72.7921 
 389   0.0000       2.679755        72.9198 
 390   0.0000       2.683863        73.0316 
 391   0.0000       2.696102        73.3647 
 392   0.0000       2.712436        73.8091 
 393   0.0000       2.718073        73.9625 
 394   0.0000       2.732986        74.3683 
 395   0.0000       2.741036        74.5874 
 396   0.0000       2.755967        74.9937 
 397   0.0000       2.761669        75.1488 
 398   0.0000       2.770100        75.3782 
 399   0.0000       2.778537        75.6078 
 400   0.0000       2.780346        75.6571 
 401   0.0000       2.802544        76.2611 
 402   0.0000       2.812272        76.5258 
 403   0.0000       2.816671        76.6455 
 404   0.0000       2.819516        76.7229 
 405   0.0000       2.828287        76.9616 
 406   0.0000       2.835907        77.1690 
 407   0.0000       2.846512        77.4575 
 408   0.0000       2.857802        77.7647 
 409   0.0000       2.871016        78.1243 
 410   0.0000       2.887385        78.5697 
 411   0.0000       2.891740        78.6883 
 412   0.0000       2.898040        78.8597 
 413   0.0000       2.908105        79.1335 
 414   0.0000       2.914722        79.3136 
 415   0.0000       2.923071        79.5408 
 416   0.0000       2.935126        79.8688 
 417   0.0000       2.945398        80.1484 
 418   0.0000       2.949005        80.2465 
 419   0.0000       2.961308        80.5813 
 420   0.0000       2.973261        80.9066 
 421   0.0000       2.980636        81.1072 
 422   0.0000       2.982260        81.1514 
 423   0.0000       2.994394        81.4816 
 424   0.0000       3.002216        81.6944 
 425   0.0000       3.016650        82.0872 
 426   0.0000       3.019217        82.1571 
 427   0.0000       3.036404        82.6247 
 428   0.0000       3.038542        82.6829 
 429   0.0000       3.043927        82.8295 
 430   0.0000       3.049687        82.9862 
 431   0.0000       3.059898        83.2641 
 432   0.0000       3.066907        83.4548 
 433   0.0000       3.073424        83.6321 
 434   0.0000       3.081502        83.8519 
 435   0.0000       3.086484        83.9875 
 436   0.0000       3.092872        84.1613 
 437   0.0000       3.097143        84.2776 
 438   0.0000       3.099390        84.3387 
 439   0.0000       3.116835        84.8134 
 440   0.0000       3.119091        84.8748 
 441   0.0000       3.122382        84.9643 
 442   0.0000       3.133129        85.2568 
 443   0.0000       3.136365        85.3448 
 444   0.0000       3.146030        85.6078 
 445   0.0000       3.159322        85.9695 
 446   0.0000       3.162777        86.0635 
 447   0.0000       3.172932        86.3399 
 448   0.0000       3.176648        86.4410 
 449   0.0000       3.185312        86.6768 
 450   0.0000       3.201134        87.1073 
 451   0.0000       3.203789        87.1795 
 452   0.0000       3.218790        87.5877 
 453   0.0000       3.227328        87.8201 
 454   0.0000       3.231220        87.9260 
 455   0.0000       3.238611        88.1271 
 456   0.0000       3.244790        88.2952 
 457   0.0000       3.251476        88.4772 
 458   0.0000       3.256250        88.6071 
 459   0.0000       3.268363        88.9367 
 460   0.0000       3.273923        89.0880 
 461   0.0000       3.286249        89.4234 
 462   0.0000       3.290280        89.5331 
 463   0.0000       3.295763        89.6823 
 464   0.0000       3.300947        89.8233 
 465   0.0000       3.310556        90.0848 
 466   0.0000       3.320645        90.3594 
 467   0.0000       3.324883        90.4747 
 468   0.0000       3.330164        90.6184 
 469   0.0000       3.334678        90.7412 
 470   0.0000       3.340684        90.9046 
 471   0.0000       3.350999        91.1853 
 472   0.0000       3.352513        91.2265 
 473   0.0000       3.361916        91.4824 
 474   0.0000       3.365619        91.5831 
 475   0.0000       3.369492        91.6885 
 476   0.0000       3.374697        91.8302 
 477   0.0000       3.378367        91.9300 
 478   0.0000       3.385532        92.1250 
 479   0.0000       3.398655        92.4821 
 480   0.0000       3.407436        92.7211 
 481   0.0000       3.409398        92.7744 
 482   0.0000       3.416012        92.9544 
 483   0.0000       3.417778        93.0025 
 484   0.0000       3.424276        93.1793 
 485   0.0000       3.432797        93.4112 
 486   0.0000       3.436035        93.4993 
 487   0.0000       3.437741        93.5457 
 488   0.0000       3.440113        93.6102 
 489   0.0000       3.446598        93.7867 
 490   0.0000       3.453277        93.9684 
 491   0.0000       3.456157        94.0468 
 492   0.0000       3.462860        94.2292 
 493   0.0000       3.473602        94.5215 
 494   0.0000       3.475757        94.5801 
 495   0.0000       3.482067        94.7519 
 496   0.0000       3.494641        95.0940 
 497   0.0000       3.498467        95.1981 
 498   0.0000       3.500881        95.2638 
 499   0.0000       3.521273        95.8187 
 500   0.0000       3.523866        95.8893 
 501   0.0000       3.529915        96.0539 
 502   0.0000       3.530257        96.0632 
 503   0.0000       3.545118        96.4676 
 504   0.0000       3.548370        96.5560 
 505   0.0000       3.562906        96.9516 
 506   0.0000       3.566617        97.0526 
 507   0.0000       3.578994        97.3894 
 508   0.0000       3.588790        97.6559 
 509   0.0000       3.590207        97.6945 
 510   0.0000       3.592287        97.7511 
 511   0.0000       3.596669        97.8703 
 512   0.0000       3.607113        98.1545 
 513   0.0000       3.615887        98.3933 
 514   0.0000       3.623447        98.5990 
 515   0.0000       3.626426        98.6801 
 516   0.0000       3.630184        98.7823 
 517   0.0000       3.634815        98.9083 
 518   0.0000       3.642865        99.1274 
 519   0.0000       3.650057        99.3231 
 520   0.0000       3.655718        99.4771 
 521   0.0000       3.659724        99.5861 
 522   0.0000       3.665195        99.7350 
 523   0.0000       3.670781        99.8870 
 524   0.0000       3.674284        99.9824 
 525   0.0000       3.682484       100.2055 
 526   0.0000       3.688497       100.3691 
 527   0.0000       3.695033       100.5469 
 528   0.0000       3.702176       100.7413 
 529   0.0000       3.709392       100.9377 
 530   0.0000       3.716165       101.1220 
 531   0.0000       3.723362       101.3178 
 532   0.0000       3.736558       101.6769 
 533   0.0000       3.739273       101.7508 
 534   0.0000       3.745371       101.9167 
 535   0.0000       3.754010       102.1518 
 536   0.0000       3.764016       102.4241 
 537   0.0000       3.767429       102.5169 
 538   0.0000       3.769891       102.5839 
 539   0.0000       3.773857       102.6919 
 540   0.0000       3.787526       103.0638 
 541   0.0000       3.793459       103.2253 
 542   0.0000       3.805627       103.5564 
 543   0.0000       3.809175       103.6529 
 544   0.0000       3.814828       103.8067 
 545   0.0000       3.819106       103.9232 
 546   0.0000       3.831936       104.2723 
 547   0.0000       3.834336       104.3376 
 548   0.0000       3.846457       104.6674 
 549   0.0000       3.854639       104.8901 
 550   0.0000       3.858353       104.9911 
 551   0.0000       3.867153       105.2306 
 552   0.0000       3.869852       105.3040 
 553   0.0000       3.871855       105.3585 
 554   0.0000       3.894764       105.9819 
 555   0.0000       3.908859       106.3654 
 556   0.0000       3.913548       106.4930 
 557   0.0000       3.921403       106.7068 
 558   0.0000       3.924751       106.7979 
 559   0.0000       3.933968       107.0487 
 560   0.0000       3.943414       107.3057 
 561   0.0000       3.949996       107.4849 
 562   0.0000       3.968705       107.9940 
 563   0.0000       3.977543       108.2345 
 564   0.0000       3.986025       108.4653 
 565   0.0000       3.992814       108.6500 
 566   0.0000       3.994046       108.6835 
 567   0.0000       4.002768       108.9208 
 568   0.0000       4.016433       109.2927 
 569   0.0000       4.021056       109.4185 
 570   0.0000       4.029485       109.6479 
 571   0.0000       4.047344       110.1338 
 572   0.0000       4.049822       110.2012 
 573   0.0000       4.057192       110.4018 
 574   0.0000       4.064246       110.5937 
 575   0.0000       4.070795       110.7720 
 576   0.0000       4.087365       111.2228 
 577   0.0000       4.096238       111.4643 
 578   0.0000       4.104318       111.6842 
 579   0.0000       4.112146       111.8972 
 580   0.0000       4.117574       112.0449 
 581   0.0000       4.126223       112.2802 
 582   0.0000       4.134310       112.5003 
 583   0.0000       4.140633       112.6724 
 584   0.0000       4.148962       112.8990 
 585   0.0000       4.153334       113.0180 
 586   0.0000       4.158790       113.1664 
 587   0.0000       4.169859       113.4676 
 588   0.0000       4.180490       113.7569 
 589   0.0000       4.183138       113.8290 
 590   0.0000       4.187220       113.9401 
 591   0.0000       4.189874       114.0123 
 592   0.0000       4.195047       114.1530 
 593   0.0000       4.205355       114.4335 
 594   0.0000       4.211453       114.5995 
 595   0.0000       4.213856       114.6649 
 596   0.0000       4.221223       114.8653 
 597   0.0000       4.235148       115.2442 
 598   0.0000       4.238749       115.3422 
 599   0.0000       4.245664       115.5304 
 600   0.0000       4.255959       115.8105 
 601   0.0000       4.268125       116.1416 
 602   0.0000       4.273991       116.3012 
 603   0.0000       4.281126       116.4954 
 604   0.0000       4.299064       116.9835 
 605   0.0000       4.306669       117.1904 
 606   0.0000       4.311396       117.3191 
 607   0.0000       4.317610       117.4881 
 608   0.0000       4.320917       117.5781 
 609   0.0000       4.332298       117.8878 
 610   0.0000       4.336397       117.9994 
 611   0.0000       4.343545       118.1939 
 612   0.0000       4.350747       118.3898 
 613   0.0000       4.356401       118.5437 
 614   0.0000       4.368708       118.8786 
 615   0.0000       4.371665       118.9591 
 616   0.0000       4.379409       119.1698 
 617   0.0000       4.391049       119.4865 
 618   0.0000       4.398848       119.6987 
 619   0.0000       4.408515       119.9618 
 620   0.0000       4.411525       120.0437 
 621   0.0000       4.421011       120.3018 
 622   0.0000       4.427659       120.4827 
 623   0.0000       4.439020       120.7919 
 624   0.0000       4.443607       120.9167 
 625   0.0000       4.451741       121.1380 
 626   0.0000       4.470784       121.6562 
 627   0.0000       4.471079       121.6643 
 628   0.0000       4.492759       122.2542 
 629   0.0000       4.498314       122.4053 
 630   0.0000       4.504128       122.5635 
 631   0.0000       4.505164       122.5918 
 632   0.0000       4.516406       122.8977 
 633   0.0000       4.528211       123.2189 
 634   0.0000       4.546378       123.7132 
 635   0.0000       4.549304       123.7929 
 636   0.0000       4.552312       123.8747 
 637   0.0000       4.561007       124.1113 
 638   0.0000       4.573358       124.4474 
 639   0.0000       4.586699       124.8104 
 640   0.0000       4.591088       124.9298 
 641   0.0000       4.598599       125.1342 
 642   0.0000       4.605522       125.3226 
 643   0.0000       4.617211       125.6407 
 644   0.0000       4.623599       125.8145 
 645   0.0000       4.627309       125.9155 
 646   0.0000       4.639825       126.2561 
 647   0.0000       4.644544       126.3845 
 648   0.0000       4.652001       126.5874 
 649   0.0000       4.652504       126.6011 
 650   0.0000       4.658125       126.7540 
 651   0.0000       4.666849       126.9914 
 652   0.0000       4.673179       127.1637 
 653   0.0000       4.675939       127.2388 
 654   0.0000       4.693532       127.7175 
 655   0.0000       4.710687       128.1843 
 656   0.0000       4.715388       128.3122 
 657   0.0000       4.721920       128.4900 
 658   0.0000       4.724434       128.5584 
 659   0.0000       4.750223       129.2601 
 660   0.0000       4.760402       129.5371 
 661   0.0000       4.764679       129.6535 
 662   0.0000       4.783817       130.1743 
 663   0.0000       4.795394       130.4893 
 664   0.0000       4.813334       130.9775 
 665   0.0000       4.826805       131.3440 
 666   0.0000       4.832887       131.5095 
 667   0.0000       4.848575       131.9364 
 668   0.0000       4.865124       132.3867 
 669   0.0000       4.890801       133.0854 
 670   0.0000       4.903461       133.4300 
 671   0.0000       4.924804       134.0107 
 672   0.0000       4.936565       134.3308 
 673   0.0000       4.962586       135.0388 
 674   0.0000       4.971867       135.2914 
 675   0.0000       5.000405       136.0679 
 676   0.0000       5.021098       136.6310 
 677   0.0000       5.031904       136.9251 
 678   0.0000       5.043719       137.2466 
 679   0.0000       5.055243       137.5602 
 680   0.0000       5.056500       137.5943 
 681   0.0000       5.073280       138.0510 
 682   0.0000       5.093457       138.6000 
 683   0.0000       5.108315       139.0043 
 684   0.0000       5.114268       139.1663 
 685   0.0000       5.121897       139.3739 
 686   0.0000       5.129155       139.5714 
 687   0.0000       5.143028       139.9489 
 688   0.0000       5.151305       140.1741 
 689   0.0000       5.154982       140.2742 
 690   0.0000       5.167760       140.6219 
 691   0.0000       5.182694       141.0283 
 692   0.0000       5.187544       141.1603 
 693   0.0000       5.199206       141.4776 
 694   0.0000       5.207353       141.6993 
 695   0.0000       5.213340       141.8622 
 696   0.0000       5.218246       141.9957 
 697   0.0000       5.229181       142.2933 
 698   0.0000       5.235885       142.4757 
 699   0.0000       5.258476       143.0904 
 700   0.0000       5.274352       143.5224 
 701   0.0000       5.285522       143.8264 
 702   0.0000       5.300646       144.2379 
 703   0.0000       5.313753       144.5946 
 704   0.0000       5.319979       144.7640 
 705   0.0000       5.331523       145.0781 
 706   0.0000       5.352367       145.6453 
 707   0.0000       5.354475       145.7027 
 708   0.0000       5.369590       146.1140 
 709   0.0000       5.385084       146.5356 
 710   0.0000       5.396823       146.8550 
 711   0.0000       5.397524       146.8741 
 712   0.0000       5.426247       147.6557 
 713   0.0000       5.452493       148.3699 
 714   0.0000       5.469978       148.8457 
 715   0.0000       5.483280       149.2076 
 716   0.0000       5.501176       149.6946 
 717   0.0000       5.518308       150.1608 
 718   0.0000       5.527423       150.4088 
 719   0.0000       5.535669       150.6332 
 720   0.0000       5.540264       150.7583 
 721   0.0000       5.553448       151.1170 
 722   0.0000       5.562845       151.3727 
 723   0.0000       5.579702       151.8314 
 724   0.0000       5.588518       152.0713 
 725   0.0000       5.592594       152.1822 
 726   0.0000       5.609792       152.6502 
 727   0.0000       5.616328       152.8281 
 728   0.0000       5.631537       153.2419 
 729   0.0000       5.635697       153.3551 
 730   0.0000       5.653808       153.8479 
 731   0.0000       5.674572       154.4130 
 732   0.0000       5.679753       154.5539 
 733   0.0000       5.703457       155.1989 
 734   0.0000       5.715057       155.5146 
 735   0.0000       5.717482       155.5806 
 736   0.0000       5.729038       155.8950 
 737   0.0000       5.739089       156.1686 
 738   0.0000       5.754188       156.5794 
 739   0.0000       5.758126       156.6866 
 740   0.0000       5.769412       156.9937 
 741   0.0000       5.773800       157.1131 
 742   0.0000       5.800866       157.8496 
 743   0.0000       5.807867       158.0401 
 744   0.0000       5.813061       158.1814 
 745   0.0000       5.854559       159.3107 
 746   0.0000       5.875797       159.8886 
 747   0.0000       5.886428       160.1778 
 748   0.0000       5.902508       160.6154 
 749   0.0000       5.922507       161.1596 
 750   0.0000       5.945708       161.7909 
 751   0.0000       5.973674       162.5519 
 752   0.0000       5.989455       162.9814 
 753   0.0000       6.005942       163.4300 
 754   0.0000       6.018242       163.7647 
 755   0.0000       6.023139       163.8979 
 756   0.0000       6.057942       164.8450 
 757   0.0000       6.064461       165.0224 
 758   0.0000       6.070054       165.1746 
 759   0.0000       6.097150       165.9119 
 760   0.0000       6.117816       166.4742 
 761   0.0000       6.161422       167.6608 
 762   0.0000       6.218050       169.2017 
 763   0.0000       6.228682       169.4910 
 764   0.0000       6.278103       170.8359 
 765   0.0000       6.292535       171.2286 
 766   0.0000       6.293954       171.2672 
 767   0.0000       6.320140       171.9798 
 768   0.0000       6.347943       172.7363 
 769   0.0000       6.366375       173.2379 
 770   0.0000       6.379421       173.5929 
 771   0.0000       6.394984       174.0164 
 772   0.0000       6.405939       174.3145 
 773   0.0000       6.449267       175.4935 
 774   0.0000       6.460643       175.8030 
 775   0.0000       6.474553       176.1815 
 776   0.0000       6.497908       176.8171 
 777   0.0000       6.553939       178.3417 
 778   0.0000       6.577404       178.9803 
 779   0.0000       6.598715       179.5602 
 780   0.0000       6.652258       181.0172 
 781   0.0000       6.669452       181.4850 
 782   0.0000       6.711372       182.6257 
 783   0.0000       6.764452       184.0701 
 784   0.0000       6.793778       184.8681 
 785   0.0000       6.886516       187.3916 
 786   0.0000       6.907220       187.9550 
 787   0.0000       6.921101       188.3327 
 788   0.0000       6.948720       189.0843 
 789   0.0000       7.025884       191.1840 
 790   0.0000       7.054161       191.9535 
 791   0.0000       7.060080       192.1145 
 792   0.0000       7.081110       192.6868 
 793   0.0000       7.134636       194.1433 
 794   0.0000       7.206184       196.0902 
 795   0.0000       7.258360       197.5100 
 796   0.0000       7.282041       198.1544 
 797   0.0000       7.284391       198.2184 
 798   0.0000       7.349049       199.9778 
 799   0.0000       7.382737       200.8945 
 800   0.0000       7.418100       201.8568 
 801   0.0000       7.557956       205.6624 
 802   0.0000       7.577134       206.1843 
 803   0.0000       7.589345       206.5166 
 804   0.0000       7.681562       209.0259 
 805   0.0000       7.811591       212.5642 
 806   0.0000       7.820400       212.8039 
 807   0.0000       7.923353       215.6054 
 808   0.0000       7.933907       215.8926 
 809   0.0000       9.392625       255.5863 
 810   0.0000       9.627639       261.9814 
 811   0.0000      10.744248       292.3659 
 812   0.0000      11.315737       307.9168 
 813   0.0000      11.842296       322.2453 
 814   0.0000      12.602943       342.9435 
 815   0.0000      12.914949       351.4336 
 816   0.0000      13.060124       355.3840 
 817   0.0000      13.089756       356.1904 
 818   0.0000      13.213155       359.5482 
 819   0.0000      13.373347       363.9073 
 820   0.0000      13.555234       368.8567 
 821   0.0000      13.732901       373.6912 
 822   0.0000      13.956707       379.7813 
 823   0.0000      14.025462       381.6522 
 824   0.0000      14.094809       383.5393 
 825   0.0000      14.528255       395.3339 
 826   0.0000      14.781666       402.2296 
 827   0.0000      16.002741       435.4567 

                    ********************************
                    * MULLIKEN POPULATION ANALYSIS *
                    ********************************

-----------------------
MULLIKEN ATOMIC CHARGES
-----------------------
   0 C :   -0.296867
   1 C :    0.039084
   2 O :   -0.371084
   3 C :    0.476723
   4 O :   -0.423248
   5 C :   -0.244524
   6 C :    0.148848
   7 C :   -0.269245
   8 N :   -0.123010
   9 C :    0.215772
  10 S :   -0.439152
  11 N :   -0.204567
  12 C :    0.044605
  13 C :    0.090233
  14 C :   -0.210723
  15 C :   -0.121779
  16 C :   -0.272540
  17 C :    0.306276
  18 O :   -0.359381
  19 C :   -0.258776
  20 H :    0.098331
  21 H :    0.110286
  22 H :    0.104702
  23 H :    0.102400
  24 H :    0.103923
  25 H :    0.129247
  26 H :    0.134221
  27 H :    0.094637
  28 H :    0.198501
  29 H :    0.192728
  30 H :    0.149948
  31 H :    0.149486
  32 H :    0.163531
  33 H :    0.132275
  34 H :    0.241570
  35 H :    0.167570
Sum of atomic charges:    0.0000000

--------------------------------
MULLIKEN REDUCED ORBITAL CHARGES
--------------------------------
  0 C s       :     3.251151  s :     3.251151
      pz      :     0.938735  p :     2.965672
      px      :     1.020053
      py      :     1.006884
      dz2     :     0.011788  d :     0.075485
      dxz     :     0.017457
      dyz     :     0.022536
      dx2y2   :     0.003494
      dxy     :     0.020211
      f0      :     0.000411  f :     0.004559
      f+1     :     0.000623
      f-1     :     0.001081
      f+2     :     0.000326
      f-2     :     0.001315
      f+3     :     0.000235
      f-3     :     0.000568
  1 C s       :     3.173411  s :     3.173411
      pz      :     0.971406  p :     2.624233
      px      :     0.786404
      py      :     0.866423
      dz2     :     0.020719  d :     0.151727
      dxz     :     0.030373
      dyz     :     0.037078
      dx2y2   :     0.023035
      dxy     :     0.040521
      f0      :     0.001561  f :     0.011545
      f+1     :     0.001378
      f-1     :     0.001424
      f+2     :     0.000592
      f-2     :     0.002654
      f+3     :     0.001925
      f-3     :     0.002011
  2 O s       :     3.720134  s :     3.720134
      pz      :     1.812101  p :     4.615927
      px      :     1.567051
      py      :     1.236775
      dz2     :     0.003680  d :     0.032766
      dxz     :     0.003161
      dyz     :     0.006363
      dx2y2   :     0.011156
      dxy     :     0.008405
      f0      :     0.000271  f :     0.002258
      f+1     :     0.000177
      f-1     :     0.000469
      f+2     :     0.000237
      f-2     :     0.000185
[...]
 15 C s       :     2.705527  s :     2.705527
      pz      :     0.891005  p :     2.790845
      px      :     0.955179
      py      :     0.944660
      dz2     :     0.077413  d :     0.417505
      dxz     :     0.082579
      dyz     :     0.057448
      dx2y2   :     0.105368
      dxy     :     0.094697
      f0      :     0.004392  f :     0.041172
      f+1     :     0.005284
      f-1     :     0.004401
      f+2     :     0.007581
      f-2     :     0.005350
      f+3     :     0.008191
      f-3     :     0.005973
 16 C s       :     2.701303  s :     2.701303
      pz      :     0.932097  p :     2.869324
      px      :     0.971095
      py      :     0.966133
      dz2     :     0.039171  d :     0.390097
      dxz     :     0.072393
      dyz     :     0.072277
      dx2y2   :     0.098351
      dxy     :     0.107906
      f0      :     0.003279  f :     0.040335
      f+1     :     0.004671
      f-1     :     0.004733
      f+2     :     0.006059
      f-2     :     0.004706
      f+3     :     0.008955
      f-3     :     0.007932
 17 C s       :     2.701403  s :     2.701403
      pz      :     0.876952  p :     2.679792
      px      :     0.822596
      py      :     0.980244
      dz2     :     0.118909  d :     0.709665
      dxz     :     0.122792
      dyz     :     0.116310
      dx2y2   :     0.174644
      dxy     :     0.177011
      f0      :     0.008193  f :     0.099341
      f+1     :     0.015435
      f-1     :     0.009015
      f+2     :     0.015868
      f-2     :     0.011984
      f+3     :     0.020158
      f-3     :     0.018686
 18 O s       :     3.177115  s :     3.177115
      pz      :     1.448860  p :     4.346254
      px      :     1.367918
      py      :     1.529476
      dz2     :     0.007909  d :     0.075442
      dxz     :     0.017056
      dyz     :     0.015160
      dx2y2   :     0.016659
      dxy     :     0.018658
      f0      :     0.000508  f :     0.005061
      f+1     :     0.000717
      f-1     :     0.000518
      f+2     :     0.000489
      f-2     :     0.000896
      f+3     :     0.000869
      f-3     :     0.001064
 19 C s       :     2.694649  s :     2.694649
      pz      :     0.929754  p :     2.847811
      px      :     0.963332
      py      :     0.954725
      dz2     :     0.065449  d :     0.387455
      dxz     :     0.078195
      dyz     :     0.056393
      dx2y2   :     0.093310
      dxy     :     0.094109
      f0      :     0.004128  f :     0.040730
      f+1     :     0.005384
      f-1     :     0.004248
      f+2     :     0.007545
      f-2     :     0.005835
      f+3     :     0.007781
      f-3     :     0.005808
 20 H s       :     0.848302  s :     0.848302
      pz      :     0.047646  p :     0.153585
      px      :     0.058975
      py      :     0.046964
      dz2     :     0.004593  d :     0.027777
      dxz     :     0.006051
      dyz     :     0.003927
      dx2y2   :     0.006484
      dxy     :     0.006723
 21 H s       :     0.847607  s :     0.847607
      pz      :     0.039631  p :     0.151563
      px      :     0.057557
      py      :     0.054376
      dz2     :     0.002479  d :     0.027463
      dxz     :     0.004857
      dyz     :     0.004439
      dx2y2   :     0.008833
      dxy     :     0.006855
 22 H s       :     0.844091  s :     0.844091
      pz      :     0.055272  p :     0.154938
      px      :     0.043119
      py      :     0.056547
      dz2     :     0.006762  d :     0.027814
      dxz     :     0.004436
      dyz     :     0.006428
      dx2y2   :     0.004517
      dxy     :     0.005671
 23 H s       :     0.856789  s :     0.856789
      pz      :     0.057788  p :     0.145246
      px      :     0.031848
      py      :     0.055610
      dz2     :     0.007442  d :     0.026942
      dxz     :     0.003116
      dyz     :     0.007281
      dx2y2   :     0.003957
      dxy     :     0.005146
 24 H s       :     0.851444  s :     0.851444
      pz      :     0.048865  p :     0.149465
      px      :     0.057801
      py      :     0.042799
      dz2     :     0.004750  d :     0.027364
      dxz     :     0.006671
      dyz     :     0.003657
      dx2y2   :     0.005696
      dxy     :     0.006590
 25 H s       :     0.826964  s :     0.826964
      pz      :     0.039575  p :     0.150790
      px      :     0.068632
      py      :     0.042583
      dz2     :     0.002349  d :     0.027756
      dxz     :     0.008287
      dyz     :     0.001375
      dx2y2   :     0.008361
      dxy     :     0.007385
 26 H s       :     0.824075  s :     0.824075
      pz      :     0.068679  p :     0.151348
      px      :     0.045072
      py      :     0.037597
      dz2     :     0.009146  d :     0.027762
      dxz     :     0.007640
      dyz     :     0.007407
      dx2y2   :     0.002011
      dxy     :     0.001558
 27 H s       :     0.845319  s :     0.845319
      pz      :     0.039896  p :     0.150354
      px      :     0.040413
      py      :     0.070046
      dz2     :     0.003375  d :     0.027707
      dxz     :     0.000901
      dyz     :     0.008020
      dx2y2   :     0.006567
      dxy     :     0.008844
 28 H s       :     0.742282  s :     0.742282
      pz      :     0.060572  p :     0.253460
      px      :     0.072256
      py      :     0.120631
      dz2     :     0.005585  d :     0.061803
      dxz     :     0.001480
      dyz     :     0.018109
      dx2y2   :     0.016910
      dxy     :     0.019719
 29 H s       :     0.750042  s :     0.750042
      pz      :     0.105876  p :     0.254547
      px      :     0.100889
      py      :     0.047781
      dz2     :     0.017936  d :     0.061418
      dxz     :     0.013997
      dyz     :     0.009372
      dx2y2   :     0.011368
      dxy     :     0.008745
 30 H s       :     0.831490  s :     0.831490
      pz      :     0.043758  p :     0.147658
      px      :     0.053208
      py      :     0.050693
      dz2     :     0.003982  d :     0.028383
      dxz     :     0.005990
      dyz     :     0.005104
      dx2y2   :     0.006073
      dxy     :     0.007235
 31 H s       :     0.845363  s :     0.845363
      pz      :     0.046775  p :     0.158106
      px      :     0.070284
      py      :     0.041047
      dz2     :     0.003811  d :     0.027581
      dxz     :     0.006997
      dyz     :     0.002237
      dx2y2   :     0.007258
      dxy     :     0.007278
 32 H s       :     0.842842  s :     0.842842
      pz      :     0.041090  p :     0.151345
      px      :     0.039405
      py      :     0.070851
      dz2     :     0.003302  d :     0.026459
      dxz     :     0.001582
      dyz     :     0.006996
      dx2y2   :     0.007127
      dxy     :     0.007453
 33 H s       :     0.848236  s :     0.848236
      pz      :     0.061162  p :     0.159040
      px      :     0.048901
      py      :     0.048977
      dz2     :     0.006636  d :     0.027761
      dxz     :     0.005589
      dyz     :     0.005694
      dx2y2   :     0.005119
      dxy     :     0.004722
 34 H s       :     0.706023  s :     0.706023
      pz      :     0.129215  p :     0.347529
      px      :     0.082664
      py      :     0.135651
      dz2     :     0.027953  d :     0.099524
      dxz     :     0.014966
      dyz     :     0.023408
      dx2y2   :     0.017091
      dxy     :     0.016106
 35 H s       :     0.838819  s :     0.838819
      pz      :     0.044253  p :     0.159284
      px      :     0.041154
      py      :     0.073877
      dz2     :     0.003484  d :     0.028185
      dxz     :     0.001646
      dyz     :     0.007551
      dx2y2   :     0.007756
      dxy     :     0.007748


                      *****************************
                      * MAYER POPULATION ANALYSIS *
                      *****************************

  NA   - Mulliken gross atomic population
  ZA   - Total nuclear charge
  QA   - Mulliken gross atomic charge
  VA   - Mayer's total valence
  BVA  - Mayer's bonded valence
  FA   - Mayer's free valence

  ATOM       NA         ZA         QA         VA         BVA        FA
  0 C      6.2969     6.0000    -0.2969     3.8752     3.8752     0.0000
  1 C      5.9609     6.0000     0.0391     3.8517     3.8517     0.0000
  2 O      8.3711     8.0000    -0.3711     2.0365     2.0365    -0.0000
  3 C      5.5233     6.0000     0.4767     4.2323     4.2323    -0.0000
  4 O      8.4232     8.0000    -0.4232     2.0873     2.0873     0.0000
  5 C      6.2445     6.0000    -0.2445     3.6640     3.6640    -0.0000
  6 C      5.8512     6.0000     0.1488     3.8737     3.8737    -0.0000
  7 C      6.2692     6.0000    -0.2692     3.9059     3.9059     0.0000
  8 N      7.1230     7.0000    -0.1230     3.3043     3.3043    -0.0000
  9 C      5.7842     6.0000     0.2158     4.1451     4.1451     0.0000
 10 S     16.4392    16.0000    -0.4392     1.7571     1.7571     0.0000
 11 N      7.2046     7.0000    -0.2046     3.2356     3.2356     0.0000
 12 C      5.9554     6.0000     0.0446     3.9400     3.9400     0.0000
 13 C      5.9098     6.0000     0.0902     3.6958     3.6958     0.0000
 14 C      6.2107     6.0000    -0.2107     3.8397     3.8397     0.0000
 15 C      6.1218     6.0000    -0.1218     3.7919     3.7919     0.0000
 16 C      6.2725     6.0000    -0.2725     3.7912     3.7912    -0.0000
 17 C      5.6937     6.0000     0.3063     3.8844     3.8844    -0.0000
 18 O      8.3594     8.0000    -0.3594     2.1177     2.1177     0.0000
 19 C      6.2588     6.0000    -0.2588     3.8315     3.8315     0.0000
 20 H      0.9017     1.0000     0.0983     0.9867     0.9867     0.0000
 21 H      0.8897     1.0000     0.1103     0.9823     0.9823     0.0000
 22 H      0.8953     1.0000     0.1047     0.9815     0.9815     0.0000
 23 H      0.8976     1.0000     0.1024     0.9792     0.9792     0.0000
 24 H      0.8961     1.0000     0.1039     0.9884     0.9884     0.0000
 25 H      0.8708     1.0000     0.1292     0.9806     0.9806     0.0000
 26 H      0.8658     1.0000     0.1342     0.9804     0.9804     0.0000
 27 H      0.9054     1.0000     0.0946     0.9858     0.9858     0.0000
 28 H      0.8015     1.0000     0.1985     1.0221     1.0221     0.0000
 29 H      0.8073     1.0000     0.1927     1.0203     1.0203     0.0000
 30 H      0.8501     1.0000     0.1499     0.9948     0.9948    -0.0000
 31 H      0.8505     1.0000     0.1495     0.9850     0.9850    -0.0000
 32 H      0.8365     1.0000     0.1635     0.9763     0.9763     0.0000
 33 H      0.8677     1.0000     0.1323     0.9908     0.9908     0.0000
 34 H      0.7584     1.0000     0.2416     1.0102     1.0102     0.0000
 35 H      0.8324     1.0000     0.1676     0.9863     0.9863     0.0000

  Mayer bond orders larger than 0.100000
B(  0-C ,  1-C ) :   0.9725 B(  0-C , 20-H ) :   0.9734 B(  0-C , 21-H ) :   0.9782 
B(  0-C , 22-H ) :   0.9728 B(  1-C ,  2-O ) :   0.8855 B(  1-C , 23-H ) :   0.9877 
B(  1-C , 24-H ) :   0.9725 B(  2-O ,  3-C ) :   1.1372 B(  3-C ,  4-O ) :   1.9865 
B(  3-C ,  5-C ) :   1.0662 B(  5-C ,  6-C ) :   1.6500 B(  5-C , 12-C ) :   0.9761 
B(  6-C ,  7-C ) :   0.9705 B(  6-C ,  8-N ) :   1.1570 B(  7-C , 25-H ) :   0.9622 
B(  7-C , 26-H ) :   0.9578 B(  7-C , 27-H ) :   0.9898 B(  8-N ,  9-C ) :   1.1803 
B(  8-N , 28-H ) :   0.9480 B(  9-C , 10-S ) :   1.6074 B(  9-C , 11-N ) :   1.3057 
B( 11-N , 12-C ) :   0.9624 B( 11-N , 29-H ) :   0.9537 B( 12-C , 13-C ) :   0.9470 
B( 12-C , 30-H ) :   1.0021 B( 13-C , 14-C ) :   1.3438 B( 13-C , 19-C ) :   1.3720 
B( 14-C , 15-C ) :   1.3828 B( 14-C , 31-H ) :   0.9757 B( 15-C , 16-C ) :   1.3654 
B( 15-C , 32-H ) :   0.9699 B( 16-C , 17-C ) :   1.3300 B( 16-C , 33-H ) :   0.9843 
B( 17-C , 18-O ) :   1.1122 B( 17-C , 19-C ) :   1.3733 B( 18-O , 34-H ) :   0.9793 
B( 19-C , 35-H ) :   0.9574 

-------
TIMINGS
-------

Total SCF time: 0 days 1 hours 33 min 53 sec 

Total time                  ....    5633.034 sec
Sum of individual times     ....    5623.971 sec  ( 99.8%)

Fock matrix formation       ....    5596.802 sec  ( 99.4%)
Diagonalization             ....       1.654 sec  (  0.0%)
Density matrix formation    ....       0.236 sec  (  0.0%)
Population analysis         ....       0.484 sec  (  0.0%)
Initial guess               ....       5.651 sec  (  0.1%)
Orbital Transformation      ....       0.000 sec  (  0.0%)
Orbital Orthonormalization  ....       0.000 sec  (  0.0%)
DIIS solution               ....      13.466 sec  (  0.2%)
SOSCF solution              ....       4.287 sec  (  0.1%)

Maximum memory used throughout the entire SCF-calculation: 749.4 MB

------------------------------------------------------------------------------
                                ORCA  MP2 
------------------------------------------------------------------------------

Freezing NCore=48 chemical core electrons

-------------
RI-MP2 ENERGY
-------------
Dimension of the basis                    ...  828
Memory devoted to MP2                     ...  256 MB   
Data format for buffers                   ... DOUBLE
Compression type for matrix containers    ... UNCOMPRESSED
Overall scaling of the MP2 energy         ...   1.000e+00
Calculating two index integrals           ... done (    0.043 sec)
Cholesky decomposition of V**-1           ... done (    0.599 sec)

-----------------
RI-TRANSFORMATION (AUX index driven)
-----------------

Dimension of the orbital-basis         ... 828
Dimension of the aux-basis             ... 2141
Transformation of internal/external MOs...   24-  76 to   77- 827
Number Format for Storage              ... Double (8 Byte)
Integral mode                          ... Direct

First Phase: integral generation and transformation of MO indices
  Aux angular momentum 0               ... done (    5.322 sec)
  Aux angular momentum 1               ... done (    8.490 sec)
  Aux angular momentum 2               ... done (    8.510 sec)
  Aux angular momentum 3               ... done (    6.961 sec)
  Aux angular momentum 4               ... done (    2.626 sec)
Closing buffer VIA ( 0.63 GB; CompressionRatio= 1.00)
  Phase 1 completed in    32.472 sec
Second Phase: sorting and transformation of aux index

IA-Transformation
Memory available                       ... 157 MB 
Max. # MO pairs treated in a batch     ... 11    
# of internal orbitals                 ... 53
# batches for internal orbitals        ... 5
Closing buffer IAV ( 0.63 GB; CompressionRatio= 1.00)
(ia|v) transformation done in    48.306 sec

  Phase 2 completed in    48.325 sec
RI-Integral transformation completed in    80.988 sec
Opening buffers                              ... done

Starting loop over batches of integrals:

Operator 0  - window                       ... ( 24- 76)x( 77-827)
Operator 0  - Memory available             ...   256 MB
Operator 0  - Memory needed per MO         ...  12.3 MB
Operator 0  - Number of orbitals per batch ... 13
Operator 0  - Number of batches            ... 5

OPERATOR  0   PASS   0:  MOs    24 ...   36
  Reading integrals       ... ok
  Internal MO  26
  Internal MO  29
  Internal MO  32
  Internal MO  35
OPERATOR  0   PASS   1:  MOs    37 ...   49
  Reading integrals       ... ok
  Internal MO  38
  Internal MO  41
  Internal MO  44
  Internal MO  47
OPERATOR  0   PASS   2:  MOs    50 ...   62
  Reading integrals       ... ok
  Internal MO  50
  Internal MO  53
  Internal MO  56
  Internal MO  59
  Internal MO  62
OPERATOR  0   PASS   3:  MOs    63 ...   75
  Reading integrals       ... ok
  Internal MO  65
  Internal MO  68
  Internal MO  71
  Internal MO  74
OPERATOR  0   PASS   4:  MOs    76 ...   76
  Reading integrals       ... ok
Time spent in pair loops =   122.097 sec
Deleting buffer (Ka|jb)[aa] ...done

-----------------------------------------------
 RI-MP2 CORRELATION ENERGY:     -3.536246148 Eh
-----------------------------------------------


-------
TIMINGS
-------

Total time                :  204.088 sec
Integral trafo            :   81.005 sec ( 39.7%)
I/O of integrals          :    6.740 sec (  3.3%)
K(i,j) Operators          :   79.099 sec ( 38.8%)
T(i,j) pair energies      :    3.095 sec (  1.5%)
V-calculation             :    0.043 sec (  0.0%)
V**(-1/2)                 :    0.599 sec (  0.3%)
Gamma(ia|P)               :    0.000 sec (  0.0%)
Gamma-Trafo               :    0.000 sec (  0.0%)
D(virtual)                :    0.000 sec (  0.0%)
D(internal)               :    0.000 sec (  0.0%)
W(virtual)                :    0.000 sec (  0.0%)
W(internal)               :    0.000 sec (  0.0%)
L(virtual)                :    0.000 sec (  0.0%)
L(internal)               :    0.000 sec (  0.0%)
G(D)                      :    0.000 sec (  0.0%)
G(Z)                      :    0.000 sec (  0.0%)
Z-Vector Solution         :    0.000 sec (  0.0%)
3-Index Derivative        :    0.000 sec (  0.0%)
2-Index Derivative        :    0.000 sec (  0.0%)
Separable Gradient        :    0.000 sec (  0.0%)


---------------------------------------
MP2 TOTAL ENERGY:    -1274.341155975 Eh
---------------------------------------

Maximum memory used throughout the entire MP2-calculation: 305.3 MB

-------------------------   --------------------
FINAL SINGLE POINT ENERGY     -1274.341155974680
-------------------------   --------------------


                            ***************************************
                            *     ORCA property calculations      *
                            ***************************************


  WARNING: The energy has been calculated at the MP2 level but the densities
           used in the property calculations are still SCF densities
           MP2 response densities have not been calculated 
           use %mp2 Density relaxed end
           or  %mp2 Density unrelaxed end

                                    ---------------------
                                    Active property flags
                                    ---------------------
   (+) Dipole Moment


------------------------------------------------------------------------------
                       ORCA ELECTRIC PROPERTIES CALCULATION
------------------------------------------------------------------------------

Dipole Moment Calculation                       ... on
Quadrupole Moment Calculation                   ... off
Polarizability Calculation                      ... off
GBWName                                         ... CONFS/Conf181.orca.gbw
Electron density file                           ... CONFS/Conf181.orca.scfp
The origin for moment calculation is the CENTER OF MASS  = (32.764818, 31.560955 35.146774)

-------------
DIPOLE MOMENT
-------------
                                X             Y             Z
Electronic contribution:      8.38109      10.96699       4.98174
Nuclear contribution   :     -9.37415     -12.60514      -5.00562
                        -----------------------------------------
Total Dipole Moment    :     -0.99305      -1.63815      -0.02388
                        -----------------------------------------
Magnitude (a.u.)       :      1.91579
Magnitude (Debye)      :      4.86956



--------------------
Rotational spectrum 
--------------------
 
Rotational constants in cm-1:     0.012084     0.009149     0.006485 
Rotational constants in MHz :   362.266306   274.279763   194.410508 

 Dipole components along the rotational axes: 
x,y,z [a.u.] :    -1.909024    -0.046227     0.154139 
x,y,z [Debye]:    -4.852352    -0.117499     0.391790 

 

Timings for individual modules:

Sum of individual times         ...     5842.311 sec (=  97.372 min)
GTO integral calculation        ...        3.950 sec (=   0.066 min)   0.1 %
SCF iterations                  ...     5633.271 sec (=  93.888 min)  96.4 %
MP2 module                      ...      205.091 sec (=   3.418 min)   3.5 %
                             ****ORCA TERMINATED NORMALLY****
TOTAL RUN TIME: 0 days 1 hours 37 minutes 24 seconds 590 msec
