
                                        *****************
                                        * O   R   C   A *
                                        *****************

                                            #,                                       
                                            ###                                      
                                            ####                                     
                                            #####                                    
                                            ######                                   
                                           ########,                                 
                                     ,,################,,,,,                         
                               ,,#################################,,                 
                          ,,##########################################,,             
                       ,#########################################, ''#####,          
                    ,#############################################,,   '####,        
                  ,##################################################,,,,####,       
                ,###########''''           ''''###############################       
              ,#####''   ,,,,##########,,,,          '''####'''          '####       
            ,##' ,,,,###########################,,,                        '##       
           ' ,,###''''                  '''############,,,                           
         ,,##''                                '''############,,,,        ,,,,,,###''
      ,#''                                            '''#######################'''  
     '                                                          ''''####''''         
             ,#######,   #######,   ,#######,      ##                                
            ,#'     '#,  ##    ##  ,#'     '#,    #''#        ######   ,####,        
            ##       ##  ##   ,#'  ##            #'  '#       #        #'  '#        
            ##       ##  #######   ##           ,######,      #####,   #    #        
            '#,     ,#'  ##    ##  '#,     ,#' ,#      #,         ##   #,  ,#        
             '#######'   ##     ##  '#######'  #'      '#     #####' # '####'        



                  #######################################################
                  #                        -***-                        #
                  #          Department of theory and spectroscopy      #
                  #    Directorship and core code : Frank Neese         #
                  #        Max Planck Institute fuer Kohlenforschung    #
                  #                Kaiser Wilhelm Platz 1               #
                  #                 D-45470 Muelheim/Ruhr               #
                  #                      Germany                        #
                  #                                                     #
                  #                  All rights reserved                #
                  #                        -***-                        #
                  #######################################################


                         Program Version 5.0.0 -  RELEASE  -
                                (SVN: $Rev: 19529$)
                ($Date: 2021-06-28 11:36:33 +0200 (Mo, 28 Jun 2021) $)


 With contributions from (in alphabetic order):
   Daniel Aravena         : Magnetic Suceptibility
   Michael Atanasov       : Ab Initio Ligand Field Theory (pilot matlab implementation)
   Alexander A. Auer      : GIAO ZORA, VPT2 properties, NMR spectrum
   Ute Becker             : Parallelization
   Giovanni Bistoni       : ED, misc. LED, open-shell LED, HFLD
   Martin Brehm           : Molecular dynamics
   Dmytro Bykov           : SCF Hessian
   Vijay G. Chilkuri      : MRCI spin determinant printing, contributions to CSF-ICE
   Dipayan Datta          : RHF DLPNO-CCSD density
   Achintya Kumar Dutta   : EOM-CC, STEOM-CC
   Dmitry Ganyushin       : Spin-Orbit,Spin-Spin,Magnetic field MRCI
   Miquel Garcia          : C-PCM Hessian, Gaussian charge scheme
   Yang Guo               : DLPNO-NEVPT2, F12-NEVPT2, CIM, IAO-localization
   Andreas Hansen         : Spin unrestricted coupled pair/coupled cluster methods
   Benjamin Helmich-Paris : MC-RPA, TRAH-SCF, COSX integrals
   Lee Huntington         : MR-EOM, pCC
   Robert Izsak           : Overlap fitted RIJCOSX, COSX-SCS-MP3, EOM
   Marcus Kettner         : VPT2
   Christian Kollmar      : KDIIS, OOCD, Brueckner-CCSD(T), CCSD density, CASPT2, CASPT2-K
   Simone Kossmann        : Meta GGA functionals, TD-DFT gradient, OOMP2, MP2 Hessian
   Martin Krupicka        : Initial AUTO-CI
   Lucas Lang             : DCDCAS
   Marvin Lechner         : AUTO-CI (C++ implementation), FIC-MRCC
   Dagmar Lenk            : GEPOL surface, SMD
   Dimitrios Liakos       : Extrapolation schemes; Compound Job, initial MDCI parallelization
   Dimitrios Manganas     : Further ROCIS development; embedding schemes
   Dimitrios Pantazis     : SARC Basis sets
   Anastasios Papadopoulos: AUTO-CI, single reference methods and gradients
   Taras Petrenko         : DFT Hessian,TD-DFT gradient, ASA, ECA, R-Raman, ABS, FL, XAS/XES, NRVS
   Peter Pinski           : DLPNO-MP2, DLPNO-MP2 Gradient
   Christoph Reimann      : Effective Core Potentials
   Marius Retegan         : Local ZFS, SOC
   Christoph Riplinger    : Optimizer, TS searches, QM/MM, DLPNO-CCSD(T), (RO)-DLPNO pert. Triples
   Tobias Risthaus        : Range-separated hybrids, TD-DFT gradient, RPA, STAB
   Michael Roemelt        : Original ROCIS implementation
   Masaaki Saitow         : Open-shell DLPNO-CCSD energy and density
   Barbara Sandhoefer     : DKH picture change effects
   Avijit Sen             : IP-ROCIS
   Kantharuban Sivalingam : CASSCF convergence, NEVPT2, FIC-MRCI
   Bernardo de Souza      : ESD, SOC TD-DFT
   Georgi Stoychev        : AutoAux, RI-MP2 NMR
   Willem Van den Heuvel  : Paramagnetic NMR
   Boris Wezisla          : Elementary symmetry handling
   Frank Wennmohs         : Technical directorship


 We gratefully acknowledge several colleagues who have allowed us to
 interface, adapt or use parts of their codes:
   Stefan Grimme, W. Hujo, H. Kruse, P. Pracht,  : VdW corrections, initial TS optimization,
                  C. Bannwarth, S. Ehlert          DFT functionals, gCP, sTDA/sTD-DF
   Ed Valeev, F. Pavosevic, A. Kumar             : LibInt (2-el integral package), F12 methods
   Garnet Chan, S. Sharma, J. Yang, R. Olivares  : DMRG
   Ulf Ekstrom                                   : XCFun DFT Library
   Mihaly Kallay                                 : mrcc  (arbitrary order and MRCC methods)
   Jiri Pittner, Ondrej Demel                    : Mk-CCSD
   Frank Weinhold                                : gennbo (NPA and NBO analysis)
   Christopher J. Cramer and Donald G. Truhlar   : smd solvation model
   Lars Goerigk                                  : TD-DFT with DH, B97 family of functionals
   V. Asgeirsson, H. Jonsson                     : NEB implementation
   FAccTs GmbH                                   : IRC, NEB, NEB-TS, DLPNO-Multilevel, CI-OPT
                                                   MM, QMMM, 2- and 3-layer-ONIOM, Crystal-QMMM,
                                                   LR-CPCM, SF, NACMEs, symmetry and pop. for TD-DFT,
                                                   nearIR, NL-DFT gradient (VV10), updates on ESD,
                                                   ML-optimized integration grids
   S Lehtola, MJT Oliveira, MAL Marques          : LibXC Library
   Liviu Ungur et al                             : ANISO software


 Your calculation uses the libint2 library for the computation of 2-el integrals
 For citations please refer to: http://libint.valeyev.net

 Your ORCA version has been built with support for libXC version: 5.1.0
 For citations please refer to: https://tddft.org/programs/libxc/

 This ORCA versions uses:
   CBLAS   interface :  Fast vector & matrix operations
   LAPACKE interface :  Fast linear algebra routines
   SCALAPACK package :  Parallel linear algebra routines
   Shared memory     :  Shared parallel matrices
   BLAS/LAPACK       :  OpenBLAS 0.3.15  USE64BITINT DYNAMIC_ARCH NO_AFFINITY Zen SINGLE_THREADED
        Core in use  :  Zen
   Copyright (c) 2011-2014, The OpenBLAS Project


================================================================================

----- Orbital basis set information -----
Your calculation utilizes the basis: cc-pVTZ 
       H, B-Ne : Obtained from the ccRepo (grant-hill.group.shef.ac.uk/ccrepo) Feb. 2017
                 T. H. Dunning, Jr., J. Chem. Phys. 90, 1007 (1989)
            He : Obtained from the ccRepo (grant-hill.group.shef.ac.uk/ccrepo) Feb. 2017
                 D. E. Woon, T. H. Dunning, Jr., J. Chem. Phys. 100, 2975 (1994)
  Li-Be, Na-Mg : Obtained from the ccRepo (grant-hill.group.shef.ac.uk/ccrepo) Feb. 2017
                 B. P. Prascher, D. E. Woon, K. A. Peterson, T. H. Dunning, Jr., A. K. Wilson, Theor. Chem. Acc. 128, 69 (2011)
         Al-Ar : Obtained from the ccRepo (grant-hill.group.shef.ac.uk/ccrepo) Feb. 2017
                 D. E. Woon, T. H. Dunning, Jr., J. Chem. Phys. 98, 1358 (1993)
            Ca : Obtained from the Peterson Research Group Website (tyr0.chem.wsu.edu/~kipeters) Feb. 2017
                 J. Koput, K. A. Peterson, J. Phys. Chem. 106, 9595 (2002)
         Sc-Zn : Obtained from the ccRepo (grant-hill.group.shef.ac.uk/ccrepo) Feb. 2017
                 N. B. Balabanov, K. A. Peterson, J. Chem. Phys. 123, 064107 (2005)
                 N. B. Balabanov, K. A. Peterson, J. Chem. Phys. 125, 074110 (2006)
         Ga-Kr : Obtained from the ccRepo (grant-hill.group.shef.ac.uk/ccrepo) Feb. 2017
                 A. K. Wilson, D. E. Woon, K. A. Peterson, T. H. Dunning, Jr., J. Chem. Phys. 110, 7667 (1999)
             Y : Obtained from the ccRepo (grant-hill.group.shef.ac.uk/ccrepo) Feb. 2017
                 K. A. Peterson, D. Figgen, M. Dolg, H. Stoll, J. Chem. Phys. 126, 124101 (2007)
        Ag, Au : Obtained from the Peterson Research Group Website (tyr0.chem.wsu.edu/~kipeters) Feb. 2017
                 K. A. Peterson, C. Puzzarini, Theor. Chem. Acc. 114, 283 (2005)

----- AuxC basis set information -----
Your calculation utilizes the auxiliary basis: cc-pVTZ/C 
  Obtained from the EMSL Basis Set Exchange (bse.pnl.gov) Feb. 2017
  H-He, B-F, Al-Ar, Ga-Kr : F. Weigend, A. Kohn, C. Hattig, J. Chem. Phys. 116, 3175 (2002)
             Li-Be, Na-Mg : C. Haettig, Phys. Chem. Chem. Phys. 7, 59 (2005)
                       Ne : C. Haettig, Phys. Chem. Chem. Phys. 7, 59 (2005)
                            F. Weigend, A. Kohn, C. Hattig, J. Chem. Phys. 116, 3175 (2002)
                    Sc-Zn : J. G. Hill, J. A. Platts, J. Chem. Phys. 128, 044104 (2008)

================================================================================
                                        WARNINGS
                       Please study these warnings very carefully!
================================================================================


WARNING: No MP2 level density has been requested!
         To caclulate MP2 level properties use
         %mp2 Density relaxed end
         or
         %mp2 Density unrelaxed end

WARNING: Post HF methods need fully converged wavefunctions
  ===> : Setting SCFConvForced true
         You can overwrite this default with %scf ConvForced false 


INFO   : the flag for use of the SHARK integral package has been found!

================================================================================
                                       INPUT FILE
================================================================================
NAME = CONFS/Conf699.orca
|  1> ! ri-mp2 cc-pvtz cc-pvtz/c TightSCF NoKeepInts
|  2> 
|  3> %scf
|  4>   MaxCore 4096
|  5> end
|  6> *xyz  0  1
|  7>     C       14.5572076   15.9745351   16.4504704
|  8>     C       15.5344971   15.0920809   17.2477714
|  9>     O       16.7579292   14.8896296   16.5088228
| 10>     C       17.8250334   15.7515383   16.4450855
| 11>     O       18.8750766   15.3696074   15.9645967
| 12>     C       17.8224012   16.8838636   17.4128364
| 13>     C       17.3650639   18.1052200   17.0589533
| 14>     C       16.7975364   18.5042944   15.7137074
| 15>     N       17.4907905   19.1796611   17.9414568
| 16>     C       18.1447581   19.1270454   19.1448690
| 17>     S       18.2705091   20.4532324   20.1243608
| 18>     N       18.6927906   17.9182089   19.4985137
| 19>     C       18.5783323   16.6640329   18.7265097
| 20>     C       17.9872864   15.5322155   19.5630988
| 21>     C       18.4270770   14.2113586   19.3576466
| 22>     C       17.8851815   13.1506237   20.1018946
| 23>     C       16.8943449   13.4107195   21.0633543
| 24>     C       16.4518729   14.7236440   21.2718661
| 25>     O       15.4867730   14.9768539   22.1908076
| 26>     C       16.9909653   15.7783070   20.5279054
| 27>     H       14.7422633   17.0364111   16.6325098
| 28>     H       13.5263498   15.7685205   16.7639932
| 29>     H       14.6300200   15.7725331   15.3742488
| 30>     H       15.7081188   15.5143152   18.2424944
| 31>     H       15.0650337   14.1099989   17.3901000
| 32>     H       16.5912516   17.6400710   15.0708874
| 33>     H       17.5102555   19.1401532   15.1729331
| 34>     H       15.8616057   19.0657351   15.8236095
| 35>     H       17.1221176   20.0827687   17.6873922
| 36>     H       19.1607374   17.9084524   20.3962078
| 37>     H       19.6000753   16.3604676   18.4533330
| 38>     H       19.1848717   14.0043011   18.6042936
| 39>     H       18.2319611   12.1330950   19.9284317
| 40>     H       16.4724770   12.5935488   21.6393839
| 41>     H       15.2816630   14.1409101   22.6366626
| 42>     H       16.6227716   16.7840461   20.7029916
| 43> *
| 44> 
| 45>                          ****END OF INPUT****
================================================================================

                       ****************************
                       * Single Point Calculation *
                       ****************************

---------------------------------
CARTESIAN COORDINATES (ANGSTROEM)
---------------------------------
  C     14.557208   15.974535   16.450470
  C     15.534497   15.092081   17.247771
  O     16.757929   14.889630   16.508823
  C     17.825033   15.751538   16.445086
  O     18.875077   15.369607   15.964597
  C     17.822401   16.883864   17.412836
  C     17.365064   18.105220   17.058953
  C     16.797536   18.504294   15.713707
  N     17.490790   19.179661   17.941457
  C     18.144758   19.127045   19.144869
  S     18.270509   20.453232   20.124361
  N     18.692791   17.918209   19.498514
  C     18.578332   16.664033   18.726510
  C     17.987286   15.532215   19.563099
  C     18.427077   14.211359   19.357647
  C     17.885181   13.150624   20.101895
  C     16.894345   13.410720   21.063354
  C     16.451873   14.723644   21.271866
  O     15.486773   14.976854   22.190808
  C     16.990965   15.778307   20.527905
  H     14.742263   17.036411   16.632510
  H     13.526350   15.768520   16.763993
  H     14.630020   15.772533   15.374249
  H     15.708119   15.514315   18.242494
  H     15.065034   14.109999   17.390100
  H     16.591252   17.640071   15.070887
  H     17.510255   19.140153   15.172933
  H     15.861606   19.065735   15.823609
  H     17.122118   20.082769   17.687392
  H     19.160737   17.908452   20.396208
  H     19.600075   16.360468   18.453333
  H     19.184872   14.004301   18.604294
  H     18.231961   12.133095   19.928432
  H     16.472477   12.593549   21.639384
  H     15.281663   14.140910   22.636663
  H     16.622772   16.784046   20.702992

----------------------------
CARTESIAN COORDINATES (A.U.)
----------------------------
  NO LB      ZA    FRAG     MASS         X           Y           Z
   0 C     6.0000    0    12.011   27.509136   30.187496   31.086884
   1 C     6.0000    0    12.011   29.355945   28.519900   32.593564
   2 O     8.0000    0    15.999   31.667897   28.137322   31.197154
   3 C     6.0000    0    12.011   33.684431   29.766094   31.076708
   4 O     8.0000    0    15.999   35.668726   29.044349   30.168716
   5 C     6.0000    0    12.011   33.679457   31.905878   32.905492
   6 C     6.0000    0    12.011   32.815215   34.213907   32.236750
   7 C     6.0000    0    12.011   31.742744   34.968049   29.694604
   8 N     7.0000    0    14.007   33.052804   36.244307   33.904440
   9 C     6.0000    0    12.011   34.288624   36.144878   36.178559
  10 S    16.0000    0    32.060   34.526259   38.651008   38.029531
  11 N     7.0000    0    14.007   35.324255   33.860508   36.846851
  12 C     6.0000    0    12.011   35.107960   31.490458   35.387975
  13 C     6.0000    0    12.011   33.991045   29.351634   36.968899
  14 C     6.0000    0    12.011   34.822129   26.855576   36.580651
  15 C     6.0000    0    12.011   33.798095   24.851077   37.987076
  16 C     6.0000    0    12.011   31.925685   25.342587   39.803971
  17 C     6.0000    0    12.011   31.089534   27.823655   40.198001
  18 O     8.0000    0    15.999   29.265760   28.302152   41.934549
  19 C     6.0000    0    12.011   32.108271   29.816679   38.792119
  20 H     1.0000    0     1.008   27.858840   32.194151   31.430888
  21 H     1.0000    0     1.008   25.561097   29.798185   31.679356
  22 H     1.0000    0     1.008   27.646731   29.805768   29.053120
  23 H     1.0000    0     1.008   29.684043   29.317807   34.473318
  24 H     1.0000    0     1.008   28.468788   26.664034   32.862526
  25 H     1.0000    0     1.008   31.352922   33.334903   28.479850
  26 H     1.0000    0     1.008   33.089587   36.169648   28.672688
  27 H     1.0000    0     1.008   29.974091   36.029018   29.902288
  28 H     1.0000    0     1.008   32.356113   37.950933   33.424327
  29 H     1.0000    0     1.008   36.208546   33.842071   38.543247
  30 H     1.0000    0     1.008   37.038775   30.916803   34.871746
  31 H     1.0000    0     1.008   36.254153   26.464294   35.157020
  32 H     1.0000    0     1.008   34.453413   22.928227   37.659278
  33 H     1.0000    0     1.008   31.128470   23.798358   40.892509
  34 H     1.0000    0     1.008   28.878158   26.722447   42.777093
  35 H     1.0000    0     1.008   31.412486   31.717251   39.122984

--------------------------------
INTERNAL COORDINATES (ANGSTROEM)
--------------------------------
 C      0   0   0     0.000000000000     0.00000000     0.00000000
 C      1   0   0     1.539320975791     0.00000000     0.00000000
 O      2   1   0     1.443543440851   110.69141878     0.00000000
 C      3   2   1     1.373193513022   126.46539909    82.32322151
 O      4   3   2     1.216277690812   119.48040233   168.26691592
 C      4   3   2     1.489533255066   116.46274588    11.48481084
 C      6   4   3     1.351333456353   121.16646258   263.56612789
 C      7   6   4     1.513616322408   126.72238615     0.79244534
 N      7   6   4     1.396081402651   119.97150109   186.10012496
 C      9   7   6     1.370635968025   124.64090124     4.93420585
 S     10   9   7     1.653477988737   121.70909849   179.00533104
 N     10   9   7     1.373568301406   116.75669159   359.06426222
 C     12  10   9     1.477175790971   125.57302532   356.78089977
 C     13  12  10     1.526508173934   111.90657932   235.99042077
 C     14  13  12     1.407227532637   119.66428266   214.50593678
 C     15  14  13     1.404533497821   120.72575753   180.88453438
 C     16  15  14     1.404924107488   119.66428644   359.91967991
 C     17  16  15     1.401081505204   119.87144551     0.11637338
 O     18  17  16     1.356461039197   120.02886539   179.40452822
 C     18  17  16     1.398718049662   120.37802165     0.00000000
 H      1   2   3     1.093144361295   111.29345419   273.30865264
 H      1   2   3     1.096998799158   109.93247197   154.82633716
 H      1   2   3     1.097433089489   111.11865105    35.39731325
 H      2   1   3     1.094486247303   110.50553747   125.48767229
 H      2   1   3     1.097787943567   107.96890519   242.39466852
 H      8   7   6     1.096655395381   112.56396484    11.80524442
 H      8   7   6     1.097598183573   110.31333902   252.56028190
 H      8   7   6     1.096932270655   111.45783581   132.75110466
 H      9   7   6     1.008003901453   119.81884879   181.98005934
 H     12  10   9     1.012385348618   114.91020608   180.59122747
 H     13  12  10     1.100334566773   106.97985693   119.19675091
 H     15  14  13     1.088423795340   119.81497000     0.00000000
 H     16  15  14     1.088903174748   119.89666570   179.70095150
 H     17  16  15     1.085150025602   119.87041819   179.92354646
 H     19  18  17     0.969360010462   107.52738231     4.02193031
 H     20  18  17     1.085234037164   118.83001314   179.39544369

---------------------------
INTERNAL COORDINATES (A.U.)
---------------------------
 C      0   0   0     0.000000000000     0.00000000     0.00000000
 C      1   0   0     2.908895076445     0.00000000     0.00000000
 O      2   1   0     2.727901765627   110.69141878     0.00000000
 C      3   2   1     2.594959668488   126.46539909    82.32322151
 O      4   3   2     2.298431738432   119.48040233   168.26691592
 C      4   3   2     2.814809919443   116.46274588    11.48481084
 C      6   4   3     2.553650148112   121.16646258   263.56612789
 C      7   6   4     2.860320321183   126.72238615     0.79244534
 N      7   6   4     2.638211511672   119.97150109   186.10012496
 C      9   7   6     2.590126608870   124.64090124     4.93420585
 S     10   9   7     3.124620567180   121.70909849   179.00533104
 N     10   9   7     2.595667915892   116.75669159   359.06426222
 C     12  10   9     2.791457696594   125.57302532   356.78089977
 C     13  12  10     2.884682389928   111.90657932   235.99042077
 C     14  13  12     2.659274644797   119.66428266   214.50593678
 C     15  14  13     2.654183656801   120.72575753   180.88453438
 C     16  15  14     2.654921802096   119.66428644   359.91967991
 C     17  16  15     2.647660336137   119.87144551     0.11637338
 O     18  17  16     2.563339875417   120.02886539   179.40452822
 C     18  17  16     2.643194052434   120.37802165     0.00000000
 H      1   2   3     2.065743467688   111.29345419   273.30865264
 H      1   2   3     2.073027299649   109.93247197   154.82633716
 H      1   2   3     2.073847989436   111.11865105    35.39731325
 H      2   1   3     2.068279264747   110.50553747   125.48767229
 H      2   1   3     2.074518566463   107.96890519   242.39466852
 H      8   7   6     2.072378360558   112.56396484    11.80524442
 H      8   7   6     2.074159972042   110.31333902   252.56028190
 H      8   7   6     2.072901578998   111.45783581   132.75110466
 H      9   7   6     1.904851315671   119.81884879   181.98005934
 H     12  10   9     1.913131050883   114.91020608   180.59122747
 H     13  12  10     2.079330986888   106.97985693   119.19675091
 H     15  14  13     2.056822890837   119.81497000     0.00000000
 H     16  15  14     2.057728786631   119.89666570   179.70095150
 H     17  16  15     2.050636362606   119.87041819   179.92354646
 H     19  18  17     1.831824944949   107.52738231     4.02193031
 H     20  18  17     2.050795121449   118.83001314   179.39544369

---------------------
BASIS SET INFORMATION
---------------------
There are 5 groups of distinct atoms

 Group   1 Type C   : 18s5p2d1f contracted to 4s3p2d1f pattern {8811/311/11/1}
 Group   2 Type O   : 18s5p2d1f contracted to 4s3p2d1f pattern {8811/311/11/1}
 Group   3 Type N   : 18s5p2d1f contracted to 4s3p2d1f pattern {8811/311/11/1}
 Group   4 Type S   : 41s16p2d1f contracted to 5s4p2d1f pattern {13131311/7711/11/1}
 Group   5 Type H   : 5s2p1d contracted to 3s2p1d pattern {311/11/1}

Atom   0C    basis set group =>   1
Atom   1C    basis set group =>   1
Atom   2O    basis set group =>   2
Atom   3C    basis set group =>   1
Atom   4O    basis set group =>   2
Atom   5C    basis set group =>   1
Atom   6C    basis set group =>   1
Atom   7C    basis set group =>   1
Atom   8N    basis set group =>   3
Atom   9C    basis set group =>   1
Atom  10S    basis set group =>   4
Atom  11N    basis set group =>   3
Atom  12C    basis set group =>   1
Atom  13C    basis set group =>   1
Atom  14C    basis set group =>   1
Atom  15C    basis set group =>   1
Atom  16C    basis set group =>   1
Atom  17C    basis set group =>   1
Atom  18O    basis set group =>   2
Atom  19C    basis set group =>   1
Atom  20H    basis set group =>   5
Atom  21H    basis set group =>   5
Atom  22H    basis set group =>   5
Atom  23H    basis set group =>   5
Atom  24H    basis set group =>   5
Atom  25H    basis set group =>   5
Atom  26H    basis set group =>   5
Atom  27H    basis set group =>   5
Atom  28H    basis set group =>   5
Atom  29H    basis set group =>   5
Atom  30H    basis set group =>   5
Atom  31H    basis set group =>   5
Atom  32H    basis set group =>   5
Atom  33H    basis set group =>   5
Atom  34H    basis set group =>   5
Atom  35H    basis set group =>   5
---------------------------------
AUXILIARY/C BASIS SET INFORMATION
---------------------------------
There are 5 groups of distinct atoms

 Group   1 Type C   : 8s6p5d3f1g contracted to 8s6p5d3f1g pattern {11111111/111111/11111/111/1}
 Group   2 Type O   : 8s6p5d3f1g contracted to 8s6p5d3f1g pattern {11111111/111111/11111/111/1}
 Group   3 Type N   : 8s6p5d3f1g contracted to 8s6p5d3f1g pattern {11111111/111111/11111/111/1}
 Group   4 Type S   : 10s8p7d5f2g contracted to 10s8p7d5f2g pattern {1111111111/11111111/1111111/11111/11}
 Group   5 Type H   : 4s3p2d1f contracted to 4s3p2d1f pattern {1111/111/11/1}

Atom   0C    basis set group =>   1
Atom   1C    basis set group =>   1
Atom   2O    basis set group =>   2
Atom   3C    basis set group =>   1
Atom   4O    basis set group =>   2
Atom   5C    basis set group =>   1
Atom   6C    basis set group =>   1
Atom   7C    basis set group =>   1
Atom   8N    basis set group =>   3
Atom   9C    basis set group =>   1
Atom  10S    basis set group =>   4
Atom  11N    basis set group =>   3
Atom  12C    basis set group =>   1
Atom  13C    basis set group =>   1
Atom  14C    basis set group =>   1
Atom  15C    basis set group =>   1
Atom  16C    basis set group =>   1
Atom  17C    basis set group =>   1
Atom  18O    basis set group =>   2
Atom  19C    basis set group =>   1
Atom  20H    basis set group =>   5
Atom  21H    basis set group =>   5
Atom  22H    basis set group =>   5
Atom  23H    basis set group =>   5
Atom  24H    basis set group =>   5
Atom  25H    basis set group =>   5
Atom  26H    basis set group =>   5
Atom  27H    basis set group =>   5
Atom  28H    basis set group =>   5
Atom  29H    basis set group =>   5
Atom  30H    basis set group =>   5
Atom  31H    basis set group =>   5
Atom  32H    basis set group =>   5
Atom  33H    basis set group =>   5
Atom  34H    basis set group =>   5
Atom  35H    basis set group =>   5
------------------------------------------------------------------------------
                           ORCA GTO INTEGRAL CALCULATION
------------------------------------------------------------------------------
------------------------------------------------------------------------------
                   ___                                                        
                  /   \      - P O W E R E D   B Y -                         
                 /     \                                                     
                 |  |  |   _    _      __       _____    __    __             
                 |  |  |  | |  | |    /  \     |  _  \  |  |  /  |          
                  \  \/   | |  | |   /    \    | | | |  |  | /  /          
                 / \  \   | |__| |  /  /\  \   | |_| |  |  |/  /          
                |  |  |   |  __  | /  /__\  \  |    /   |      \           
                |  |  |   | |  | | |   __   |  |    \   |  |\   \          
                \     /   | |  | | |  |  |  |  | |\  \  |  | \   \       
                 \___/    |_|  |_| |__|  |__|  |_| \__\ |__|  \__/        
                                                                              
                      - O R C A' S   B I G   F R I E N D -                    
                                      &                                       
                       - I N T E G R A L  F E E D E R -                       
                                                                              
 v1 FN, 2020, v2 2021                                                         
------------------------------------------------------------------------------


Reading SHARK input file CONFS/Conf699.orca.SHARKINP.tmp ... ok
----------------------
SHARK INTEGRAL PACKAGE
----------------------

Number of atoms                             ...     36
Number of basis functions                   ...    828
Number of shells                            ...    298
Maximum angular momentum                    ...      3
Integral batch strategy                     ... SHARK/LIBINT Hybrid
RI-J (if used) integral strategy            ... SPLIT-RIJ (Revised 2003 algorithm where possible)
Printlevel                                  ...      1
Contraction scheme used                     ... SEGMENTED contraction
Coulomb Range Separation                    ... NOT USED
Exchange Range Separation                   ... NOT USED
Finite Nucleus Model                        ... NOT USED
Auxiliary Coulomb fitting basis             ... NOT available
Auxiliary J/K fitting basis                 ... NOT available
Auxiliary Correlation fitting basis         ... AVAILABLE
   # of basis functions in Aux-C            ...   2141
   # of shells in Aux-C                     ...    629
   Maximum angular momentum in Aux-C        ...      4
Auxiliary 'external' fitting basis          ... NOT available
Integral threshold                          ...     2.500000e-11
Primitive cut-off                           ...     2.500000e-12
Primitive pair pre-selection threshold      ...     2.500000e-12

Calculating pre-screening integrals         ... done (  0.5 sec) Dimension = 298
Organizing shell pair data                  ... done (  1.4 sec)
Shell pair information
Total number of shell pairs                 ...     44551
Shell pairs after pre-screening             ...     34432
Total number of primitive shell pairs       ...    234348
Primitive shell pairs kept                  ...     98433
          la=0 lb=0:   6857 shell pairs
          la=1 lb=0:   9547 shell pairs
          la=1 lb=1:   3380 shell pairs
          la=2 lb=0:   5477 shell pairs
          la=2 lb=1:   3785 shell pairs
          la=2 lb=2:   1086 shell pairs
          la=3 lb=0:   1992 shell pairs
          la=3 lb=1:   1375 shell pairs
          la=3 lb=2:    783 shell pairs
          la=3 lb=3:    150 shell pairs

Calculating one electron integrals          ... done (  0.3 sec)
Calculating RI/C V-Matrix + Cholesky decomp.... done (  0.8 sec)
Calculating Nuclear repulsion               ... done (  0.0 sec) ENN=   1727.824021043586 Eh

SHARK setup successfully completed in   3.7 seconds

Maximum memory used throughout the entire GTOINT-calculation: 514.1 MB
-------------------------------------------------------------------------------
                                 ORCA SCF
-------------------------------------------------------------------------------

------------
SCF SETTINGS
------------
Hamiltonian:
 Ab initio Hamiltonian  Method          .... Hartree-Fock(GTOs)


General Settings:
 Integral files         IntName         .... CONFS/Conf699.orca
 Hartree-Fock type      HFTyp           .... RHF
 Total Charge           Charge          ....    0
 Multiplicity           Mult            ....    1
 Number of Electrons    NEL             ....  154
 Basis Dimension        Dim             ....  828
 Nuclear Repulsion      ENuc            ....   1727.8240210436 Eh

Convergence Acceleration:
 DIIS                   CNVDIIS         .... on
   Start iteration      DIISMaxIt       ....    12
   Startup error        DIISStart       ....  0.200000
   # of expansion vecs  DIISMaxEq       ....     5
   Bias factor          DIISBfac        ....   1.050
   Max. coefficient     DIISMaxC        ....  10.000
 Trust-Rad. Augm. Hess. CNVTRAH         .... auto
   Auto Start mean grad. ratio tolernc. ....  1.125000
   Auto Start start iteration           ....    20
   Auto Start num. interpolation iter.  ....    10
   Max. Number of Micro iterations      ....    16
   Max. Number of Macro iterations      .... Maxiter - #DIIS iter
   Number of Davidson start vectors     ....     2
   Converg. threshold I  (grad. norm)   ....   1.000e-05
   Converg. threshold II (energy diff.) ....   1.000e-08
   Grad. Scal. Fac. for Micro threshold ....   0.100
   Minimum threshold for Micro iter.    ....   0.010
   NR start threshold (gradient norm)   ....   0.001
   Initial trust radius                 ....   0.400
   Minimum AH scaling param. (alpha)    ....   1.000
   Maximum AH scaling param. (alpha)    .... 1000.000
   Orbital update algorithm             .... Taylor
   White noise on init. David. guess    .... on
   Maximum white noise                  ....   0.010
   Quad. conv. algorithm                .... NR
 SOSCF                  CNVSOSCF        .... on
   Start iteration      SOSCFMaxIt      ....   150
   Startup grad/error   SOSCFStart      ....  0.003300
 Level Shifting         CNVShift        .... on
   Level shift para.    LevelShift      ....    0.2500
   Turn off err/grad.   ShiftErr        ....    0.0010
 Zerner damping         CNVZerner       .... off
 Static damping         CNVDamp         .... on
   Fraction old density DampFac         ....    0.7000
   Max. Damping (<1)    DampMax         ....    0.9800
   Min. Damping (>=0)   DampMin         ....    0.0000
   Turn off err/grad.   DampErr         ....    0.1000
 Fernandez-Rico         CNVRico         .... off

SCF Procedure:
 Maximum # iterations   MaxIter         ....   125
 SCF integral mode      SCFMode         .... Direct
   Integral package                     .... SHARK and LIBINT hybrid scheme
 Reset frequency        DirectResetFreq ....    20
 Integral Threshold     Thresh          ....  2.500e-11 Eh
 Primitive CutOff       TCut            ....  2.500e-12 Eh

Convergence Tolerance:
 Convergence Check Mode ConvCheckMode   .... Total+1el-Energy
 Convergence forced     ConvForced      .... 1
 Energy Change          TolE            ....  1.000e-08 Eh
 1-El. energy change                    ....  1.000e-05 Eh
 Orbital Gradient       TolG            ....  1.000e-05
 Orbital Rotation angle TolX            ....  1.000e-05
 DIIS Error             TolErr          ....  5.000e-07


Diagonalization of the overlap matrix:
Smallest eigenvalue                        ... 3.217e-05
Time for diagonalization                   ...    0.110 sec
Threshold for overlap eigenvalues          ... 1.000e-08
Number of eigenvalues below threshold      ... 0
Time for construction of square roots      ...    0.199 sec
Total time needed                          ...    0.310 sec

Time for model grid setup =    1.427 sec

------------------------------
INITIAL GUESS: MODEL POTENTIAL
------------------------------
Loading Hartree-Fock densities                     ... done
Calculating cut-offs                               ... done
Initializing the effective Hamiltonian             ... done
Setting up the integral package (SHARK)            ... done
Starting the Coulomb interaction                   ... done (   4.8 sec)
Reading the grid                                   ... done
Mapping shells                                     ... done
Starting the XC term evaluation                    ... done (   1.2 sec)
Transforming the Hamiltonian                       ... done (   0.1 sec)
Diagonalizing the Hamiltonian                      ... done (   0.1 sec)
Back transforming the eigenvectors                 ... done (   0.0 sec)
Now organizing SCF variables                       ... done
                      ------------------
                      INITIAL GUESS DONE (   7.7 sec)
                      ------------------
--------------
SCF ITERATIONS
--------------
ITER       Energy         Delta-E        Max-DP      RMS-DP      [F,P]     Damp
               ***  Starting incremental Fock matrix formation  ***
  0  -1269.9955914302   0.000000000000 0.04927054  0.00044902  0.3025169 0.7000
  1  -1270.2607356930  -0.265144262836 0.03607445  0.00036594  0.1784468 0.7000
                               ***Turning on DIIS***
  2  -1270.4262650649  -0.165529371879 0.02585237  0.00024408  0.1097711 0.7000
  3  -1272.5380064691  -2.111741404208 0.06326478  0.00052198  0.0829269 0.0000
  4  -1270.7364598329   1.801546636222 0.01227263  0.00010330  0.0066126 0.0000
  5  -1270.7914769725  -0.055017139582 0.00482235  0.00005207  0.0037735 0.0000
                      *** Initiating the SOSCF procedure ***
                           *** Shutting down DIIS ***
                      *** Re-Reading the Fockian *** 
                      *** Removing any level shift *** 
ITER      Energy       Delta-E        Grad      Rot      Max-DP    RMS-DP
  6  -1270.77060537   0.0208715987  0.001529  0.001529  0.002251  0.000026
               *** Restarting incremental Fock matrix formation ***
  7  -1270.78607889  -0.0154735194  0.000615  0.001286  0.001367  0.000017
  8  -1270.78612009  -0.0000411980  0.000415  0.001586  0.001489  0.000017
  9  -1270.78613595  -0.0000158541  0.000123  0.000207  0.000419  0.000005
 10  -1270.78613794  -0.0000019917  0.000030  0.000070  0.000124  0.000001
 11  -1270.78613810  -0.0000001619  0.000017  0.000053  0.000049  0.000001
 12  -1270.78613814  -0.0000000453  0.000006  0.000021  0.000027  0.000000
                  ***Gradient check signals convergence***
              ***Rediagonalizing the Fockian in SOSCF/NRSCF***

               *****************************************************
               *                     SUCCESS                       *
               *           SCF CONVERGED AFTER  13 CYCLES          *
               *****************************************************


----------------
TOTAL SCF ENERGY
----------------

Total Energy       :        -1270.78613815 Eh          -34579.84882 eV

Components:
Nuclear Repulsion  :         1727.82402104 Eh           47016.48188 eV
Electronic Energy  :        -2998.61015919 Eh          -81596.33071 eV
One Electron Energy:        -5176.16384720 Eh         -140850.57899 eV
Two Electron Energy:         2177.55368801 Eh           59254.24828 eV

Virial components:
Potential Energy   :        -2539.78371079 Eh          -69111.02831 eV
Kinetic Energy     :         1268.99757264 Eh           34531.17948 eV
Virial Ratio       :            2.00140943


---------------
SCF CONVERGENCE
---------------

  Last Energy change         ...   -5.7726e-09  Tolerance :   1.0000e-08
  Last MAX-Density change    ...    6.7440e-06  Tolerance :   1.0000e-07
  Last RMS-Density change    ...    1.0130e-07  Tolerance :   5.0000e-09
  Last Orbital Gradient      ...    1.9993e-06  Tolerance :   1.0000e-05
  Last Orbital Rotation      ...    6.9749e-06  Tolerance :   1.0000e-05

             **** THE GBW FILE WAS UPDATED (CONFS/Conf699.orca.gbw) ****
             **** DENSITY CONFS/Conf699.orca.scfp WAS UPDATED ****
             **** ENERGY FILE WAS UPDATED (CONFS/Conf699.orca.en.tmp) ****
             **** THE GBW FILE WAS UPDATED (CONFS/Conf699.orca.gbw) ****
             **** DENSITY CONFS/Conf699.orca.scfp WAS UPDATED ****
----------------
ORBITAL ENERGIES
----------------

  NO   OCC          E(Eh)            E(eV) 
   0   2.0000     -91.889323     -2500.4356 
   1   2.0000     -20.601904      -560.6063 
   2   2.0000     -20.600372      -560.5646 
   3   2.0000     -20.552616      -559.2651 
   4   2.0000     -15.624261      -425.1578 
   5   2.0000     -15.612422      -424.8356 
   6   2.0000     -11.398775      -310.1764 
   7   2.0000     -11.386406      -309.8399 
   8   2.0000     -11.325101      -308.1717 
   9   2.0000     -11.319446      -308.0178 
  10   2.0000     -11.319032      -308.0065 
  11   2.0000     -11.302307      -307.5514 
  12   2.0000     -11.267467      -306.6034 
  13   2.0000     -11.266760      -306.5841 
  14   2.0000     -11.264853      -306.5322 
  15   2.0000     -11.259914      -306.3978 
  16   2.0000     -11.248470      -306.0864 
  17   2.0000     -11.244370      -305.9749 
  18   2.0000     -11.242046      -305.9116 
  19   2.0000     -11.235589      -305.7359 
  20   2.0000      -8.894453      -242.0304 
  21   2.0000      -6.576048      -178.9434 
  22   2.0000      -6.574014      -178.8880 
  23   2.0000      -6.573445      -178.8725 
  24   2.0000      -1.448029       -39.4029 
  25   2.0000      -1.421717       -38.6869 
  26   2.0000      -1.360046       -37.0087 
  27   2.0000      -1.338991       -36.4358 
  28   2.0000      -1.239898       -33.7393 
  29   2.0000      -1.163465       -31.6595 
  30   2.0000      -1.125884       -30.6369 
  31   2.0000      -1.050317       -28.5806 
  32   2.0000      -1.040204       -28.3054 
  33   2.0000      -1.021594       -27.7990 
  34   2.0000      -1.005232       -27.3538 
  35   2.0000      -0.989967       -26.9384 
  36   2.0000      -0.928646       -25.2697 
  37   2.0000      -0.895639       -24.3716 
  38   2.0000      -0.852828       -23.2066 
  39   2.0000      -0.842315       -22.9206 
  40   2.0000      -0.838624       -22.8201 
  41   2.0000      -0.835751       -22.7419 
  42   2.0000      -0.754556       -20.5325 
  43   2.0000      -0.735162       -20.0048 
  44   2.0000      -0.729842       -19.8600 
  45   2.0000      -0.699331       -19.0298 
  46   2.0000      -0.691297       -18.8112 
  47   2.0000      -0.680001       -18.5038 
  48   2.0000      -0.677616       -18.4389 
  49   2.0000      -0.666806       -18.1447 
  50   2.0000      -0.654785       -17.8176 
  51   2.0000      -0.640233       -17.4216 
  52   2.0000      -0.636246       -17.3131 
  53   2.0000      -0.624251       -16.9867 
  54   2.0000      -0.611476       -16.6391 
  55   2.0000      -0.608495       -16.5580 
  56   2.0000      -0.605072       -16.4648 
  57   2.0000      -0.587540       -15.9878 
  58   2.0000      -0.579143       -15.7593 
  59   2.0000      -0.572879       -15.5888 
  60   2.0000      -0.567665       -15.4470 
  61   2.0000      -0.557856       -15.1800 
  62   2.0000      -0.541730       -14.7412 
  63   2.0000      -0.536900       -14.6098 
  64   2.0000      -0.523861       -14.2550 
  65   2.0000      -0.515743       -14.0341 
  66   2.0000      -0.504018       -13.7150 
  67   2.0000      -0.501213       -13.6387 
  68   2.0000      -0.488433       -13.2909 
  69   2.0000      -0.470148       -12.7934 
  70   2.0000      -0.452185       -12.3046 
  71   2.0000      -0.450840       -12.2680 
  72   2.0000      -0.356884        -9.7113 
  73   2.0000      -0.352646        -9.5960 
  74   2.0000      -0.329240        -8.9591 
  75   2.0000      -0.326946        -8.8966 
  76   2.0000      -0.318750        -8.6736 
  77   0.0000       0.094218         2.5638 
  78   0.0000       0.103620         2.8197 
  79   0.0000       0.115927         3.1545 
  80   0.0000       0.127108         3.4588 
  81   0.0000       0.128071         3.4850 
  82   0.0000       0.136137         3.7045 
  83   0.0000       0.148731         4.0472 
  84   0.0000       0.150267         4.0890 
  85   0.0000       0.157032         4.2731 
  86   0.0000       0.167752         4.5648 
  87   0.0000       0.175383         4.7724 
  88   0.0000       0.179438         4.8828 
  89   0.0000       0.186911         5.0861 
  90   0.0000       0.195872         5.3299 
  91   0.0000       0.198084         5.3902 
  92   0.0000       0.207465         5.6454 
  93   0.0000       0.217044         5.9061 
  94   0.0000       0.227253         6.1839 
  95   0.0000       0.234875         6.3913 
  96   0.0000       0.242504         6.5989 
  97   0.0000       0.247172         6.7259 
  98   0.0000       0.251907         6.8547 
  99   0.0000       0.286866         7.8060 
 100   0.0000       0.295165         8.0318 
 101   0.0000       0.303687         8.2637 
 102   0.0000       0.305665         8.3176 
 103   0.0000       0.311215         8.4686 
 104   0.0000       0.322337         8.7712 
 105   0.0000       0.336123         9.1464 
 106   0.0000       0.338518         9.2115 
 107   0.0000       0.344683         9.3793 
 108   0.0000       0.347484         9.4555 
 109   0.0000       0.354641         9.6503 
 110   0.0000       0.370722        10.0879 
 111   0.0000       0.373970        10.1762 
 112   0.0000       0.381932        10.3929 
 113   0.0000       0.391979        10.6663 
 114   0.0000       0.394360        10.7311 
 115   0.0000       0.403146        10.9702 
 116   0.0000       0.410986        11.1835 
 117   0.0000       0.416482        11.3331 
 118   0.0000       0.430660        11.7189 
 119   0.0000       0.436545        11.8790 
 120   0.0000       0.446688        12.1550 
 121   0.0000       0.452636        12.3169 
 122   0.0000       0.456978        12.4350 
 123   0.0000       0.462241        12.5782 
 124   0.0000       0.466028        12.6813 
 125   0.0000       0.474345        12.9076 
 126   0.0000       0.481656        13.1065 
 127   0.0000       0.483048        13.1444 
 128   0.0000       0.489062        13.3080 
 129   0.0000       0.493583        13.4311 
 130   0.0000       0.497316        13.5327 
 131   0.0000       0.506949        13.7948 
 132   0.0000       0.509348        13.8601 
 133   0.0000       0.516292        14.0490 
 134   0.0000       0.522961        14.2305 
 135   0.0000       0.528596        14.3838 
 136   0.0000       0.531303        14.4575 
 137   0.0000       0.536019        14.5858 
 138   0.0000       0.541288        14.7292 
 139   0.0000       0.551051        14.9949 
 140   0.0000       0.552732        15.0406 
 141   0.0000       0.555581        15.1181 
 142   0.0000       0.568027        15.4568 
 143   0.0000       0.569780        15.5045 
 144   0.0000       0.573539        15.6068 
 145   0.0000       0.577920        15.7260 
 146   0.0000       0.584079        15.8936 
 147   0.0000       0.589597        16.0437 
 148   0.0000       0.592239        16.1157 
 149   0.0000       0.599170        16.3042 
 150   0.0000       0.601683        16.3726 
 151   0.0000       0.603506        16.4222 
 152   0.0000       0.608841        16.5674 
 153   0.0000       0.613372        16.6907 
 154   0.0000       0.621227        16.9044 
 155   0.0000       0.623850        16.9758 
 156   0.0000       0.632014        17.1980 
 157   0.0000       0.639750        17.4085 
 158   0.0000       0.641877        17.4664 
 159   0.0000       0.643553        17.5120 
 160   0.0000       0.646866        17.6021 
 161   0.0000       0.648795        17.6546 
 162   0.0000       0.657110        17.8809 
 163   0.0000       0.665118        18.0988 
 164   0.0000       0.674057        18.3420 
 165   0.0000       0.677755        18.4426 
 166   0.0000       0.679886        18.5006 
 167   0.0000       0.691903        18.8276 
 168   0.0000       0.693631        18.8747 
 169   0.0000       0.697692        18.9852 
 170   0.0000       0.703284        19.1373 
 171   0.0000       0.706801        19.2330 
 172   0.0000       0.709629        19.3100 
 173   0.0000       0.719112        19.5680 
 174   0.0000       0.725445        19.7404 
 175   0.0000       0.735768        20.0213 
 176   0.0000       0.740607        20.1529 
 177   0.0000       0.745620        20.2894 
 178   0.0000       0.761856        20.7312 
 179   0.0000       0.767859        20.8945 
 180   0.0000       0.773114        21.0375 
 181   0.0000       0.779382        21.2080 
 182   0.0000       0.791685        21.5429 
 183   0.0000       0.795441        21.6451 
 184   0.0000       0.801964        21.8225 
 185   0.0000       0.806119        21.9356 
 186   0.0000       0.822401        22.3787 
 187   0.0000       0.826956        22.5026 
 188   0.0000       0.828506        22.5448 
 189   0.0000       0.836044        22.7499 
 190   0.0000       0.847212        23.0538 
 191   0.0000       0.854654        23.2563 
 192   0.0000       0.858761        23.3681 
 193   0.0000       0.863622        23.5004 
 194   0.0000       0.878978        23.9182 
 195   0.0000       0.881541        23.9879 
 196   0.0000       0.887209        24.1422 
 197   0.0000       0.898267        24.4431 
 198   0.0000       0.903747        24.5922 
 199   0.0000       0.906931        24.6788 
 200   0.0000       0.912139        24.8206 
 201   0.0000       0.916174        24.9304 
 202   0.0000       0.937395        25.5078 
 203   0.0000       0.942118        25.6363 
 204   0.0000       0.944765        25.7083 
 205   0.0000       0.946648        25.7596 
 206   0.0000       0.951171        25.8827 
 207   0.0000       0.961027        26.1509 
 208   0.0000       0.963808        26.2266 
 209   0.0000       0.974793        26.5255 
 210   0.0000       0.980167        26.6717 
 211   0.0000       0.992177        26.9985 
 212   0.0000       1.000626        27.2284 
 213   0.0000       1.012862        27.5614 
 214   0.0000       1.016634        27.6640 
 215   0.0000       1.025652        27.9094 
 216   0.0000       1.027066        27.9479 
 217   0.0000       1.033722        28.1290 
 218   0.0000       1.037891        28.2424 
 219   0.0000       1.044994        28.4357 
 220   0.0000       1.053906        28.6782 
 221   0.0000       1.057080        28.7646 
 222   0.0000       1.072758        29.1912 
 223   0.0000       1.074414        29.2363 
 224   0.0000       1.080989        29.4152 
 225   0.0000       1.087253        29.5857 
 226   0.0000       1.097420        29.8623 
 227   0.0000       1.098020        29.8786 
 228   0.0000       1.108129        30.1537 
 229   0.0000       1.112485        30.2723 
 230   0.0000       1.119159        30.4539 
 231   0.0000       1.133635        30.8478 
 232   0.0000       1.141892        31.0725 
 233   0.0000       1.150079        31.2952 
 234   0.0000       1.157050        31.4849 
 235   0.0000       1.159262        31.5451 
 236   0.0000       1.172924        31.9169 
 237   0.0000       1.183270        32.1984 
 238   0.0000       1.189519        32.3685 
 239   0.0000       1.193978        32.4898 
 240   0.0000       1.200953        32.6796 
 241   0.0000       1.205914        32.8146 
 242   0.0000       1.212043        32.9814 
 243   0.0000       1.215683        33.0804 
 244   0.0000       1.220387        33.2084 
 245   0.0000       1.229633        33.4600 
 246   0.0000       1.237959        33.6866 
 247   0.0000       1.247439        33.9445 
 248   0.0000       1.253824        34.1183 
 249   0.0000       1.260365        34.2963 
 250   0.0000       1.263918        34.3930 
 251   0.0000       1.273159        34.6444 
 252   0.0000       1.282387        34.8955 
 253   0.0000       1.288012        35.0486 
 254   0.0000       1.303728        35.4762 
 255   0.0000       1.307863        35.5888 
 256   0.0000       1.322354        35.9831 
 257   0.0000       1.331279        36.2260 
 258   0.0000       1.332767        36.2664 
 259   0.0000       1.341664        36.5085 
 260   0.0000       1.354576        36.8599 
 261   0.0000       1.361018        37.0352 
 262   0.0000       1.367230        37.2042 
 263   0.0000       1.370612        37.2963 
 264   0.0000       1.376868        37.4665 
 265   0.0000       1.385462        37.7003 
 266   0.0000       1.397736        38.0343 
 267   0.0000       1.400462        38.1085 
 268   0.0000       1.407304        38.2947 
 269   0.0000       1.413930        38.4750 
 270   0.0000       1.428242        38.8645 
 271   0.0000       1.432425        38.9783 
 272   0.0000       1.451129        39.4872 
 273   0.0000       1.460490        39.7420 
 274   0.0000       1.463540        39.8250 
 275   0.0000       1.471385        40.0384 
 276   0.0000       1.476735        40.1840 
 277   0.0000       1.478295        40.2265 
 278   0.0000       1.489127        40.5212 
 279   0.0000       1.494201        40.6593 
 280   0.0000       1.501120        40.8475 
 281   0.0000       1.508691        41.0536 
 282   0.0000       1.512263        41.1508 
 283   0.0000       1.522827        41.4382 
 284   0.0000       1.525442        41.5094 
 285   0.0000       1.535323        41.7783 
 286   0.0000       1.539192        41.8835 
 287   0.0000       1.549292        42.1584 
 288   0.0000       1.553542        42.2740 
 289   0.0000       1.564028        42.5594 
 290   0.0000       1.564156        42.5628 
 291   0.0000       1.574292        42.8387 
 292   0.0000       1.584079        43.1050 
 293   0.0000       1.591815        43.3155 
 294   0.0000       1.599036        43.5120 
 295   0.0000       1.603180        43.6248 
 296   0.0000       1.609607        43.7996 
 297   0.0000       1.625074        44.2205 
 298   0.0000       1.631781        44.4030 
 299   0.0000       1.635822        44.5130 
 300   0.0000       1.644288        44.7433 
 301   0.0000       1.649968        44.8979 
 302   0.0000       1.660724        45.1906 
 303   0.0000       1.663868        45.2761 
 304   0.0000       1.672332        45.5065 
 305   0.0000       1.675462        45.5916 
 306   0.0000       1.690189        45.9924 
 307   0.0000       1.700826        46.2818 
 308   0.0000       1.708747        46.4974 
 309   0.0000       1.717036        46.7229 
 310   0.0000       1.726236        46.9733 
 311   0.0000       1.732114        47.1332 
 312   0.0000       1.748665        47.5836 
 313   0.0000       1.756269        47.7905 
 314   0.0000       1.762014        47.9468 
 315   0.0000       1.769510        48.1508 
 316   0.0000       1.773017        48.2463 
 317   0.0000       1.787860        48.6501 
 318   0.0000       1.798072        48.9280 
 319   0.0000       1.802763        49.0557 
 320   0.0000       1.819806        49.5194 
 321   0.0000       1.841694        50.1150 
 322   0.0000       1.850028        50.3418 
 323   0.0000       1.850679        50.3595 
 324   0.0000       1.859962        50.6121 
 325   0.0000       1.870702        50.9044 
 326   0.0000       1.881227        51.1908 
 327   0.0000       1.899385        51.6849 
 328   0.0000       1.909153        51.9507 
 329   0.0000       1.916851        52.1602 
 330   0.0000       1.929851        52.5139 
 331   0.0000       1.937250        52.7152 
 332   0.0000       1.950038        53.0632 
 333   0.0000       1.964193        53.4484 
 334   0.0000       1.981523        53.9200 
 335   0.0000       1.985859        54.0380 
 336   0.0000       1.999559        54.4108 
 337   0.0000       2.006825        54.6085 
 338   0.0000       2.011432        54.7338 
 339   0.0000       2.021771        55.0152 
 340   0.0000       2.035696        55.3941 
 341   0.0000       2.043320        55.6016 
 342   0.0000       2.062508        56.1237 
 343   0.0000       2.065365        56.2014 
 344   0.0000       2.088901        56.8419 
 345   0.0000       2.104474        57.2656 
 346   0.0000       2.108558        57.3768 
 347   0.0000       2.140245        58.2390 
 348   0.0000       2.155466        58.6532 
 349   0.0000       2.170427        59.0603 
 350   0.0000       2.177710        59.2585 
 351   0.0000       2.194967        59.7281 
 352   0.0000       2.204314        59.9824 
 353   0.0000       2.219294        60.3901 
 354   0.0000       2.240792        60.9750 
 355   0.0000       2.259663        61.4885 
 356   0.0000       2.287761        62.2531 
 357   0.0000       2.289746        62.3072 
 358   0.0000       2.295201        62.4556 
 359   0.0000       2.302702        62.6597 
 360   0.0000       2.317242        63.0554 
 361   0.0000       2.337769        63.6139 
 362   0.0000       2.346166        63.8424 
 363   0.0000       2.352430        64.0129 
 364   0.0000       2.360545        64.2337 
 365   0.0000       2.374033        64.6007 
 366   0.0000       2.377199        64.6869 
 367   0.0000       2.383181        64.8497 
 368   0.0000       2.406133        65.4742 
 369   0.0000       2.419862        65.8478 
 370   0.0000       2.430553        66.1387 
 371   0.0000       2.450076        66.6700 
 372   0.0000       2.460265        66.9472 
 373   0.0000       2.469732        67.2048 
 374   0.0000       2.487697        67.6937 
 375   0.0000       2.489863        67.7526 
 376   0.0000       2.514145        68.4134 
 377   0.0000       2.529556        68.8327 
 378   0.0000       2.539896        69.1141 
 379   0.0000       2.562801        69.7374 
 380   0.0000       2.571106        69.9634 
 381   0.0000       2.582047        70.2611 
 382   0.0000       2.587593        70.4120 
 383   0.0000       2.603123        70.8346 
 384   0.0000       2.612146        71.0801 
 385   0.0000       2.624630        71.4198 
 386   0.0000       2.639036        71.8118 
 387   0.0000       2.651442        72.1494 
 388   0.0000       2.657931        72.3260 
 389   0.0000       2.659684        72.3737 
 390   0.0000       2.688144        73.1481 
 391   0.0000       2.699700        73.4626 
 392   0.0000       2.702728        73.5450 
 393   0.0000       2.711864        73.7936 
 394   0.0000       2.730479        74.3001 
 395   0.0000       2.741099        74.5891 
 396   0.0000       2.759615        75.0929 
 397   0.0000       2.762112        75.1609 
 398   0.0000       2.768311        75.3296 
 399   0.0000       2.783159        75.7336 
 400   0.0000       2.789469        75.9053 
 401   0.0000       2.802901        76.2708 
 402   0.0000       2.811826        76.5137 
 403   0.0000       2.822834        76.8132 
 404   0.0000       2.834840        77.1399 
 405   0.0000       2.836685        77.1901 
 406   0.0000       2.842931        77.3601 
 407   0.0000       2.846754        77.4641 
 408   0.0000       2.864536        77.9480 
 409   0.0000       2.876195        78.2653 
 410   0.0000       2.882457        78.4356 
 411   0.0000       2.885342        78.5142 
 412   0.0000       2.897351        78.8409 
 413   0.0000       2.907179        79.1083 
 414   0.0000       2.912122        79.2429 
 415   0.0000       2.921452        79.4967 
 416   0.0000       2.929107        79.7051 
 417   0.0000       2.937418        79.9312 
 418   0.0000       2.951945        80.3265 
 419   0.0000       2.954232        80.3887 
 420   0.0000       2.958141        80.4951 
 421   0.0000       2.981420        81.1286 
 422   0.0000       2.985274        81.2334 
 423   0.0000       2.997314        81.5611 
 424   0.0000       3.006309        81.8058 
 425   0.0000       3.010534        81.9208 
 426   0.0000       3.023478        82.2730 
 427   0.0000       3.026181        82.3466 
 428   0.0000       3.031805        82.4996 
 429   0.0000       3.039200        82.7008 
 430   0.0000       3.052647        83.0667 
 431   0.0000       3.055012        83.1311 
 432   0.0000       3.064406        83.3867 
 433   0.0000       3.079585        83.7998 
 434   0.0000       3.087191        84.0067 
 435   0.0000       3.090943        84.1088 
 436   0.0000       3.094453        84.2043 
 437   0.0000       3.098463        84.3135 
 438   0.0000       3.109447        84.6124 
 439   0.0000       3.115643        84.7810 
 440   0.0000       3.123646        84.9987 
 441   0.0000       3.128320        85.1259 
 442   0.0000       3.131803        85.2207 
 443   0.0000       3.140434        85.4556 
 444   0.0000       3.146021        85.6076 
 445   0.0000       3.150006        85.7160 
 446   0.0000       3.165105        86.1269 
 447   0.0000       3.169317        86.2415 
 448   0.0000       3.179017        86.5055 
 449   0.0000       3.192045        86.8600 
 450   0.0000       3.202516        87.1449 
 451   0.0000       3.212830        87.4255 
 452   0.0000       3.219027        87.5942 
 453   0.0000       3.221937        87.6734 
 454   0.0000       3.231145        87.9239 
 455   0.0000       3.241765        88.2129 
 456   0.0000       3.247334        88.3644 
 457   0.0000       3.257015        88.6279 
 458   0.0000       3.261773        88.7574 
 459   0.0000       3.267433        88.9114 
 460   0.0000       3.271394        89.0192 
 461   0.0000       3.274450        89.1023 
 462   0.0000       3.295891        89.6858 
 463   0.0000       3.296692        89.7075 
 464   0.0000       3.305473        89.9465 
 465   0.0000       3.310046        90.0709 
 466   0.0000       3.314480        90.1916 
 467   0.0000       3.325261        90.4849 
 468   0.0000       3.326414        90.5163 
 469   0.0000       3.333276        90.7030 
 470   0.0000       3.340068        90.8879 
 471   0.0000       3.342577        90.9561 
 472   0.0000       3.352486        91.2258 
 473   0.0000       3.357920        91.3736 
 474   0.0000       3.361149        91.4615 
 475   0.0000       3.367770        91.6417 
 476   0.0000       3.369647        91.6928 
 477   0.0000       3.370234        91.7087 
 478   0.0000       3.377343        91.9022 
 479   0.0000       3.384176        92.0881 
 480   0.0000       3.391569        92.2893 
 481   0.0000       3.393512        92.3422 
 482   0.0000       3.404440        92.6395 
 483   0.0000       3.408278        92.7440 
 484   0.0000       3.413102        92.8752 
 485   0.0000       3.416666        92.9722 
 486   0.0000       3.425706        93.2182 
 487   0.0000       3.430096        93.3377 
 488   0.0000       3.433532        93.4312 
 489   0.0000       3.436001        93.4983 
 490   0.0000       3.441042        93.6355 
 491   0.0000       3.451376        93.9167 
 492   0.0000       3.458674        94.1153 
 493   0.0000       3.463146        94.2370 
 494   0.0000       3.467687        94.3606 
 495   0.0000       3.473604        94.5216 
 496   0.0000       3.483812        94.7993 
 497   0.0000       3.494648        95.0942 
 498   0.0000       3.502551        95.3093 
 499   0.0000       3.513942        95.6192 
 500   0.0000       3.518179        95.7345 
 501   0.0000       3.521389        95.8219 
 502   0.0000       3.538951        96.2998 
 503   0.0000       3.541538        96.3701 
 504   0.0000       3.551188        96.6327 
 505   0.0000       3.558589        96.8341 
 506   0.0000       3.562587        96.9429 
 507   0.0000       3.577388        97.3457 
 508   0.0000       3.582434        97.4830 
 509   0.0000       3.585151        97.5569 
 510   0.0000       3.597147        97.8833 
 511   0.0000       3.602243        98.0220 
 512   0.0000       3.611419        98.2717 
 513   0.0000       3.614744        98.3622 
 514   0.0000       3.626693        98.6873 
 515   0.0000       3.628942        98.7485 
 516   0.0000       3.636794        98.9622 
 517   0.0000       3.638769        99.0159 
 518   0.0000       3.648047        99.2684 
 519   0.0000       3.652748        99.3963 
 520   0.0000       3.656853        99.5080 
 521   0.0000       3.658994        99.5663 
 522   0.0000       3.666949        99.7828 
 523   0.0000       3.672802        99.9420 
 524   0.0000       3.679779       100.1319 
 525   0.0000       3.689705       100.4020 
 526   0.0000       3.691662       100.4552 
 527   0.0000       3.698511       100.6416 
 528   0.0000       3.710360       100.9640 
 529   0.0000       3.713129       101.0394 
 530   0.0000       3.716508       101.1313 
 531   0.0000       3.718713       101.1913 
 532   0.0000       3.727798       101.4385 
 533   0.0000       3.734776       101.6284 
 534   0.0000       3.740597       101.7868 
 535   0.0000       3.749405       102.0265 
 536   0.0000       3.753266       102.1316 
 537   0.0000       3.762385       102.3797 
 538   0.0000       3.769779       102.5809 
 539   0.0000       3.781718       102.9058 
 540   0.0000       3.785483       103.0082 
 541   0.0000       3.794248       103.2467 
 542   0.0000       3.800942       103.4289 
 543   0.0000       3.806068       103.5684 
 544   0.0000       3.822965       104.0282 
 545   0.0000       3.825594       104.0997 
 546   0.0000       3.830218       104.2255 
 547   0.0000       3.843464       104.5860 
 548   0.0000       3.845844       104.6507 
 549   0.0000       3.859500       105.0223 
 550   0.0000       3.859617       105.0255 
 551   0.0000       3.871888       105.3594 
 552   0.0000       3.877693       105.5174 
 553   0.0000       3.886180       105.7483 
 554   0.0000       3.895146       105.9923 
 555   0.0000       3.899898       106.1216 
 556   0.0000       3.912321       106.4597 
 557   0.0000       3.918234       106.6206 
 558   0.0000       3.931290       106.9759 
 559   0.0000       3.939181       107.1906 
 560   0.0000       3.940963       107.2391 
 561   0.0000       3.952276       107.5469 
 562   0.0000       3.964083       107.8682 
 563   0.0000       3.969820       108.0243 
 564   0.0000       3.974128       108.1415 
 565   0.0000       3.985254       108.4443 
 566   0.0000       3.999563       108.8336 
 567   0.0000       4.010204       109.1232 
 568   0.0000       4.012197       109.1774 
 569   0.0000       4.022598       109.4605 
 570   0.0000       4.030262       109.6690 
 571   0.0000       4.034594       109.7869 
 572   0.0000       4.042162       109.9928 
 573   0.0000       4.049416       110.1902 
 574   0.0000       4.061474       110.5183 
 575   0.0000       4.068489       110.7092 
 576   0.0000       4.078236       110.9744 
 577   0.0000       4.081026       111.0504 
 578   0.0000       4.087366       111.2229 
 579   0.0000       4.103616       111.6651 
 580   0.0000       4.115104       111.9777 
 581   0.0000       4.118261       112.0636 
 582   0.0000       4.120693       112.1298 
 583   0.0000       4.132615       112.4542 
 584   0.0000       4.143527       112.7511 
 585   0.0000       4.153661       113.0269 
 586   0.0000       4.156930       113.1158 
 587   0.0000       4.167162       113.3942 
 588   0.0000       4.171401       113.5096 
 589   0.0000       4.181045       113.7720 
 590   0.0000       4.183722       113.8449 
 591   0.0000       4.186170       113.9115 
 592   0.0000       4.196800       114.2007 
 593   0.0000       4.207397       114.4891 
 594   0.0000       4.220411       114.8432 
 595   0.0000       4.222708       114.9057 
 596   0.0000       4.230181       115.1091 
 597   0.0000       4.231337       115.1405 
 598   0.0000       4.240113       115.3793 
 599   0.0000       4.246015       115.5399 
 600   0.0000       4.257296       115.8469 
 601   0.0000       4.264753       116.0498 
 602   0.0000       4.271330       116.2288 
 603   0.0000       4.288761       116.7031 
 604   0.0000       4.294561       116.8609 
 605   0.0000       4.302336       117.0725 
 606   0.0000       4.310561       117.2963 
 607   0.0000       4.322838       117.6304 
 608   0.0000       4.330140       117.8291 
 609   0.0000       4.334147       117.9381 
 610   0.0000       4.349456       118.3547 
 611   0.0000       4.352201       118.4294 
 612   0.0000       4.368016       118.8598 
 613   0.0000       4.375646       119.0674 
 614   0.0000       4.382761       119.2610 
 615   0.0000       4.389782       119.4520 
 616   0.0000       4.396274       119.6287 
 617   0.0000       4.404827       119.8614 
 618   0.0000       4.407887       119.9447 
 619   0.0000       4.416869       120.1891 
 620   0.0000       4.424045       120.3844 
 621   0.0000       4.436623       120.7267 
 622   0.0000       4.446533       120.9963 
 623   0.0000       4.455403       121.2377 
 624   0.0000       4.457810       121.3032 
 625   0.0000       4.464701       121.4907 
 626   0.0000       4.472274       121.6968 
 627   0.0000       4.489163       122.1563 
 628   0.0000       4.498640       122.4142 
 629   0.0000       4.503379       122.5432 
 630   0.0000       4.512098       122.7804 
 631   0.0000       4.519414       122.9795 
 632   0.0000       4.529308       123.2487 
 633   0.0000       4.535291       123.4116 
 634   0.0000       4.536862       123.4543 
 635   0.0000       4.549560       123.7998 
 636   0.0000       4.555104       123.9507 
 637   0.0000       4.563447       124.1777 
 638   0.0000       4.576578       124.5350 
 639   0.0000       4.577186       124.5516 
 640   0.0000       4.600380       125.1827 
 641   0.0000       4.602254       125.2337 
 642   0.0000       4.604469       125.2940 
 643   0.0000       4.621904       125.7684 
 644   0.0000       4.622628       125.7881 
 645   0.0000       4.635027       126.1255 
 646   0.0000       4.636960       126.1781 
 647   0.0000       4.643398       126.3533 
 648   0.0000       4.647607       126.4678 
 649   0.0000       4.652643       126.6049 
 650   0.0000       4.663447       126.8988 
 651   0.0000       4.674081       127.1882 
 652   0.0000       4.681059       127.3781 
 653   0.0000       4.692051       127.6772 
 654   0.0000       4.704658       128.0202 
 655   0.0000       4.712688       128.2388 
 656   0.0000       4.722347       128.5016 
 657   0.0000       4.731092       128.7396 
 658   0.0000       4.745694       129.1369 
 659   0.0000       4.752141       129.3123 
 660   0.0000       4.768827       129.7664 
 661   0.0000       4.784695       130.1982 
 662   0.0000       4.797415       130.5443 
 663   0.0000       4.798572       130.5758 
 664   0.0000       4.822231       131.2196 
 665   0.0000       4.838120       131.6519 
 666   0.0000       4.855033       132.1122 
 667   0.0000       4.859872       132.2438 
 668   0.0000       4.874803       132.6501 
 669   0.0000       4.892001       133.1181 
 670   0.0000       4.894821       133.1948 
 671   0.0000       4.918910       133.8504 
 672   0.0000       4.942557       134.4938 
 673   0.0000       4.951341       134.7328 
 674   0.0000       4.969241       135.2199 
 675   0.0000       4.996122       135.9514 
 676   0.0000       5.002315       136.1199 
 677   0.0000       5.019739       136.5941 
 678   0.0000       5.033666       136.9730 
 679   0.0000       5.048111       137.3661 
 680   0.0000       5.050049       137.4188 
 681   0.0000       5.064911       137.8232 
 682   0.0000       5.071238       137.9954 
 683   0.0000       5.087593       138.4404 
 684   0.0000       5.104229       138.8931 
 685   0.0000       5.117306       139.2490 
 686   0.0000       5.128202       139.5455 
 687   0.0000       5.132385       139.6593 
 688   0.0000       5.136111       139.7607 
 689   0.0000       5.148647       140.1018 
 690   0.0000       5.166037       140.5750 
 691   0.0000       5.183625       141.0536 
 692   0.0000       5.195462       141.3757 
 693   0.0000       5.204880       141.6320 
 694   0.0000       5.211810       141.8206 
 695   0.0000       5.218576       142.0047 
 696   0.0000       5.234941       142.4500 
 697   0.0000       5.250657       142.8776 
 698   0.0000       5.252115       142.9173 
 699   0.0000       5.262091       143.1888 
 700   0.0000       5.269900       143.4013 
 701   0.0000       5.270724       143.4237 
 702   0.0000       5.289498       143.9346 
 703   0.0000       5.305330       144.3654 
 704   0.0000       5.325356       144.9103 
 705   0.0000       5.346075       145.4741 
 706   0.0000       5.347730       145.5191 
 707   0.0000       5.354838       145.7126 
 708   0.0000       5.367950       146.0694 
 709   0.0000       5.372559       146.1948 
 710   0.0000       5.392375       146.7340 
 711   0.0000       5.416409       147.3880 
 712   0.0000       5.443940       148.1371 
 713   0.0000       5.457376       148.5027 
 714   0.0000       5.468648       148.8095 
 715   0.0000       5.477380       149.0471 
 716   0.0000       5.487799       149.3306 
 717   0.0000       5.501429       149.7015 
 718   0.0000       5.508829       149.9028 
 719   0.0000       5.517324       150.1340 
 720   0.0000       5.535597       150.6313 
 721   0.0000       5.536835       150.6649 
 722   0.0000       5.562524       151.3640 
 723   0.0000       5.564546       151.4190 
 724   0.0000       5.580419       151.8509 
 725   0.0000       5.601014       152.4113 
 726   0.0000       5.611010       152.6833 
 727   0.0000       5.624098       153.0395 
 728   0.0000       5.635868       153.3598 
 729   0.0000       5.645142       153.6121 
 730   0.0000       5.659048       153.9905 
 731   0.0000       5.661692       154.0625 
 732   0.0000       5.680833       154.5833 
 733   0.0000       5.685618       154.7135 
 734   0.0000       5.693220       154.9204 
 735   0.0000       5.697818       155.0455 
 736   0.0000       5.724397       155.7688 
 737   0.0000       5.734629       156.0472 
 738   0.0000       5.741360       156.2303 
 739   0.0000       5.754777       156.5954 
 740   0.0000       5.764555       156.8615 
 741   0.0000       5.781960       157.3351 
 742   0.0000       5.795445       157.7021 
 743   0.0000       5.812681       158.1711 
 744   0.0000       5.821113       158.4005 
 745   0.0000       5.841136       158.9454 
 746   0.0000       5.867530       159.6636 
 747   0.0000       5.876405       159.9051 
 748   0.0000       5.896088       160.4407 
 749   0.0000       5.905646       160.7008 
 750   0.0000       5.933955       161.4711 
 751   0.0000       5.956896       162.0954 
 752   0.0000       5.966867       162.3667 
 753   0.0000       5.982877       162.8023 
 754   0.0000       5.993639       163.0952 
 755   0.0000       6.005341       163.4136 
 756   0.0000       6.043672       164.4567 
 757   0.0000       6.054010       164.7380 
 758   0.0000       6.066088       165.0666 
 759   0.0000       6.073530       165.2692 
 760   0.0000       6.107983       166.2067 
 761   0.0000       6.159128       167.5984 
 762   0.0000       6.230064       169.5287 
 763   0.0000       6.247554       170.0046 
 764   0.0000       6.258323       170.2976 
 765   0.0000       6.287122       171.0813 
 766   0.0000       6.322962       172.0565 
 767   0.0000       6.343683       172.6204 
 768   0.0000       6.348745       172.7581 
 769   0.0000       6.375173       173.4773 
 770   0.0000       6.386867       173.7955 
 771   0.0000       6.398104       174.1013 
 772   0.0000       6.408091       174.3730 
 773   0.0000       6.438436       175.1988 
 774   0.0000       6.454671       175.6405 
 775   0.0000       6.481145       176.3609 
 776   0.0000       6.495572       176.7535 
 777   0.0000       6.510447       177.1583 
 778   0.0000       6.549657       178.2252 
 779   0.0000       6.625684       180.2940 
 780   0.0000       6.671922       181.5522 
 781   0.0000       6.701172       182.3482 
 782   0.0000       6.715197       182.7298 
 783   0.0000       6.780908       184.5179 
 784   0.0000       6.808816       185.2773 
 785   0.0000       6.840554       186.1409 
 786   0.0000       6.902884       187.8370 
 787   0.0000       6.917368       188.2311 
 788   0.0000       6.952031       189.1744 
 789   0.0000       6.981244       189.9693 
 790   0.0000       7.046992       191.7584 
 791   0.0000       7.071273       192.4191 
 792   0.0000       7.078880       192.6261 
 793   0.0000       7.144863       194.4216 
 794   0.0000       7.206874       196.1090 
 795   0.0000       7.249555       197.2704 
 796   0.0000       7.254635       197.4087 
 797   0.0000       7.277615       198.0340 
 798   0.0000       7.336543       199.6375 
 799   0.0000       7.360626       200.2928 
 800   0.0000       7.388413       201.0489 
 801   0.0000       7.487567       203.7470 
 802   0.0000       7.550777       205.4671 
 803   0.0000       7.570428       206.0018 
 804   0.0000       7.581007       206.2897 
 805   0.0000       7.759718       211.1527 
 806   0.0000       7.813980       212.6292 
 807   0.0000       7.929084       215.7613 
 808   0.0000       8.072967       219.6766 
 809   0.0000       9.420024       256.3319 
 810   0.0000       9.734213       264.8814 
 811   0.0000      10.797638       293.8187 
 812   0.0000      11.203634       304.8664 
 813   0.0000      11.954025       325.2856 
 814   0.0000      12.565036       341.9120 
 815   0.0000      12.918623       351.5336 
 816   0.0000      13.048597       355.0704 
 817   0.0000      13.084268       356.0410 
 818   0.0000      13.280440       361.3791 
 819   0.0000      13.420064       365.1785 
 820   0.0000      13.492314       367.1445 
 821   0.0000      13.890644       377.9836 
 822   0.0000      13.975319       380.2878 
 823   0.0000      14.046420       382.2225 
 824   0.0000      14.159644       385.3035 
 825   0.0000      14.494536       394.4164 
 826   0.0000      14.796251       402.6265 
 827   0.0000      15.963939       434.4009 

                    ********************************
                    * MULLIKEN POPULATION ANALYSIS *
                    ********************************

-----------------------
MULLIKEN ATOMIC CHARGES
-----------------------
   0 C :   -0.324409
   1 C :    0.041026
   2 O :   -0.318443
   3 C :    0.385535
   4 O :   -0.375759
   5 C :   -0.168890
   6 C :    0.125860
   7 C :   -0.330558
   8 N :   -0.139915
   9 C :    0.214126
  10 S :   -0.444425
  11 N :   -0.233111
  12 C :    0.093434
  13 C :   -0.000925
  14 C :   -0.197340
  15 C :   -0.134974
  16 C :   -0.272812
  17 C :    0.315944
  18 O :   -0.355336
  19 C :   -0.266355
  20 H :    0.095687
  21 H :    0.114358
  22 H :    0.113943
  23 H :    0.101650
  24 H :    0.122264
  25 H :    0.118920
  26 H :    0.150726
  27 H :    0.114939
  28 H :    0.195139
  29 H :    0.204878
  30 H :    0.164885
  31 H :    0.166194
  32 H :    0.165152
  33 H :    0.133709
  34 H :    0.241702
  35 H :    0.183182
Sum of atomic charges:   -0.0000000

--------------------------------
MULLIKEN REDUCED ORBITAL CHARGES
--------------------------------
  0 C s       :     3.275525  s :     3.275525
      pz      :     0.999436  p :     2.969767
      px      :     0.992576
      py      :     0.977755
      dz2     :     0.023208  d :     0.074670
      dxz     :     0.010929
      dyz     :     0.008074
      dx2y2   :     0.023497
      dxy     :     0.008962
      f0      :     0.001162  f :     0.004448
      f+1     :     0.000326
      f-1     :     0.000420
      f+2     :     0.000342
      f-2     :     0.000699
      f+3     :     0.000701
      f-3     :     0.000798
  1 C s       :     3.168313  s :     3.168313
      pz      :     0.893677  p :     2.624660
      px      :     0.712597
      py      :     1.018386
      dz2     :     0.033812  d :     0.154480
      dxz     :     0.033011
      dyz     :     0.018554
      dx2y2   :     0.035185
      dxy     :     0.033918
      f0      :     0.001019  f :     0.011522
      f+1     :     0.002659
      f-1     :     0.000897
      f+2     :     0.001866
      f-2     :     0.001855
      f+3     :     0.001748
      f-3     :     0.001477
  2 O s       :     3.726467  s :     3.726467
      pz      :     1.674851  p :     4.556204
      px      :     1.289611
      py      :     1.591743
      dz2     :     0.004754  d :     0.033485
      dxz     :     0.007291
      dyz     :     0.003674
      dx2y2   :     0.005449
      dxy     :     0.012317
      f0      :     0.000261  f :     0.002286
      f+1     :     0.000357
      f-1     :     0.000146
      f+2     :     0.000312
      f-2     :     0.000284
      f+3     :     0.000430
      f-3     :     0.000496
[...]
 15 C s       :     2.705715  s :     2.705715
      pz      :     0.909939  p :     2.790246
      px      :     0.903294
      py      :     0.977013
      dz2     :     0.099469  d :     0.416188
      dxz     :     0.062124
      dyz     :     0.075355
      dx2y2   :     0.096233
      dxy     :     0.083006
      f0      :     0.003992  f :     0.041117
      f+1     :     0.004862
      f-1     :     0.007022
      f+2     :     0.006039
      f-2     :     0.007532
      f+3     :     0.005433
      f-3     :     0.006237
 16 C s       :     2.701762  s :     2.701762
      pz      :     0.947454  p :     2.867514
      px      :     0.949926
      py      :     0.970134
      dz2     :     0.056545  d :     0.390380
      dxz     :     0.051020
      dyz     :     0.101747
      dx2y2   :     0.084513
      dxy     :     0.096556
      f0      :     0.005632  f :     0.040322
      f+1     :     0.004447
      f-1     :     0.004002
      f+2     :     0.005520
      f-2     :     0.006964
      f+3     :     0.006877
      f-3     :     0.006881
 17 C s       :     2.701693  s :     2.701693
      pz      :     0.824147  p :     2.682569
      px      :     0.815711
      py      :     1.042710
      dz2     :     0.144479  d :     0.709866
      dxz     :     0.109142
      dyz     :     0.153965
      dx2y2   :     0.151607
      dxy     :     0.150674
      f0      :     0.013166  f :     0.099369
      f+1     :     0.014775
      f-1     :     0.012058
      f+2     :     0.014002
      f-2     :     0.017821
      f+3     :     0.012067
      f-3     :     0.015479
 18 O s       :     3.177211  s :     3.177211
      pz      :     1.416264  p :     4.346153
      px      :     1.470536
      py      :     1.459353
      dz2     :     0.011692  d :     0.075554
      dxz     :     0.018305
      dyz     :     0.017967
      dx2y2   :     0.016543
      dxy     :     0.011047
      f0      :     0.000657  f :     0.005064
      f+1     :     0.000840
      f-1     :     0.000406
      f+2     :     0.000988
      f-2     :     0.000909
      f+3     :     0.000531
      f-3     :     0.000735
 19 C s       :     2.696668  s :     2.696668
      pz      :     0.941879  p :     2.850085
      px      :     0.936805
      py      :     0.971401
      dz2     :     0.080213  d :     0.387929
      dxz     :     0.060009
      dyz     :     0.078245
      dx2y2   :     0.084836
      dxy     :     0.084625
      f0      :     0.003954  f :     0.040613
      f+1     :     0.005000
      f-1     :     0.006427
      f+2     :     0.006236
      f-2     :     0.007902
      f+3     :     0.005532
      f-3     :     0.005562
 20 H s       :     0.849647  s :     0.849647
      pz      :     0.040868  p :     0.156370
      px      :     0.042215
      py      :     0.073287
      dz2     :     0.003057  d :     0.028095
      dxz     :     0.000325
      dyz     :     0.008584
      dx2y2   :     0.007317
      dxy     :     0.008811
 21 H s       :     0.843785  s :     0.843785
      pz      :     0.041961  p :     0.151239
      px      :     0.069042
      py      :     0.040236
      dz2     :     0.003817  d :     0.027501
      dxz     :     0.007878
      dyz     :     0.000691
      dx2y2   :     0.007034
      dxy     :     0.008081
 22 H s       :     0.846862  s :     0.846862
      pz      :     0.072970  p :     0.150406
      px      :     0.037603
      py      :     0.039833
      dz2     :     0.009465  d :     0.027645
      dxz     :     0.008855
      dyz     :     0.008471
      dx2y2   :     0.000650
      dxy     :     0.000204
 23 H s       :     0.849670  s :     0.849670
      pz      :     0.080880  p :     0.159240
      px      :     0.030242
      py      :     0.048117
      dz2     :     0.010049  d :     0.027567
      dxz     :     0.006128
      dyz     :     0.008278
      dx2y2   :     0.001708
      dxy     :     0.001404
 24 H s       :     0.848246  s :     0.848246
      pz      :     0.037544  p :     0.144223
      px      :     0.035285
      py      :     0.071393
      dz2     :     0.002488  d :     0.027059
      dxz     :     0.001805
      dyz     :     0.007981
      dx2y2   :     0.006998
      dxy     :     0.007786
 25 H s       :     0.833639  s :     0.833639
      pz      :     0.048476  p :     0.149237
      px      :     0.040452
      py      :     0.060309
      dz2     :     0.006108  d :     0.027630
      dxz     :     0.003263
      dyz     :     0.007095
      dx2y2   :     0.004568
      dxy     :     0.006597
 26 H s       :     0.829358  s :     0.829358
      pz      :     0.046099  p :     0.151035
      px      :     0.053136
      py      :     0.051800
      dz2     :     0.005110  d :     0.027565
      dxz     :     0.005184
      dyz     :     0.004786
      dx2y2   :     0.006832
      dxy     :     0.005653
 27 H s       :     0.838900  s :     0.838900
      pz      :     0.036713  p :     0.151399
      px      :     0.065313
      py      :     0.049374
      dz2     :     0.002357  d :     0.027687
      dxz     :     0.006340
      dyz     :     0.002689
      dx2y2   :     0.008746
      dxy     :     0.007554
 28 H s       :     0.742812  s :     0.742812
      pz      :     0.054386  p :     0.253889
      px      :     0.090198
      py      :     0.109305
      dz2     :     0.006886  d :     0.061666
      dxz     :     0.003080
      dyz     :     0.015753
      dx2y2   :     0.016914
      dxy     :     0.019033
 29 H s       :     0.747622  s :     0.747622
      pz      :     0.116970  p :     0.255005
      px      :     0.094258
      py      :     0.043777
      dz2     :     0.022091  d :     0.061498
      dxz     :     0.018180
      dyz     :     0.012607
      dx2y2   :     0.005283
      dxy     :     0.003337
 30 H s       :     0.824495  s :     0.824495
      pz      :     0.039120  p :     0.149815
      px      :     0.075657
      py      :     0.035039
      dz2     :     0.002962  d :     0.028546
      dxz     :     0.008547
      dyz     :     0.001664
      dx2y2   :     0.007890
      dxy     :     0.007484
 31 H s       :     0.837036  s :     0.837036
      pz      :     0.062416  p :     0.156907
      px      :     0.061496
      py      :     0.032995
      dz2     :     0.006794  d :     0.027384
      dxz     :     0.007264
      dyz     :     0.004509
      dx2y2   :     0.004275
      dxy     :     0.004542
 32 H s       :     0.840603  s :     0.840603
      pz      :     0.036928  p :     0.150594
      px      :     0.040522
      py      :     0.073143
      dz2     :     0.002846  d :     0.026390
      dxz     :     0.001087
      dyz     :     0.007122
      dx2y2   :     0.007746
      dxy     :     0.007589
 33 H s       :     0.847739  s :     0.847739
      pz      :     0.052568  p :     0.158720
      px      :     0.046885
      py      :     0.059267
      dz2     :     0.005381  d :     0.027722
      dxz     :     0.003554
      dyz     :     0.006675
      dx2y2   :     0.006203
      dxy     :     0.005908
 34 H s       :     0.705805  s :     0.705805
      pz      :     0.098332  p :     0.347272
      px      :     0.087613
      py      :     0.161328
      dz2     :     0.018497  d :     0.099428
      dxz     :     0.007862
      dyz     :     0.025800
      dx2y2   :     0.022838
      dxy     :     0.024431
 35 H s       :     0.836085  s :     0.836085
      pz      :     0.041078  p :     0.160492
      px      :     0.044270
      py      :     0.075144
      dz2     :     0.002911  d :     0.028095
      dxz     :     0.001223
      dyz     :     0.007703
      dx2y2   :     0.007945
      dxy     :     0.008312


                      *****************************
                      * MAYER POPULATION ANALYSIS *
                      *****************************

  NA   - Mulliken gross atomic population
  ZA   - Total nuclear charge
  QA   - Mulliken gross atomic charge
  VA   - Mayer's total valence
  BVA  - Mayer's bonded valence
  FA   - Mayer's free valence

  ATOM       NA         ZA         QA         VA         BVA        FA
  0 C      6.3244     6.0000    -0.3244     3.8782     3.8782    -0.0000
  1 C      5.9590     6.0000     0.0410     3.8325     3.8325    -0.0000
  2 O      8.3184     8.0000    -0.3184     2.0533     2.0533     0.0000
  3 C      5.6145     6.0000     0.3855     4.2371     4.2371     0.0000
  4 O      8.3758     8.0000    -0.3758     2.1322     2.1322    -0.0000
  5 C      6.1689     6.0000    -0.1689     3.5690     3.5690    -0.0000
  6 C      5.8741     6.0000     0.1259     3.8139     3.8139     0.0000
  7 C      6.3306     6.0000    -0.3306     3.8853     3.8853    -0.0000
  8 N      7.1399     7.0000    -0.1399     3.2657     3.2657    -0.0000
  9 C      5.7859     6.0000     0.2141     4.1441     4.1441     0.0000
 10 S     16.4444    16.0000    -0.4444     1.7460     1.7460     0.0000
 11 N      7.2331     7.0000    -0.2331     3.2477     3.2477    -0.0000
 12 C      5.9066     6.0000     0.0934     3.9327     3.9327    -0.0000
 13 C      6.0009     6.0000    -0.0009     3.7322     3.7322    -0.0000
 14 C      6.1973     6.0000    -0.1973     3.8786     3.8786    -0.0000
 15 C      6.1350     6.0000    -0.1350     3.8169     3.8169    -0.0000
 16 C      6.2728     6.0000    -0.2728     3.7868     3.7868    -0.0000
 17 C      5.6841     6.0000     0.3159     3.8693     3.8693    -0.0000
 18 O      8.3553     8.0000    -0.3553     2.1194     2.1194    -0.0000
 19 C      6.2664     6.0000    -0.2664     3.8015     3.8015    -0.0000
 20 H      0.9043     1.0000     0.0957     0.9703     0.9703    -0.0000
 21 H      0.8856     1.0000     0.1144     0.9836     0.9836    -0.0000
 22 H      0.8861     1.0000     0.1139     0.9823     0.9823    -0.0000
 23 H      0.8983     1.0000     0.1017     0.9671     0.9671     0.0000
 24 H      0.8777     1.0000     0.1223     0.9777     0.9777    -0.0000
 25 H      0.8811     1.0000     0.1189     0.9855     0.9855    -0.0000
 26 H      0.8493     1.0000     0.1507     0.9724     0.9724     0.0000
 27 H      0.8851     1.0000     0.1149     0.9732     0.9732    -0.0000
 28 H      0.8049     1.0000     0.1951     1.0225     1.0225    -0.0000
 29 H      0.7951     1.0000     0.2049     1.0117     1.0117    -0.0000
 30 H      0.8351     1.0000     0.1649     0.9859     0.9859    -0.0000
 31 H      0.8338     1.0000     0.1662     0.9887     0.9887    -0.0000
 32 H      0.8348     1.0000     0.1652     0.9764     0.9764     0.0000
 33 H      0.8663     1.0000     0.1337     0.9907     0.9907    -0.0000
 34 H      0.7583     1.0000     0.2417     1.0099     1.0099    -0.0000
 35 H      0.8168     1.0000     0.1832     0.9846     0.9846    -0.0000

  Mayer bond orders larger than 0.100000
B(  0-C ,  1-C ) :   0.9584 B(  0-C , 20-H ) :   0.9775 B(  0-C , 21-H ) :   0.9803 
B(  0-C , 22-H ) :   0.9738 B(  1-C ,  2-O ) :   0.8957 B(  1-C , 23-H ) :   0.9588 
B(  1-C , 24-H ) :   0.9848 B(  2-O ,  3-C ) :   1.1721 B(  3-C ,  4-O ) :   2.1025 
B(  3-C ,  5-C ) :   0.8965 B(  5-C ,  6-C ) :   1.7139 B(  5-C , 12-C ) :   0.9499 
B(  6-C ,  7-C ) :   0.9513 B(  6-C ,  8-N ) :   1.1058 B(  7-C , 25-H ) :   0.9807 
B(  7-C , 26-H ) :   0.9639 B(  7-C , 27-H ) :   0.9708 B(  8-N ,  9-C ) :   1.2064 
B(  8-N , 28-H ) :   0.9528 B(  9-C , 10-S ) :   1.6042 B(  9-C , 11-N ) :   1.2842 
B( 11-N , 12-C ) :   0.9888 B( 11-N , 29-H ) :   0.9446 B( 12-C , 13-C ) :   0.9575 
B( 12-C , 30-H ) :   0.9966 B( 13-C , 14-C ) :   1.3896 B( 13-C , 19-C ) :   1.3332 
B( 14-C , 15-C ) :   1.4004 B( 14-C , 31-H ) :   0.9641 B( 15-C , 16-C ) :   1.3593 
B( 15-C , 32-H ) :   0.9692 B( 16-C , 17-C ) :   1.3313 B( 16-C , 33-H ) :   0.9841 
B( 17-C , 18-O ) :   1.1099 B( 17-C , 19-C ) :   1.3656 B( 18-O , 34-H ) :   0.9789 
B( 19-C , 35-H ) :   0.9574 

-------
TIMINGS
-------

Total SCF time: 0 days 1 hours 42 min 21 sec 

Total time                  ....    6141.994 sec
Sum of individual times     ....    6135.283 sec  ( 99.9%)

Fock matrix formation       ....    6120.167 sec  ( 99.6%)
Diagonalization             ....       1.336 sec  (  0.0%)
Density matrix formation    ....       0.166 sec  (  0.0%)
Population analysis         ....       0.198 sec  (  0.0%)
Initial guess               ....       6.270 sec  (  0.1%)
Orbital Transformation      ....       0.000 sec  (  0.0%)
Orbital Orthonormalization  ....       0.000 sec  (  0.0%)
DIIS solution               ....       4.149 sec  (  0.1%)
SOSCF solution              ....       1.570 sec  (  0.0%)

Maximum memory used throughout the entire SCF-calculation: 756.6 MB

------------------------------------------------------------------------------
                                ORCA  MP2 
------------------------------------------------------------------------------

Freezing NCore=48 chemical core electrons

-------------
RI-MP2 ENERGY
-------------
Dimension of the basis                    ...  828
Memory devoted to MP2                     ...  256 MB   
Data format for buffers                   ... DOUBLE
Compression type for matrix containers    ... UNCOMPRESSED
Overall scaling of the MP2 energy         ...   1.000e+00
Calculating two index integrals           ... done (    0.032 sec)
Cholesky decomposition of V**-1           ... done (    0.500 sec)

-----------------
RI-TRANSFORMATION (AUX index driven)
-----------------

Dimension of the orbital-basis         ... 828
Dimension of the aux-basis             ... 2141
Transformation of internal/external MOs...   24-  76 to   77- 827
Number Format for Storage              ... Double (8 Byte)
Integral mode                          ... Direct

First Phase: integral generation and transformation of MO indices
  Aux angular momentum 0               ... done (    4.925 sec)
  Aux angular momentum 1               ... done (    7.474 sec)
  Aux angular momentum 2               ... done (    8.387 sec)
  Aux angular momentum 3               ... done (    6.371 sec)
  Aux angular momentum 4               ... done (    2.217 sec)
Closing buffer VIA ( 0.63 GB; CompressionRatio= 1.00)
  Phase 1 completed in    29.846 sec
Second Phase: sorting and transformation of aux index

IA-Transformation
Memory available                       ... 156 MB 
Max. # MO pairs treated in a batch     ... 11    
# of internal orbitals                 ... 53
# batches for internal orbitals        ... 5
Closing buffer IAV ( 0.63 GB; CompressionRatio= 1.00)
(ia|v) transformation done in    27.351 sec

  Phase 2 completed in    27.363 sec
RI-Integral transformation completed in    57.240 sec
Opening buffers                              ... done

Starting loop over batches of integrals:

Operator 0  - window                       ... ( 24- 76)x( 77-827)
Operator 0  - Memory available             ...   256 MB
Operator 0  - Memory needed per MO         ...  12.3 MB
Operator 0  - Number of orbitals per batch ... 13
Operator 0  - Number of batches            ... 5

OPERATOR  0   PASS   0:  MOs    24 ...   36
  Reading integrals       ... ok
  Internal MO  26
  Internal MO  29
  Internal MO  32
  Internal MO  35
OPERATOR  0   PASS   1:  MOs    37 ...   49
  Reading integrals       ... ok
  Internal MO  38
  Internal MO  41
  Internal MO  44
  Internal MO  47
OPERATOR  0   PASS   2:  MOs    50 ...   62
  Reading integrals       ... ok
  Internal MO  50
  Internal MO  53
  Internal MO  56
  Internal MO  59
  Internal MO  62
OPERATOR  0   PASS   3:  MOs    63 ...   75
  Reading integrals       ... ok
  Internal MO  65
  Internal MO  68
  Internal MO  71
  Internal MO  74
OPERATOR  0   PASS   4:  MOs    76 ...   76
  Reading integrals       ... ok
Time spent in pair loops =   102.168 sec
Deleting buffer (Ka|jb)[aa] ...done

-----------------------------------------------
 RI-MP2 CORRELATION ENERGY:     -3.540756347 Eh
-----------------------------------------------


-------
TIMINGS
-------

Total time                :  160.144 sec
Integral trafo            :   57.254 sec ( 35.8%)
I/O of integrals          :    3.186 sec (  2.0%)
K(i,j) Operators          :   78.156 sec ( 48.8%)
T(i,j) pair energies      :    2.961 sec (  1.8%)
V-calculation             :    0.032 sec (  0.0%)
V**(-1/2)                 :    0.500 sec (  0.3%)
Gamma(ia|P)               :    0.000 sec (  0.0%)
Gamma-Trafo               :    0.000 sec (  0.0%)
D(virtual)                :    0.000 sec (  0.0%)
D(internal)               :    0.000 sec (  0.0%)
W(virtual)                :    0.000 sec (  0.0%)
W(internal)               :    0.000 sec (  0.0%)
L(virtual)                :    0.000 sec (  0.0%)
L(internal)               :    0.000 sec (  0.0%)
G(D)                      :    0.000 sec (  0.0%)
G(Z)                      :    0.000 sec (  0.0%)
Z-Vector Solution         :    0.000 sec (  0.0%)
3-Index Derivative        :    0.000 sec (  0.0%)
2-Index Derivative        :    0.000 sec (  0.0%)
Separable Gradient        :    0.000 sec (  0.0%)


---------------------------------------
MP2 TOTAL ENERGY:    -1274.326894497 Eh
---------------------------------------

Maximum memory used throughout the entire MP2-calculation: 305.6 MB

-------------------------   --------------------
FINAL SINGLE POINT ENERGY     -1274.326894497241
-------------------------   --------------------


                            ***************************************
                            *     ORCA property calculations      *
                            ***************************************


  WARNING: The energy has been calculated at the MP2 level but the densities
           used in the property calculations are still SCF densities
           MP2 response densities have not been calculated 
           use %mp2 Density relaxed end
           or  %mp2 Density unrelaxed end

                                    ---------------------
                                    Active property flags
                                    ---------------------
   (+) Dipole Moment


------------------------------------------------------------------------------
                       ORCA ELECTRIC PROPERTIES CALCULATION
------------------------------------------------------------------------------

Dipole Moment Calculation                       ... on
Quadrupole Moment Calculation                   ... off
Polarizability Calculation                      ... off
GBWName                                         ... CONFS/Conf699.orca.gbw
Electron density file                           ... CONFS/Conf699.orca.scfp
The origin for moment calculation is the CENTER OF MASS  = (32.808359, 31.262919 35.298557)

-------------
DIPOLE MOMENT
-------------
                                X             Y             Z
Electronic contribution:     10.20598       5.10593       7.64125
Nuclear contribution   :    -11.73292      -6.38808      -7.89322
                        -----------------------------------------
Total Dipole Moment    :     -1.52694      -1.28215      -0.25197
                        -----------------------------------------
Magnitude (a.u.)       :      2.00971
Magnitude (Debye)      :      5.10829



--------------------
Rotational spectrum 
--------------------
 
Rotational constants in cm-1:     0.011910     0.009209     0.006665 
Rotational constants in MHz :   357.050805   276.067284   199.799067 

 Dipole components along the rotational axes: 
x,y,z [a.u.] :    -1.410997    -0.813965     1.177071 
x,y,z [Debye]:    -3.586469    -2.068935     2.991877 

 

Timings for individual modules:

Sum of individual times         ...     6306.589 sec (= 105.110 min)
GTO integral calculation        ...        3.745 sec (=   0.062 min)   0.1 %
SCF iterations                  ...     6142.143 sec (= 102.369 min)  97.4 %
MP2 module                      ...      160.701 sec (=   2.678 min)   2.5 %
                             ****ORCA TERMINATED NORMALLY****
TOTAL RUN TIME: 0 days 1 hours 45 minutes 8 seconds 981 msec
