
                                        *****************
                                        * O   R   C   A *
                                        *****************

                                            #,                                       
                                            ###                                      
                                            ####                                     
                                            #####                                    
                                            ######                                   
                                           ########,                                 
                                     ,,################,,,,,                         
                               ,,#################################,,                 
                          ,,##########################################,,             
                       ,#########################################, ''#####,          
                    ,#############################################,,   '####,        
                  ,##################################################,,,,####,       
                ,###########''''           ''''###############################       
              ,#####''   ,,,,##########,,,,          '''####'''          '####       
            ,##' ,,,,###########################,,,                        '##       
           ' ,,###''''                  '''############,,,                           
         ,,##''                                '''############,,,,        ,,,,,,###''
      ,#''                                            '''#######################'''  
     '                                                          ''''####''''         
             ,#######,   #######,   ,#######,      ##                                
            ,#'     '#,  ##    ##  ,#'     '#,    #''#        ######   ,####,        
            ##       ##  ##   ,#'  ##            #'  '#       #        #'  '#        
            ##       ##  #######   ##           ,######,      #####,   #    #        
            '#,     ,#'  ##    ##  '#,     ,#' ,#      #,         ##   #,  ,#        
             '#######'   ##     ##  '#######'  #'      '#     #####' # '####'        



                  #######################################################
                  #                        -***-                        #
                  #          Department of theory and spectroscopy      #
                  #    Directorship and core code : Frank Neese         #
                  #        Max Planck Institute fuer Kohlenforschung    #
                  #                Kaiser Wilhelm Platz 1               #
                  #                 D-45470 Muelheim/Ruhr               #
                  #                      Germany                        #
                  #                                                     #
                  #                  All rights reserved                #
                  #                        -***-                        #
                  #######################################################


                         Program Version 5.0.0 -  RELEASE  -
                                (SVN: $Rev: 19529$)
                ($Date: 2021-06-28 11:36:33 +0200 (Mo, 28 Jun 2021) $)


 With contributions from (in alphabetic order):
   Daniel Aravena         : Magnetic Suceptibility
   Michael Atanasov       : Ab Initio Ligand Field Theory (pilot matlab implementation)
   Alexander A. Auer      : GIAO ZORA, VPT2 properties, NMR spectrum
   Ute Becker             : Parallelization
   Giovanni Bistoni       : ED, misc. LED, open-shell LED, HFLD
   Martin Brehm           : Molecular dynamics
   Dmytro Bykov           : SCF Hessian
   Vijay G. Chilkuri      : MRCI spin determinant printing, contributions to CSF-ICE
   Dipayan Datta          : RHF DLPNO-CCSD density
   Achintya Kumar Dutta   : EOM-CC, STEOM-CC
   Dmitry Ganyushin       : Spin-Orbit,Spin-Spin,Magnetic field MRCI
   Miquel Garcia          : C-PCM Hessian, Gaussian charge scheme
   Yang Guo               : DLPNO-NEVPT2, F12-NEVPT2, CIM, IAO-localization
   Andreas Hansen         : Spin unrestricted coupled pair/coupled cluster methods
   Benjamin Helmich-Paris : MC-RPA, TRAH-SCF, COSX integrals
   Lee Huntington         : MR-EOM, pCC
   Robert Izsak           : Overlap fitted RIJCOSX, COSX-SCS-MP3, EOM
   Marcus Kettner         : VPT2
   Christian Kollmar      : KDIIS, OOCD, Brueckner-CCSD(T), CCSD density, CASPT2, CASPT2-K
   Simone Kossmann        : Meta GGA functionals, TD-DFT gradient, OOMP2, MP2 Hessian
   Martin Krupicka        : Initial AUTO-CI
   Lucas Lang             : DCDCAS
   Marvin Lechner         : AUTO-CI (C++ implementation), FIC-MRCC
   Dagmar Lenk            : GEPOL surface, SMD
   Dimitrios Liakos       : Extrapolation schemes; Compound Job, initial MDCI parallelization
   Dimitrios Manganas     : Further ROCIS development; embedding schemes
   Dimitrios Pantazis     : SARC Basis sets
   Anastasios Papadopoulos: AUTO-CI, single reference methods and gradients
   Taras Petrenko         : DFT Hessian,TD-DFT gradient, ASA, ECA, R-Raman, ABS, FL, XAS/XES, NRVS
   Peter Pinski           : DLPNO-MP2, DLPNO-MP2 Gradient
   Christoph Reimann      : Effective Core Potentials
   Marius Retegan         : Local ZFS, SOC
   Christoph Riplinger    : Optimizer, TS searches, QM/MM, DLPNO-CCSD(T), (RO)-DLPNO pert. Triples
   Tobias Risthaus        : Range-separated hybrids, TD-DFT gradient, RPA, STAB
   Michael Roemelt        : Original ROCIS implementation
   Masaaki Saitow         : Open-shell DLPNO-CCSD energy and density
   Barbara Sandhoefer     : DKH picture change effects
   Avijit Sen             : IP-ROCIS
   Kantharuban Sivalingam : CASSCF convergence, NEVPT2, FIC-MRCI
   Bernardo de Souza      : ESD, SOC TD-DFT
   Georgi Stoychev        : AutoAux, RI-MP2 NMR
   Willem Van den Heuvel  : Paramagnetic NMR
   Boris Wezisla          : Elementary symmetry handling
   Frank Wennmohs         : Technical directorship


 We gratefully acknowledge several colleagues who have allowed us to
 interface, adapt or use parts of their codes:
   Stefan Grimme, W. Hujo, H. Kruse, P. Pracht,  : VdW corrections, initial TS optimization,
                  C. Bannwarth, S. Ehlert          DFT functionals, gCP, sTDA/sTD-DF
   Ed Valeev, F. Pavosevic, A. Kumar             : LibInt (2-el integral package), F12 methods
   Garnet Chan, S. Sharma, J. Yang, R. Olivares  : DMRG
   Ulf Ekstrom                                   : XCFun DFT Library
   Mihaly Kallay                                 : mrcc  (arbitrary order and MRCC methods)
   Jiri Pittner, Ondrej Demel                    : Mk-CCSD
   Frank Weinhold                                : gennbo (NPA and NBO analysis)
   Christopher J. Cramer and Donald G. Truhlar   : smd solvation model
   Lars Goerigk                                  : TD-DFT with DH, B97 family of functionals
   V. Asgeirsson, H. Jonsson                     : NEB implementation
   FAccTs GmbH                                   : IRC, NEB, NEB-TS, DLPNO-Multilevel, CI-OPT
                                                   MM, QMMM, 2- and 3-layer-ONIOM, Crystal-QMMM,
                                                   LR-CPCM, SF, NACMEs, symmetry and pop. for TD-DFT,
                                                   nearIR, NL-DFT gradient (VV10), updates on ESD,
                                                   ML-optimized integration grids
   S Lehtola, MJT Oliveira, MAL Marques          : LibXC Library
   Liviu Ungur et al                             : ANISO software


 Your calculation uses the libint2 library for the computation of 2-el integrals
 For citations please refer to: http://libint.valeyev.net

 Your ORCA version has been built with support for libXC version: 5.1.0
 For citations please refer to: https://tddft.org/programs/libxc/

 This ORCA versions uses:
   CBLAS   interface :  Fast vector & matrix operations
   LAPACKE interface :  Fast linear algebra routines
   SCALAPACK package :  Parallel linear algebra routines
   Shared memory     :  Shared parallel matrices
   BLAS/LAPACK       :  OpenBLAS 0.3.15  USE64BITINT DYNAMIC_ARCH NO_AFFINITY Zen SINGLE_THREADED
        Core in use  :  Zen
   Copyright (c) 2011-2014, The OpenBLAS Project


================================================================================

----- Orbital basis set information -----
Your calculation utilizes the basis: cc-pVTZ 
       H, B-Ne : Obtained from the ccRepo (grant-hill.group.shef.ac.uk/ccrepo) Feb. 2017
                 T. H. Dunning, Jr., J. Chem. Phys. 90, 1007 (1989)
            He : Obtained from the ccRepo (grant-hill.group.shef.ac.uk/ccrepo) Feb. 2017
                 D. E. Woon, T. H. Dunning, Jr., J. Chem. Phys. 100, 2975 (1994)
  Li-Be, Na-Mg : Obtained from the ccRepo (grant-hill.group.shef.ac.uk/ccrepo) Feb. 2017
                 B. P. Prascher, D. E. Woon, K. A. Peterson, T. H. Dunning, Jr., A. K. Wilson, Theor. Chem. Acc. 128, 69 (2011)
         Al-Ar : Obtained from the ccRepo (grant-hill.group.shef.ac.uk/ccrepo) Feb. 2017
                 D. E. Woon, T. H. Dunning, Jr., J. Chem. Phys. 98, 1358 (1993)
            Ca : Obtained from the Peterson Research Group Website (tyr0.chem.wsu.edu/~kipeters) Feb. 2017
                 J. Koput, K. A. Peterson, J. Phys. Chem. 106, 9595 (2002)
         Sc-Zn : Obtained from the ccRepo (grant-hill.group.shef.ac.uk/ccrepo) Feb. 2017
                 N. B. Balabanov, K. A. Peterson, J. Chem. Phys. 123, 064107 (2005)
                 N. B. Balabanov, K. A. Peterson, J. Chem. Phys. 125, 074110 (2006)
         Ga-Kr : Obtained from the ccRepo (grant-hill.group.shef.ac.uk/ccrepo) Feb. 2017
                 A. K. Wilson, D. E. Woon, K. A. Peterson, T. H. Dunning, Jr., J. Chem. Phys. 110, 7667 (1999)
             Y : Obtained from the ccRepo (grant-hill.group.shef.ac.uk/ccrepo) Feb. 2017
                 K. A. Peterson, D. Figgen, M. Dolg, H. Stoll, J. Chem. Phys. 126, 124101 (2007)
        Ag, Au : Obtained from the Peterson Research Group Website (tyr0.chem.wsu.edu/~kipeters) Feb. 2017
                 K. A. Peterson, C. Puzzarini, Theor. Chem. Acc. 114, 283 (2005)

----- AuxC basis set information -----
Your calculation utilizes the auxiliary basis: cc-pVTZ/C 
  Obtained from the EMSL Basis Set Exchange (bse.pnl.gov) Feb. 2017
  H-He, B-F, Al-Ar, Ga-Kr : F. Weigend, A. Kohn, C. Hattig, J. Chem. Phys. 116, 3175 (2002)
             Li-Be, Na-Mg : C. Haettig, Phys. Chem. Chem. Phys. 7, 59 (2005)
                       Ne : C. Haettig, Phys. Chem. Chem. Phys. 7, 59 (2005)
                            F. Weigend, A. Kohn, C. Hattig, J. Chem. Phys. 116, 3175 (2002)
                    Sc-Zn : J. G. Hill, J. A. Platts, J. Chem. Phys. 128, 044104 (2008)

================================================================================
                                        WARNINGS
                       Please study these warnings very carefully!
================================================================================


WARNING: No MP2 level density has been requested!
         To caclulate MP2 level properties use
         %mp2 Density relaxed end
         or
         %mp2 Density unrelaxed end

WARNING: Post HF methods need fully converged wavefunctions
  ===> : Setting SCFConvForced true
         You can overwrite this default with %scf ConvForced false 


INFO   : the flag for use of the SHARK integral package has been found!

================================================================================
                                       INPUT FILE
================================================================================
NAME = CONFS/Conf290.orca
|  1> ! ri-mp2 cc-pvtz cc-pvtz/c TightSCF NoKeepInts
|  2> 
|  3> %scf
|  4>   MaxCore 4096
|  5> end
|  6> *xyz  0  1
|  7>     C       15.2261587   14.2565203   17.2068484
|  8>     C       15.3574468   15.6236599   16.5078691
|  9>     O       16.5944078   15.6600347   15.7662704
| 10>     C       17.7815047   15.7081751   16.4412248
| 11>     O       18.4904896   14.7215119   16.5248269
| 12>     C       17.9551379   16.8981389   17.3369759
| 13>     C       17.5104376   18.1430900   17.0331272
| 14>     C       16.8230127   18.5901302   15.7594433
| 15>     N       17.7514072   19.2014790   17.9135083
| 16>     C       18.5307299   19.1216793   19.0376898
| 17>     S       18.8383169   20.4468394   19.9777106
| 18>     N       19.0412768   17.8851707   19.3445719
| 19>     C       18.7114728   16.6312197   18.6403351
| 20>     C       17.9086489   15.7023381   19.5449651
| 21>     C       18.3340104   14.3795501   19.7651336
| 22>     C       17.5852430   13.5132051   20.5791492
| 23>     C       16.3987699   13.9718482   21.1764725
| 24>     C       15.9697935   15.2875741   20.9561303
| 25>     O       14.8178222   15.7300852   21.5197473
| 26>     C       16.7177301   16.1483187   20.1468514
| 27>     H       16.0221637   14.1079394   17.9459809
| 28>     H       15.2852333   13.4418930   16.4742047
| 29>     H       14.2640944   14.1812567   17.7276484
| 30>     H       14.5166501   15.7509784   15.8139016
| 31>     H       15.3086391   16.4287758   17.2522298
| 32>     H       17.1885117   18.0280315   14.8906183
| 33>     H       17.0083203   19.6498628   15.5438775
| 34>     H       15.7380883   18.4469291   15.8230802
| 35>     H       17.3936141   20.1196287   17.7018840
| 36>     H       19.5913017   17.8499755   20.1935216
| 37>     H       19.6570864   16.1318516   18.3828210
| 38>     H       19.2394815   14.0154782   19.2850266
| 39>     H       17.9216946   12.4897464   20.7360187
| 40>     H       15.8154567   13.3040154   21.8017559
| 41>     H       14.4831848   15.0211834   22.0899058
| 42>     H       16.3696617   17.1638855   19.9926742
| 43> *
| 44> 
| 45>                          ****END OF INPUT****
================================================================================

                       ****************************
                       * Single Point Calculation *
                       ****************************

---------------------------------
CARTESIAN COORDINATES (ANGSTROEM)
---------------------------------
  C     15.226159   14.256520   17.206848
  C     15.357447   15.623660   16.507869
  O     16.594408   15.660035   15.766270
  C     17.781505   15.708175   16.441225
  O     18.490490   14.721512   16.524827
  C     17.955138   16.898139   17.336976
  C     17.510438   18.143090   17.033127
  C     16.823013   18.590130   15.759443
  N     17.751407   19.201479   17.913508
  C     18.530730   19.121679   19.037690
  S     18.838317   20.446839   19.977711
  N     19.041277   17.885171   19.344572
  C     18.711473   16.631220   18.640335
  C     17.908649   15.702338   19.544965
  C     18.334010   14.379550   19.765134
  C     17.585243   13.513205   20.579149
  C     16.398770   13.971848   21.176472
  C     15.969793   15.287574   20.956130
  O     14.817822   15.730085   21.519747
  C     16.717730   16.148319   20.146851
  H     16.022164   14.107939   17.945981
  H     15.285233   13.441893   16.474205
  H     14.264094   14.181257   17.727648
  H     14.516650   15.750978   15.813902
  H     15.308639   16.428776   17.252230
  H     17.188512   18.028032   14.890618
  H     17.008320   19.649863   15.543877
  H     15.738088   18.446929   15.823080
  H     17.393614   20.119629   17.701884
  H     19.591302   17.849975   20.193522
  H     19.657086   16.131852   18.382821
  H     19.239482   14.015478   19.285027
  H     17.921695   12.489746   20.736019
  H     15.815457   13.304015   21.801756
  H     14.483185   15.021183   22.089906
  H     16.369662   17.163885   19.992674

----------------------------
CARTESIAN COORDINATES (A.U.)
----------------------------
  NO LB      ZA    FRAG     MASS         X           Y           Z
   0 C     6.0000    0    12.011   28.773270   26.940919   32.516231
   1 C     6.0000    0    12.011   29.021369   29.524438   31.195352
   2 O     8.0000    0    15.999   31.358886   29.593177   29.793933
   3 C     6.0000    0    12.011   33.602174   29.684149   31.069412
   4 O     8.0000    0    15.999   34.941961   27.819626   31.227397
   5 C     6.0000    0    12.011   33.930293   31.932855   32.762136
   6 C     6.0000    0    12.011   33.089932   34.285471   32.187946
   7 C     6.0000    0    12.011   31.790887   35.130255   29.781032
   8 N     7.0000    0    14.007   33.545298   36.285537   33.851625
   9 C     6.0000    0    12.011   35.018005   36.134737   35.976020
  10 S    16.0000    0    32.060   35.599260   38.638927   37.752402
  11 N     7.0000    0    14.007   35.982798   33.798074   36.555943
  12 C     6.0000    0    12.011   35.359559   31.428451   35.225128
  13 C     6.0000    0    12.011   33.842442   29.673119   36.934631
  14 C     6.0000    0    12.011   34.646259   27.173412   37.350690
  15 C     6.0000    0    12.011   33.231293   25.536257   38.888956
  16 C     6.0000    0    12.011   30.989184   26.402967   40.017734
  17 C     6.0000    0    12.011   30.178536   28.889328   39.601347
  18 O     8.0000    0    15.999   28.001626   29.725553   40.666429
  19 C     6.0000    0    12.011   31.591931   30.515900   38.072032
  20 H     1.0000    0     1.008   30.277501   26.660142   33.912989
  21 H     1.0000    0     1.008   28.884905   25.401496   31.131735
  22 H     1.0000    0     1.008   26.955232   26.798691   33.500400
  23 H     1.0000    0     1.008   27.432493   29.765036   29.883943
  24 H     1.0000    0     1.008   28.929135   31.045887   32.601990
  25 H     1.0000    0     1.008   32.481580   34.068042   28.139191
  26 H     1.0000    0     1.008   32.141067   37.132859   29.373672
  27 H     1.0000    0     1.008   29.740677   34.859644   29.901288
  28 H     1.0000    0     1.008   32.869167   38.020588   33.451713
  29 H     1.0000    0     1.008   37.022195   33.731565   38.160226
  30 H     1.0000    0     1.008   37.146510   30.484782   34.738497
  31 H     1.0000    0     1.008   36.357351   26.485415   36.443419
  32 H     1.0000    0     1.008   33.867095   23.602200   39.185396
  33 H     1.0000    0     1.008   29.886882   25.140946   41.199348
  34 H     1.0000    0     1.008   27.369253   28.385923   41.743872
  35 H     1.0000    0     1.008   30.934178   32.435043   37.780679

--------------------------------
INTERNAL COORDINATES (ANGSTROEM)
--------------------------------
 C      0   0   0     0.000000000000     0.00000000     0.00000000
 C      1   0   0     1.541064344185     0.00000000     0.00000000
 O      2   1   0     1.442693409369   109.18161068     0.00000000
 C      3   2   1     1.366411354674   119.46252415   289.93522038
 O      4   3   2     1.217847761334   120.73917969   104.86852724
 C      4   3   2     1.499510709066   115.06397386   300.15081147
 C      6   4   3     1.356460700022   123.81826289   322.73165476
 C      7   6   4     1.514816362030   127.44281097   357.49939275
 N      7   6   4     1.397613861080   119.82832928   181.82982678
 C      9   7   6     1.370217467338   124.80385080     6.61068699
 S     10   9   7     1.653571334305   121.70379053   176.25813025
 N     10   9   7     1.372511667810   116.58199658   356.16454725
 C     12  10   9     1.475504408428   125.15371964   353.76839052
 C     13  12  10     1.525025468027   110.62081464   248.31368359
 C     14  13  12     1.406831428075   120.42235896   233.64100900
 C     15  14  13     1.404929775957   120.62002412   181.10879785
 C     16  15  14     1.405299624608   119.66900886     0.14038406
 C     17  16  15     1.401322975188   119.87116671     0.05584300
 O     18  17  16     1.356656947182   120.05729557   179.32176971
 C     18  17  16     1.398292802683   120.34652715   359.86492071
 H      1   2   3     1.096365402786   111.35551409    63.52196489
 H      1   2   3     1.097212029382   110.56129468   303.34402898
 H      1   2   3     1.096569636101   110.55147718   183.46883334
 H      2   1   3     1.097606478766   108.93021832   119.17062054
 H      2   1   3     1.097573075342   109.83793362   237.31678997
 H      8   7   6     1.097452207692   111.30709271   327.35553169
 H      8   7   6     1.097196748195   111.93700168   208.37908805
 H      8   7   6     1.096182997404   111.20928007    87.80279605
 H      9   7   6     1.007868849786   119.76199381   182.06655724
 H     12  10   9     1.012166827086   114.89784706   181.63953079
 H     13  12  10     1.099939585387   107.78271835   130.01605850
 H     15  14  13     1.087625391738   119.82655980   359.81426883
 H     16  15  14     1.088703554591   119.89894645   179.57851268
 H     17  16  15     1.085004271128   119.86587645   179.69898072
 H     19  18  17     0.969332072431   107.39510861     4.66640915
 H     20  18  17     1.084572793933   119.14458027   180.23883072

---------------------------
INTERNAL COORDINATES (A.U.)
---------------------------
 C      0   0   0     0.000000000000     0.00000000     0.00000000
 C      1   0   0     2.912189565261     0.00000000     0.00000000
 O      2   1   0     2.726295438921   109.18161068     0.00000000
 C      3   2   1     2.582143246614   119.46252415   289.93522038
 O      4   3   2     2.301398741731   120.73917969   104.86852724
 C      4   3   2     2.833664575017   115.06397386   300.15081147
 C      6   4   3     2.563339234468   123.81826289   322.73165476
 C      7   6   4     2.862588067421   127.44281097   357.49939275
 N      7   6   4     2.641107438413   119.82832928   181.82982678
 C      9   7   6     2.589335757184   124.80385080     6.61068699
 S     10   9   7     3.124796964738   121.70379053   176.25813025
 N     10   9   7     2.593671167772   116.58199658   356.16454725
 C     12  10   9     2.788299241323   125.15371964   353.76839052
 C     13  12  10     2.881880481825   110.62081464   248.31368359
 C     14  13  12     2.658526115654   120.42235896   233.64100900
 C     15  14  13     2.654932513950   120.62002412   181.10879785
 C     16  15  14     2.655631426612   119.66900886     0.14038406
 C     17  16  15     2.648116648276   119.87116671     0.05584300
 O     18  17  16     2.563710087855   120.05729557   179.32176971
 C     18  17  16     2.642390452103   120.34652715   359.86492071
 H      1   2   3     2.071830353972   111.35551409    63.52196489
 H      1   2   3     2.073430246376   110.56129468   303.34402898
 H      1   2   3     2.072216299005   110.55147718   183.46883334
 H      2   1   3     2.074175647686   108.93021832   119.17062054
 H      2   1   3     2.074112524363   109.83793362   237.31678997
 H      8   7   6     2.073884117605   111.30709271   327.35553169
 H      8   7   6     2.073401369118   111.93700168   208.37908805
 H      8   7   6     2.071485657755   111.20928007    87.80279605
 H      9   7   6     1.904596105005   119.76199381   182.06655724
 H     12  10   9     1.912718105032   114.89784706   181.63953079
 H     13  12  10     2.078584580240   107.78271835   130.01605850
 H     15  14  13     2.055314126684   119.82655980   359.81426883
 H     16  15  14     2.057351559203   119.89894645   179.57851268
 H     17  16  15     2.050360926566   119.86587645   179.69898072
 H     19  18  17     1.831772149722   107.39510861     4.66640915
 H     20  18  17     2.049545552836   119.14458027   180.23883072

---------------------
BASIS SET INFORMATION
---------------------
There are 5 groups of distinct atoms

 Group   1 Type C   : 18s5p2d1f contracted to 4s3p2d1f pattern {8811/311/11/1}
 Group   2 Type O   : 18s5p2d1f contracted to 4s3p2d1f pattern {8811/311/11/1}
 Group   3 Type N   : 18s5p2d1f contracted to 4s3p2d1f pattern {8811/311/11/1}
 Group   4 Type S   : 41s16p2d1f contracted to 5s4p2d1f pattern {13131311/7711/11/1}
 Group   5 Type H   : 5s2p1d contracted to 3s2p1d pattern {311/11/1}

Atom   0C    basis set group =>   1
Atom   1C    basis set group =>   1
Atom   2O    basis set group =>   2
Atom   3C    basis set group =>   1
Atom   4O    basis set group =>   2
Atom   5C    basis set group =>   1
Atom   6C    basis set group =>   1
Atom   7C    basis set group =>   1
Atom   8N    basis set group =>   3
Atom   9C    basis set group =>   1
Atom  10S    basis set group =>   4
Atom  11N    basis set group =>   3
Atom  12C    basis set group =>   1
Atom  13C    basis set group =>   1
Atom  14C    basis set group =>   1
Atom  15C    basis set group =>   1
Atom  16C    basis set group =>   1
Atom  17C    basis set group =>   1
Atom  18O    basis set group =>   2
Atom  19C    basis set group =>   1
Atom  20H    basis set group =>   5
Atom  21H    basis set group =>   5
Atom  22H    basis set group =>   5
Atom  23H    basis set group =>   5
Atom  24H    basis set group =>   5
Atom  25H    basis set group =>   5
Atom  26H    basis set group =>   5
Atom  27H    basis set group =>   5
Atom  28H    basis set group =>   5
Atom  29H    basis set group =>   5
Atom  30H    basis set group =>   5
Atom  31H    basis set group =>   5
Atom  32H    basis set group =>   5
Atom  33H    basis set group =>   5
Atom  34H    basis set group =>   5
Atom  35H    basis set group =>   5
---------------------------------
AUXILIARY/C BASIS SET INFORMATION
---------------------------------
There are 5 groups of distinct atoms

 Group   1 Type C   : 8s6p5d3f1g contracted to 8s6p5d3f1g pattern {11111111/111111/11111/111/1}
 Group   2 Type O   : 8s6p5d3f1g contracted to 8s6p5d3f1g pattern {11111111/111111/11111/111/1}
 Group   3 Type N   : 8s6p5d3f1g contracted to 8s6p5d3f1g pattern {11111111/111111/11111/111/1}
 Group   4 Type S   : 10s8p7d5f2g contracted to 10s8p7d5f2g pattern {1111111111/11111111/1111111/11111/11}
 Group   5 Type H   : 4s3p2d1f contracted to 4s3p2d1f pattern {1111/111/11/1}

Atom   0C    basis set group =>   1
Atom   1C    basis set group =>   1
Atom   2O    basis set group =>   2
Atom   3C    basis set group =>   1
Atom   4O    basis set group =>   2
Atom   5C    basis set group =>   1
Atom   6C    basis set group =>   1
Atom   7C    basis set group =>   1
Atom   8N    basis set group =>   3
Atom   9C    basis set group =>   1
Atom  10S    basis set group =>   4
Atom  11N    basis set group =>   3
Atom  12C    basis set group =>   1
Atom  13C    basis set group =>   1
Atom  14C    basis set group =>   1
Atom  15C    basis set group =>   1
Atom  16C    basis set group =>   1
Atom  17C    basis set group =>   1
Atom  18O    basis set group =>   2
Atom  19C    basis set group =>   1
Atom  20H    basis set group =>   5
Atom  21H    basis set group =>   5
Atom  22H    basis set group =>   5
Atom  23H    basis set group =>   5
Atom  24H    basis set group =>   5
Atom  25H    basis set group =>   5
Atom  26H    basis set group =>   5
Atom  27H    basis set group =>   5
Atom  28H    basis set group =>   5
Atom  29H    basis set group =>   5
Atom  30H    basis set group =>   5
Atom  31H    basis set group =>   5
Atom  32H    basis set group =>   5
Atom  33H    basis set group =>   5
Atom  34H    basis set group =>   5
Atom  35H    basis set group =>   5
------------------------------------------------------------------------------
                           ORCA GTO INTEGRAL CALCULATION
------------------------------------------------------------------------------
------------------------------------------------------------------------------
                   ___                                                        
                  /   \      - P O W E R E D   B Y -                         
                 /     \                                                     
                 |  |  |   _    _      __       _____    __    __             
                 |  |  |  | |  | |    /  \     |  _  \  |  |  /  |          
                  \  \/   | |  | |   /    \    | | | |  |  | /  /          
                 / \  \   | |__| |  /  /\  \   | |_| |  |  |/  /          
                |  |  |   |  __  | /  /__\  \  |    /   |      \           
                |  |  |   | |  | | |   __   |  |    \   |  |\   \          
                \     /   | |  | | |  |  |  |  | |\  \  |  | \   \       
                 \___/    |_|  |_| |__|  |__|  |_| \__\ |__|  \__/        
                                                                              
                      - O R C A' S   B I G   F R I E N D -                    
                                      &                                       
                       - I N T E G R A L  F E E D E R -                       
                                                                              
 v1 FN, 2020, v2 2021                                                         
------------------------------------------------------------------------------


Reading SHARK input file CONFS/Conf290.orca.SHARKINP.tmp ... ok
----------------------
SHARK INTEGRAL PACKAGE
----------------------

Number of atoms                             ...     36
Number of basis functions                   ...    828
Number of shells                            ...    298
Maximum angular momentum                    ...      3
Integral batch strategy                     ... SHARK/LIBINT Hybrid
RI-J (if used) integral strategy            ... SPLIT-RIJ (Revised 2003 algorithm where possible)
Printlevel                                  ...      1
Contraction scheme used                     ... SEGMENTED contraction
Coulomb Range Separation                    ... NOT USED
Exchange Range Separation                   ... NOT USED
Finite Nucleus Model                        ... NOT USED
Auxiliary Coulomb fitting basis             ... NOT available
Auxiliary J/K fitting basis                 ... NOT available
Auxiliary Correlation fitting basis         ... AVAILABLE
   # of basis functions in Aux-C            ...   2141
   # of shells in Aux-C                     ...    629
   Maximum angular momentum in Aux-C        ...      4
Auxiliary 'external' fitting basis          ... NOT available
Integral threshold                          ...     2.500000e-11
Primitive cut-off                           ...     2.500000e-12
Primitive pair pre-selection threshold      ...     2.500000e-12

Calculating pre-screening integrals         ... done (  0.5 sec) Dimension = 298
Organizing shell pair data                  ... done (  1.3 sec)
Shell pair information
Total number of shell pairs                 ...     44551
Shell pairs after pre-screening             ...     34855
Total number of primitive shell pairs       ...    234348
Primitive shell pairs kept                  ...     99586
          la=0 lb=0:   6909 shell pairs
          la=1 lb=0:   9669 shell pairs
          la=1 lb=1:   3425 shell pairs
          la=2 lb=0:   5584 shell pairs
          la=2 lb=1:   3842 shell pairs
          la=2 lb=2:   1106 shell pairs
          la=3 lb=0:   2005 shell pairs
          la=3 lb=1:   1380 shell pairs
          la=3 lb=2:    779 shell pairs
          la=3 lb=3:    156 shell pairs

Calculating one electron integrals          ... done (  0.3 sec)
Calculating RI/C V-Matrix + Cholesky decomp.... done (  0.7 sec)
Calculating Nuclear repulsion               ... done (  0.0 sec) ENN=   1738.424051678870 Eh

SHARK setup successfully completed in   3.4 seconds

Maximum memory used throughout the entire GTOINT-calculation: 519.8 MB
-------------------------------------------------------------------------------
                                 ORCA SCF
-------------------------------------------------------------------------------

------------
SCF SETTINGS
------------
Hamiltonian:
 Ab initio Hamiltonian  Method          .... Hartree-Fock(GTOs)


General Settings:
 Integral files         IntName         .... CONFS/Conf290.orca
 Hartree-Fock type      HFTyp           .... RHF
 Total Charge           Charge          ....    0
 Multiplicity           Mult            ....    1
 Number of Electrons    NEL             ....  154
 Basis Dimension        Dim             ....  828
 Nuclear Repulsion      ENuc            ....   1738.4240516789 Eh

Convergence Acceleration:
 DIIS                   CNVDIIS         .... on
   Start iteration      DIISMaxIt       ....    12
   Startup error        DIISStart       ....  0.200000
   # of expansion vecs  DIISMaxEq       ....     5
   Bias factor          DIISBfac        ....   1.050
   Max. coefficient     DIISMaxC        ....  10.000
 Trust-Rad. Augm. Hess. CNVTRAH         .... auto
   Auto Start mean grad. ratio tolernc. ....  1.125000
   Auto Start start iteration           ....    20
   Auto Start num. interpolation iter.  ....    10
   Max. Number of Micro iterations      ....    16
   Max. Number of Macro iterations      .... Maxiter - #DIIS iter
   Number of Davidson start vectors     ....     2
   Converg. threshold I  (grad. norm)   ....   1.000e-05
   Converg. threshold II (energy diff.) ....   1.000e-08
   Grad. Scal. Fac. for Micro threshold ....   0.100
   Minimum threshold for Micro iter.    ....   0.010
   NR start threshold (gradient norm)   ....   0.001
   Initial trust radius                 ....   0.400
   Minimum AH scaling param. (alpha)    ....   1.000
   Maximum AH scaling param. (alpha)    .... 1000.000
   Orbital update algorithm             .... Taylor
   White noise on init. David. guess    .... on
   Maximum white noise                  ....   0.010
   Quad. conv. algorithm                .... NR
 SOSCF                  CNVSOSCF        .... on
   Start iteration      SOSCFMaxIt      ....   150
   Startup grad/error   SOSCFStart      ....  0.003300
 Level Shifting         CNVShift        .... on
   Level shift para.    LevelShift      ....    0.2500
   Turn off err/grad.   ShiftErr        ....    0.0010
 Zerner damping         CNVZerner       .... off
 Static damping         CNVDamp         .... on
   Fraction old density DampFac         ....    0.7000
   Max. Damping (<1)    DampMax         ....    0.9800
   Min. Damping (>=0)   DampMin         ....    0.0000
   Turn off err/grad.   DampErr         ....    0.1000
 Fernandez-Rico         CNVRico         .... off

SCF Procedure:
 Maximum # iterations   MaxIter         ....   125
 SCF integral mode      SCFMode         .... Direct
   Integral package                     .... SHARK and LIBINT hybrid scheme
 Reset frequency        DirectResetFreq ....    20
 Integral Threshold     Thresh          ....  2.500e-11 Eh
 Primitive CutOff       TCut            ....  2.500e-12 Eh

Convergence Tolerance:
 Convergence Check Mode ConvCheckMode   .... Total+1el-Energy
 Convergence forced     ConvForced      .... 1
 Energy Change          TolE            ....  1.000e-08 Eh
 1-El. energy change                    ....  1.000e-05 Eh
 Orbital Gradient       TolG            ....  1.000e-05
 Orbital Rotation angle TolX            ....  1.000e-05
 DIIS Error             TolErr          ....  5.000e-07


Diagonalization of the overlap matrix:
Smallest eigenvalue                        ... 3.362e-05
Time for diagonalization                   ...    0.108 sec
Threshold for overlap eigenvalues          ... 1.000e-08
Number of eigenvalues below threshold      ... 0
Time for construction of square roots      ...    0.085 sec
Total time needed                          ...    0.194 sec

Time for model grid setup =    1.527 sec

------------------------------
INITIAL GUESS: MODEL POTENTIAL
------------------------------
Loading Hartree-Fock densities                     ... done
Calculating cut-offs                               ... done
Initializing the effective Hamiltonian             ... done
Setting up the integral package (SHARK)            ... done
Starting the Coulomb interaction                   ... done (   4.1 sec)
Reading the grid                                   ... done
Mapping shells                                     ... done
Starting the XC term evaluation                    ... done (   1.2 sec)
Transforming the Hamiltonian                       ... done (   0.1 sec)
Diagonalizing the Hamiltonian                      ... done (   0.1 sec)
Back transforming the eigenvectors                 ... done (   0.0 sec)
Now organizing SCF variables                       ... done
                      ------------------
                      INITIAL GUESS DONE (   7.3 sec)
                      ------------------
--------------
SCF ITERATIONS
--------------
ITER       Energy         Delta-E        Max-DP      RMS-DP      [F,P]     Damp
               ***  Starting incremental Fock matrix formation  ***
  0  -1270.0022021392   0.000000000000 0.04930153  0.00044031  0.3102432 0.7000
  1  -1270.2689542756  -0.266752136377 0.03607497  0.00035600  0.1823027 0.7000
                               ***Turning on DIIS***
  2  -1270.4351106082  -0.166156332673 0.02583584  0.00023747  0.1098093 0.7000
  3  -1272.5686212327  -2.133510624416 0.06313856  0.00051276  0.0829017 0.0000
  4  -1270.7433826327   1.825238600005 0.01265958  0.00010390  0.0066992 0.0000
  5  -1270.8025262164  -0.059143583715 0.00638379  0.00005562  0.0038015 0.0000
                      *** Initiating the SOSCF procedure ***
                           *** Shutting down DIIS ***
                      *** Re-Reading the Fockian *** 
                      *** Removing any level shift *** 
ITER      Energy       Delta-E        Grad      Rot      Max-DP    RMS-DP
  6  -1270.78164828   0.0208779344  0.001923  0.001923  0.003249  0.000028
               *** Restarting incremental Fock matrix formation ***
  7  -1270.79618930  -0.0145410189  0.001100  0.002822  0.001907  0.000018
  8  -1270.79624144  -0.0000521370  0.000509  0.003427  0.002213  0.000020
  9  -1270.79626210  -0.0000206597  0.000169  0.000336  0.000376  0.000005
 10  -1270.79626483  -0.0000027291  0.000048  0.000130  0.000129  0.000001
 11  -1270.79626510  -0.0000002701  0.000024  0.000143  0.000086  0.000001
 12  -1270.79626517  -0.0000000751  0.000011  0.000041  0.000029  0.000000
 13  -1270.79626518  -0.0000000074  0.000004  0.000008  0.000006  0.000000
                  ***Gradient check signals convergence***
              ***Rediagonalizing the Fockian in SOSCF/NRSCF***

               *****************************************************
               *                     SUCCESS                       *
               *           SCF CONVERGED AFTER  14 CYCLES          *
               *****************************************************


----------------
TOTAL SCF ENERGY
----------------

Total Energy       :        -1270.79626518 Eh          -34580.12440 eV

Components:
Nuclear Repulsion  :         1738.42405168 Eh           47304.92338 eV
Electronic Energy  :        -3009.22031686 Eh          -81885.04778 eV
One Electron Energy:        -5197.71787400 Eh         -141437.09387 eV
Two Electron Energy:         2188.49755715 Eh           59552.04610 eV

Virial components:
Potential Energy   :        -2539.79931296 Eh          -69111.45286 eV
Kinetic Energy     :         1269.00304778 Eh           34531.32847 eV
Virial Ratio       :            2.00141309


---------------
SCF CONVERGENCE
---------------

  Last Energy change         ...    2.2633e-09  Tolerance :   1.0000e-08
  Last MAX-Density change    ...    3.4338e-06  Tolerance :   1.0000e-07
  Last RMS-Density change    ...    3.7422e-08  Tolerance :   5.0000e-09
  Last Orbital Gradient      ...    1.2098e-06  Tolerance :   1.0000e-05
  Last Orbital Rotation      ...    3.0495e-06  Tolerance :   1.0000e-05

             **** THE GBW FILE WAS UPDATED (CONFS/Conf290.orca.gbw) ****
             **** DENSITY CONFS/Conf290.orca.scfp WAS UPDATED ****
             **** ENERGY FILE WAS UPDATED (CONFS/Conf290.orca.en.tmp) ****
             **** THE GBW FILE WAS UPDATED (CONFS/Conf290.orca.gbw) ****
             **** DENSITY CONFS/Conf290.orca.scfp WAS UPDATED ****
----------------
ORBITAL ENERGIES
----------------

  NO   OCC          E(Eh)            E(eV) 
   0   2.0000     -91.891005     -2500.4814 
   1   2.0000     -20.599095      -560.5299 
   2   2.0000     -20.588040      -560.2291 
   3   2.0000     -20.553679      -559.2940 
   4   2.0000     -15.630817      -425.3361 
   5   2.0000     -15.610633      -424.7869 
   6   2.0000     -11.395099      -310.0764 
   7   2.0000     -11.386763      -309.8496 
   8   2.0000     -11.336929      -308.4935 
   9   2.0000     -11.315511      -307.9107 
  10   2.0000     -11.310653      -307.7785 
  11   2.0000     -11.304711      -307.6168 
  12   2.0000     -11.264615      -306.5258 
  13   2.0000     -11.262496      -306.4681 
  14   2.0000     -11.260857      -306.4235 
  15   2.0000     -11.255437      -306.2760 
  16   2.0000     -11.244983      -305.9915 
  17   2.0000     -11.241130      -305.8867 
  18   2.0000     -11.238043      -305.8027 
  19   2.0000     -11.222319      -305.3748 
  20   2.0000      -8.896082      -242.0747 
  21   2.0000      -6.577659      -178.9872 
  22   2.0000      -6.575647      -178.9325 
  23   2.0000      -6.575062      -178.9165 
  24   2.0000      -1.448458       -39.4146 
  25   2.0000      -1.418852       -38.6089 
  26   2.0000      -1.358426       -36.9647 
  27   2.0000      -1.342322       -36.5264 
  28   2.0000      -1.240588       -33.7581 
  29   2.0000      -1.159874       -31.5618 
  30   2.0000      -1.124011       -30.5859 
  31   2.0000      -1.047085       -28.4926 
  32   2.0000      -1.031523       -28.0692 
  33   2.0000      -1.017215       -27.6798 
  34   2.0000      -1.003638       -27.3104 
  35   2.0000      -0.988397       -26.8957 
  36   2.0000      -0.926767       -25.2186 
  37   2.0000      -0.887079       -24.1386 
  38   2.0000      -0.853814       -23.2335 
  39   2.0000      -0.841912       -22.9096 
  40   2.0000      -0.835666       -22.7396 
  41   2.0000      -0.831207       -22.6183 
  42   2.0000      -0.747201       -20.3324 
  43   2.0000      -0.734951       -19.9990 
  44   2.0000      -0.730382       -19.8747 
  45   2.0000      -0.697215       -18.9722 
  46   2.0000      -0.687407       -18.7053 
  47   2.0000      -0.680318       -18.5124 
  48   2.0000      -0.676685       -18.4135 
  49   2.0000      -0.664629       -18.0855 
  50   2.0000      -0.653164       -17.7735 
  51   2.0000      -0.649130       -17.6637 
  52   2.0000      -0.639599       -17.4044 
  53   2.0000      -0.614063       -16.7095 
  54   2.0000      -0.608222       -16.5506 
  55   2.0000      -0.604944       -16.4614 
  56   2.0000      -0.600800       -16.3486 
  57   2.0000      -0.581562       -15.8251 
  58   2.0000      -0.576649       -15.6914 
  59   2.0000      -0.568957       -15.4821 
  60   2.0000      -0.556628       -15.1466 
  61   2.0000      -0.553623       -15.0649 
  62   2.0000      -0.540182       -14.6991 
  63   2.0000      -0.528251       -14.3744 
  64   2.0000      -0.520968       -14.1763 
  65   2.0000      -0.513158       -13.9637 
  66   2.0000      -0.502027       -13.6609 
  67   2.0000      -0.491212       -13.3666 
  68   2.0000      -0.487238       -13.2584 
  69   2.0000      -0.468699       -12.7539 
  70   2.0000      -0.459823       -12.5124 
  71   2.0000      -0.448016       -12.1911 
  72   2.0000      -0.357803        -9.7363 
  73   2.0000      -0.351482        -9.5643 
  74   2.0000      -0.330375        -8.9900 
  75   2.0000      -0.323055        -8.7908 
  76   2.0000      -0.318854        -8.6764 
  77   0.0000       0.071621         1.9489 
  78   0.0000       0.102893         2.7998 
  79   0.0000       0.117659         3.2017 
  80   0.0000       0.128708         3.5023 
  81   0.0000       0.137066         3.7297 
  82   0.0000       0.145117         3.9488 
  83   0.0000       0.150373         4.0918 
  84   0.0000       0.156125         4.2484 
  85   0.0000       0.159078         4.3287 
  86   0.0000       0.168273         4.5789 
  87   0.0000       0.171372         4.6633 
  88   0.0000       0.189955         5.1689 
  89   0.0000       0.199217         5.4210 
  90   0.0000       0.203379         5.5342 
  91   0.0000       0.208177         5.6648 
  92   0.0000       0.209817         5.7094 
  93   0.0000       0.218159         5.9364 
  94   0.0000       0.230657         6.2765 
  95   0.0000       0.237922         6.4742 
  96   0.0000       0.243769         6.6333 
  97   0.0000       0.253362         6.8943 
  98   0.0000       0.262721         7.1490 
  99   0.0000       0.277574         7.5532 
 100   0.0000       0.289476         7.8770 
 101   0.0000       0.301979         8.2173 
 102   0.0000       0.309022         8.4089 
 103   0.0000       0.317526         8.6403 
 104   0.0000       0.324671         8.8347 
 105   0.0000       0.332096         9.0368 
 106   0.0000       0.334770         9.1095 
 107   0.0000       0.343398         9.3443 
 108   0.0000       0.350243         9.5306 
 109   0.0000       0.366209         9.9650 
 110   0.0000       0.370689        10.0870 
 111   0.0000       0.374737        10.1971 
 112   0.0000       0.380163        10.3448 
 113   0.0000       0.385228        10.4826 
 114   0.0000       0.403167        10.9707 
 115   0.0000       0.414295        11.2735 
 116   0.0000       0.419670        11.4198 
 117   0.0000       0.425812        11.5869 
 118   0.0000       0.438649        11.9363 
 119   0.0000       0.441552        12.0152 
 120   0.0000       0.446772        12.1573 
 121   0.0000       0.450791        12.2666 
 122   0.0000       0.454209        12.3597 
 123   0.0000       0.461032        12.5453 
 124   0.0000       0.468634        12.7522 
 125   0.0000       0.473028        12.8717 
 126   0.0000       0.478448        13.0192 
 127   0.0000       0.488186        13.2842 
 128   0.0000       0.491435        13.3726 
 129   0.0000       0.498852        13.5744 
 130   0.0000       0.504101        13.7173 
 131   0.0000       0.512159        13.9366 
 132   0.0000       0.515990        14.0408 
 133   0.0000       0.520772        14.1709 
 134   0.0000       0.528129        14.3711 
 135   0.0000       0.530085        14.4244 
 136   0.0000       0.540046        14.6954 
 137   0.0000       0.545193        14.8355 
 138   0.0000       0.553113        15.0510 
 139   0.0000       0.554853        15.0983 
 140   0.0000       0.558770        15.2049 
 141   0.0000       0.562513        15.3068 
 142   0.0000       0.564489        15.3605 
 143   0.0000       0.568004        15.4562 
 144   0.0000       0.572702        15.5840 
 145   0.0000       0.586744        15.9661 
 146   0.0000       0.587786        15.9945 
 147   0.0000       0.593584        16.1522 
 148   0.0000       0.596609        16.2345 
 149   0.0000       0.597773        16.2662 
 150   0.0000       0.608253        16.5514 
 151   0.0000       0.611292        16.6341 
 152   0.0000       0.612318        16.6620 
 153   0.0000       0.618143        16.8205 
 154   0.0000       0.623692        16.9715 
 155   0.0000       0.630152        17.1473 
 156   0.0000       0.632332        17.2066 
 157   0.0000       0.635653        17.2970 
 158   0.0000       0.641124        17.4459 
 159   0.0000       0.642432        17.4815 
 160   0.0000       0.653561        17.7843 
 161   0.0000       0.655710        17.8428 
 162   0.0000       0.661690        18.0055 
 163   0.0000       0.670235        18.2380 
 164   0.0000       0.674523        18.3547 
 165   0.0000       0.678640        18.4667 
 166   0.0000       0.684963        18.6388 
 167   0.0000       0.687652        18.7120 
 168   0.0000       0.691339        18.8123 
 169   0.0000       0.699159        19.0251 
 170   0.0000       0.707720        19.2580 
 171   0.0000       0.713459        19.4142 
 172   0.0000       0.721225        19.6255 
 173   0.0000       0.723676        19.6922 
 174   0.0000       0.736004        20.0277 
 175   0.0000       0.741246        20.1703 
 176   0.0000       0.743798        20.2398 
 177   0.0000       0.747402        20.3378 
 178   0.0000       0.749439        20.3933 
 179   0.0000       0.761212        20.7136 
 180   0.0000       0.769682        20.9441 
 181   0.0000       0.778209        21.1762 
 182   0.0000       0.785797        21.3826 
 183   0.0000       0.793389        21.5892 
 184   0.0000       0.802318        21.8322 
 185   0.0000       0.808879        22.0107 
 186   0.0000       0.815503        22.1910 
 187   0.0000       0.821183        22.3455 
 188   0.0000       0.833997        22.6942 
 189   0.0000       0.835770        22.7425 
 190   0.0000       0.847718        23.0676 
 191   0.0000       0.849054        23.1039 
 192   0.0000       0.861413        23.4402 
 193   0.0000       0.867478        23.6053 
 194   0.0000       0.876598        23.8534 
 195   0.0000       0.885695        24.1010 
 196   0.0000       0.892794        24.2942 
 197   0.0000       0.899299        24.4712 
 198   0.0000       0.902091        24.5471 
 199   0.0000       0.915104        24.9013 
 200   0.0000       0.921199        25.0671 
 201   0.0000       0.929548        25.2943 
 202   0.0000       0.935838        25.4654 
 203   0.0000       0.948290        25.8043 
 204   0.0000       0.953934        25.9579 
 205   0.0000       0.957928        26.0665 
 206   0.0000       0.963022        26.2052 
 207   0.0000       0.969046        26.3691 
 208   0.0000       0.969487        26.3811 
 209   0.0000       0.975966        26.5574 
 210   0.0000       0.986624        26.8474 
 211   0.0000       0.990621        26.9562 
 212   0.0000       1.000278        27.2189 
 213   0.0000       1.014652        27.6101 
 214   0.0000       1.016938        27.6723 
 215   0.0000       1.022529        27.8244 
 216   0.0000       1.027332        27.9551 
 217   0.0000       1.035389        28.1744 
 218   0.0000       1.039026        28.2733 
 219   0.0000       1.047255        28.4973 
 220   0.0000       1.055949        28.7338 
 221   0.0000       1.071903        29.1680 
 222   0.0000       1.074546        29.2399 
 223   0.0000       1.079124        29.3645 
 224   0.0000       1.089768        29.6541 
 225   0.0000       1.091568        29.7031 
 226   0.0000       1.103363        30.0240 
 227   0.0000       1.118349        30.4318 
 228   0.0000       1.125874        30.6366 
 229   0.0000       1.128500        30.7081 
 230   0.0000       1.130238        30.7553 
 231   0.0000       1.131502        30.7897 
 232   0.0000       1.149847        31.2889 
 233   0.0000       1.162611        31.6363 
 234   0.0000       1.166142        31.7323 
 235   0.0000       1.172463        31.9043 
 236   0.0000       1.174621        31.9630 
 237   0.0000       1.178811        32.0771 
 238   0.0000       1.181765        32.1575 
 239   0.0000       1.193376        32.4734 
 240   0.0000       1.203681        32.7538 
 241   0.0000       1.213061        33.0091 
 242   0.0000       1.219418        33.1820 
 243   0.0000       1.224097        33.3094 
 244   0.0000       1.224843        33.3297 
 245   0.0000       1.230868        33.4936 
 246   0.0000       1.234692        33.5977 
 247   0.0000       1.244035        33.8519 
 248   0.0000       1.253353        34.1055 
 249   0.0000       1.261827        34.3360 
 250   0.0000       1.268719        34.5236 
 251   0.0000       1.276124        34.7251 
 252   0.0000       1.285673        34.9850 
 253   0.0000       1.290408        35.1138 
 254   0.0000       1.293168        35.1889 
 255   0.0000       1.311929        35.6994 
 256   0.0000       1.318488        35.8779 
 257   0.0000       1.322944        35.9991 
 258   0.0000       1.329242        36.1705 
 259   0.0000       1.341359        36.5002 
 260   0.0000       1.348374        36.6911 
 261   0.0000       1.358458        36.9655 
 262   0.0000       1.359684        36.9989 
 263   0.0000       1.376303        37.4511 
 264   0.0000       1.381661        37.5969 
 265   0.0000       1.400132        38.0995 
 266   0.0000       1.403961        38.2037 
 267   0.0000       1.410074        38.3701 
 268   0.0000       1.412851        38.4456 
 269   0.0000       1.421625        38.6844 
 270   0.0000       1.422763        38.7153 
 271   0.0000       1.433543        39.0087 
 272   0.0000       1.438277        39.1375 
 273   0.0000       1.450645        39.4740 
 274   0.0000       1.456546        39.6346 
 275   0.0000       1.466943        39.9175 
 276   0.0000       1.469155        39.9777 
 277   0.0000       1.477616        40.2080 
 278   0.0000       1.491124        40.5755 
 279   0.0000       1.492105        40.6022 
 280   0.0000       1.501627        40.8613 
 281   0.0000       1.507449        41.0198 
 282   0.0000       1.510407        41.1003 
 283   0.0000       1.514027        41.1988 
 284   0.0000       1.528330        41.5880 
 285   0.0000       1.534978        41.7689 
 286   0.0000       1.540372        41.9157 
 287   0.0000       1.543801        42.0090 
 288   0.0000       1.557035        42.3691 
 289   0.0000       1.561171        42.4816 
 290   0.0000       1.568566        42.6828 
 291   0.0000       1.583197        43.0810 
 292   0.0000       1.584642        43.1203 
 293   0.0000       1.592439        43.3325 
 294   0.0000       1.600815        43.5604 
 295   0.0000       1.608555        43.7710 
 296   0.0000       1.610198        43.8157 
 297   0.0000       1.625766        44.2393 
 298   0.0000       1.634573        44.4790 
 299   0.0000       1.636711        44.5372 
 300   0.0000       1.639871        44.6232 
 301   0.0000       1.653042        44.9816 
 302   0.0000       1.657726        45.1090 
 303   0.0000       1.669675        45.4342 
 304   0.0000       1.680509        45.7290 
 305   0.0000       1.684634        45.8412 
 306   0.0000       1.685931        45.8765 
 307   0.0000       1.695231        46.1296 
 308   0.0000       1.703686        46.3597 
 309   0.0000       1.711337        46.5678 
 310   0.0000       1.730815        47.0979 
 311   0.0000       1.737915        47.2911 
 312   0.0000       1.740262        47.3549 
 313   0.0000       1.742226        47.4084 
 314   0.0000       1.764313        48.0094 
 315   0.0000       1.768709        48.1290 
 316   0.0000       1.778719        48.4014 
 317   0.0000       1.785099        48.5750 
 318   0.0000       1.796246        48.8783 
 319   0.0000       1.805373        49.1267 
 320   0.0000       1.809192        49.2306 
 321   0.0000       1.823439        49.6183 
 322   0.0000       1.842002        50.1234 
 323   0.0000       1.847170        50.2641 
 324   0.0000       1.858463        50.5713 
 325   0.0000       1.865952        50.7751 
 326   0.0000       1.883098        51.2417 
 327   0.0000       1.902798        51.7778 
 328   0.0000       1.912524        52.0424 
 329   0.0000       1.920178        52.2507 
 330   0.0000       1.930576        52.5336 
 331   0.0000       1.937757        52.7290 
 332   0.0000       1.948998        53.0349 
 333   0.0000       1.972525        53.6751 
 334   0.0000       1.982037        53.9340 
 335   0.0000       1.988156        54.1005 
 336   0.0000       2.005388        54.5694 
 337   0.0000       2.012941        54.7749 
 338   0.0000       2.020828        54.9895 
 339   0.0000       2.024368        55.0859 
 340   0.0000       2.031073        55.2683 
 341   0.0000       2.045664        55.6654 
 342   0.0000       2.054125        55.8956 
 343   0.0000       2.074339        56.4456 
 344   0.0000       2.091629        56.9161 
 345   0.0000       2.104970        57.2791 
 346   0.0000       2.129394        57.9437 
 347   0.0000       2.134061        58.0708 
 348   0.0000       2.155568        58.6560 
 349   0.0000       2.161130        58.8073 
 350   0.0000       2.176774        59.2330 
 351   0.0000       2.200080        59.8672 
 352   0.0000       2.214926        60.2712 
 353   0.0000       2.229683        60.6728 
 354   0.0000       2.255843        61.3846 
 355   0.0000       2.266163        61.6654 
 356   0.0000       2.274412        61.8899 
 357   0.0000       2.288413        62.2709 
 358   0.0000       2.297860        62.5280 
 359   0.0000       2.314224        62.9732 
 360   0.0000       2.317861        63.0722 
 361   0.0000       2.338504        63.6339 
 362   0.0000       2.358100        64.1672 
 363   0.0000       2.362750        64.2937 
 364   0.0000       2.372870        64.5691 
 365   0.0000       2.385208        64.9048 
 366   0.0000       2.398922        65.2780 
 367   0.0000       2.401356        65.3442 
 368   0.0000       2.420174        65.8563 
 369   0.0000       2.436482        66.3000 
 370   0.0000       2.448868        66.6371 
 371   0.0000       2.474132        67.3245 
 372   0.0000       2.477893        67.4269 
 373   0.0000       2.484675        67.6114 
 374   0.0000       2.508387        68.2567 
 375   0.0000       2.511987        68.3547 
 376   0.0000       2.527089        68.7656 
 377   0.0000       2.539183        69.0947 
 378   0.0000       2.555915        69.5500 
 379   0.0000       2.573439        70.0268 
 380   0.0000       2.577975        70.1503 
 381   0.0000       2.590842        70.5004 
 382   0.0000       2.599868        70.7460 
 383   0.0000       2.610541        71.0364 
 384   0.0000       2.621384        71.3315 
 385   0.0000       2.626832        71.4797 
 386   0.0000       2.633911        71.6724 
 387   0.0000       2.647178        72.0334 
 388   0.0000       2.662925        72.4619 
 389   0.0000       2.676791        72.8392 
 390   0.0000       2.693585        73.2962 
 391   0.0000       2.706175        73.6388 
 392   0.0000       2.716635        73.9234 
 393   0.0000       2.725150        74.1551 
 394   0.0000       2.731126        74.3177 
 395   0.0000       2.740900        74.5837 
 396   0.0000       2.758752        75.0695 
 397   0.0000       2.761696        75.1496 
 398   0.0000       2.766003        75.2668 
 399   0.0000       2.776468        75.5515 
 400   0.0000       2.789855        75.9158 
 401   0.0000       2.812052        76.5198 
 402   0.0000       2.820488        76.7494 
 403   0.0000       2.824616        76.8617 
 404   0.0000       2.829235        76.9874 
 405   0.0000       2.834458        77.1295 
 406   0.0000       2.838405        77.2369 
 407   0.0000       2.849124        77.5286 
 408   0.0000       2.859225        77.8035 
 409   0.0000       2.872635        78.1684 
 410   0.0000       2.885947        78.5306 
 411   0.0000       2.892996        78.7224 
 412   0.0000       2.904019        79.0224 
 413   0.0000       2.906608        79.0928 
 414   0.0000       2.916504        79.3621 
 415   0.0000       2.931847        79.7796 
 416   0.0000       2.946476        80.1777 
 417   0.0000       2.950618        80.2904 
 418   0.0000       2.961724        80.5926 
 419   0.0000       2.967308        80.7445 
 420   0.0000       2.975906        80.9785 
 421   0.0000       2.981942        81.1428 
 422   0.0000       2.991596        81.4055 
 423   0.0000       2.995520        81.5122 
 424   0.0000       3.004779        81.7642 
 425   0.0000       3.009734        81.8990 
 426   0.0000       3.020466        82.1911 
 427   0.0000       3.025413        82.3257 
 428   0.0000       3.028363        82.4059 
 429   0.0000       3.036687        82.6325 
 430   0.0000       3.045855        82.8819 
 431   0.0000       3.049104        82.9703 
 432   0.0000       3.067550        83.4723 
 433   0.0000       3.078018        83.7571 
 434   0.0000       3.083501        83.9063 
 435   0.0000       3.091691        84.1292 
 436   0.0000       3.094859        84.2154 
 437   0.0000       3.099264        84.3353 
 438   0.0000       3.108526        84.5873 
 439   0.0000       3.114519        84.7504 
 440   0.0000       3.123498        84.9947 
 441   0.0000       3.127400        85.1009 
 442   0.0000       3.136574        85.3505 
 443   0.0000       3.138902        85.4139 
 444   0.0000       3.151874        85.7669 
 445   0.0000       3.160188        85.9931 
 446   0.0000       3.168125        86.2091 
 447   0.0000       3.175509        86.4100 
 448   0.0000       3.191009        86.8318 
 449   0.0000       3.192435        86.8706 
 450   0.0000       3.198652        87.0397 
 451   0.0000       3.205831        87.2351 
 452   0.0000       3.215592        87.5007 
 453   0.0000       3.221836        87.6706 
 454   0.0000       3.230764        87.9136 
 455   0.0000       3.232235        87.9536 
 456   0.0000       3.239279        88.1453 
 457   0.0000       3.242379        88.2296 
 458   0.0000       3.253911        88.5434 
 459   0.0000       3.268494        88.9403 
 460   0.0000       3.276536        89.1591 
 461   0.0000       3.279254        89.2330 
 462   0.0000       3.287376        89.4541 
 463   0.0000       3.293906        89.6317 
 464   0.0000       3.300676        89.8160 
 465   0.0000       3.310632        90.0869 
 466   0.0000       3.317561        90.2754 
 467   0.0000       3.321247        90.3757 
 468   0.0000       3.328379        90.5698 
 469   0.0000       3.330887        90.6381 
 470   0.0000       3.339255        90.8657 
 471   0.0000       3.344755        91.0154 
 472   0.0000       3.349233        91.1373 
 473   0.0000       3.356130        91.3249 
 474   0.0000       3.368354        91.6576 
 475   0.0000       3.369062        91.6768 
 476   0.0000       3.375879        91.8623 
 477   0.0000       3.378131        91.9236 
 478   0.0000       3.381851        92.0249 
 479   0.0000       3.387344        92.1743 
 480   0.0000       3.390194        92.2519 
 481   0.0000       3.401800        92.5677 
 482   0.0000       3.404633        92.6448 
 483   0.0000       3.412579        92.8610 
 484   0.0000       3.418942        93.0341 
 485   0.0000       3.424830        93.1943 
 486   0.0000       3.430166        93.3396 
 487   0.0000       3.440466        93.6198 
 488   0.0000       3.443717        93.7083 
 489   0.0000       3.446475        93.7834 
 490   0.0000       3.452837        93.9565 
 491   0.0000       3.457593        94.0859 
 492   0.0000       3.468012        94.3694 
 493   0.0000       3.470238        94.4300 
 494   0.0000       3.476105        94.5896 
 495   0.0000       3.484909        94.8292 
 496   0.0000       3.495356        95.1135 
 497   0.0000       3.500064        95.2416 
 498   0.0000       3.511003        95.5392 
 499   0.0000       3.513643        95.6111 
 500   0.0000       3.524138        95.8967 
 501   0.0000       3.530742        96.0764 
 502   0.0000       3.537092        96.2492 
 503   0.0000       3.543068        96.4118 
 504   0.0000       3.553259        96.6891 
 505   0.0000       3.560086        96.8749 
 506   0.0000       3.570860        97.1680 
 507   0.0000       3.576240        97.3144 
 508   0.0000       3.577656        97.3530 
 509   0.0000       3.581961        97.4701 
 510   0.0000       3.603285        98.0504 
 511   0.0000       3.608266        98.1859 
 512   0.0000       3.617457        98.4360 
 513   0.0000       3.621471        98.5452 
 514   0.0000       3.623170        98.5915 
 515   0.0000       3.629376        98.7603 
 516   0.0000       3.630909        98.8021 
 517   0.0000       3.645057        99.1871 
 518   0.0000       3.649563        99.3097 
 519   0.0000       3.653945        99.4289 
 520   0.0000       3.659276        99.5740 
 521   0.0000       3.663679        99.6938 
 522   0.0000       3.669624        99.8556 
 523   0.0000       3.679340       100.1199 
 524   0.0000       3.683005       100.2197 
 525   0.0000       3.691244       100.4438 
 526   0.0000       3.692963       100.4906 
 527   0.0000       3.701579       100.7251 
 528   0.0000       3.703921       100.7888 
 529   0.0000       3.708771       100.9208 
 530   0.0000       3.725042       101.3635 
 531   0.0000       3.730195       101.5038 
 532   0.0000       3.737921       101.7140 
 533   0.0000       3.744800       101.9012 
 534   0.0000       3.746576       101.9495 
 535   0.0000       3.757456       102.2456 
 536   0.0000       3.759898       102.3120 
 537   0.0000       3.771464       102.6268 
 538   0.0000       3.771934       102.6395 
 539   0.0000       3.780421       102.8705 
 540   0.0000       3.785529       103.0095 
 541   0.0000       3.796772       103.3154 
 542   0.0000       3.805429       103.5510 
 543   0.0000       3.810208       103.6810 
 544   0.0000       3.812536       103.7444 
 545   0.0000       3.825864       104.1071 
 546   0.0000       3.831116       104.2500 
 547   0.0000       3.835355       104.3653 
 548   0.0000       3.843198       104.5787 
 549   0.0000       3.852810       104.8403 
 550   0.0000       3.858160       104.9859 
 551   0.0000       3.868135       105.2573 
 552   0.0000       3.873964       105.4159 
 553   0.0000       3.886538       105.7581 
 554   0.0000       3.894022       105.9617 
 555   0.0000       3.902080       106.1810 
 556   0.0000       3.906464       106.3003 
 557   0.0000       3.924180       106.7824 
 558   0.0000       3.931430       106.9797 
 559   0.0000       3.937433       107.1430 
 560   0.0000       3.948452       107.4428 
 561   0.0000       3.953095       107.5692 
 562   0.0000       3.958454       107.7150 
 563   0.0000       3.972580       108.0994 
 564   0.0000       3.978008       108.2471 
 565   0.0000       3.982076       108.3578 
 566   0.0000       3.990588       108.5894 
 567   0.0000       3.998794       108.8127 
 568   0.0000       4.005395       108.9923 
 569   0.0000       4.021220       109.4229 
 570   0.0000       4.032730       109.7362 
 571   0.0000       4.044677       110.0612 
 572   0.0000       4.047573       110.1401 
 573   0.0000       4.060846       110.5012 
 574   0.0000       4.063335       110.5690 
 575   0.0000       4.074230       110.8654 
 576   0.0000       4.083041       111.1052 
 577   0.0000       4.090945       111.3203 
 578   0.0000       4.095890       111.4548 
 579   0.0000       4.106760       111.7506 
 580   0.0000       4.115781       111.9961 
 581   0.0000       4.122717       112.1848 
 582   0.0000       4.129779       112.3770 
 583   0.0000       4.144314       112.7725 
 584   0.0000       4.146728       112.8382 
 585   0.0000       4.155485       113.0765 
 586   0.0000       4.157747       113.1380 
 587   0.0000       4.164099       113.3109 
 588   0.0000       4.178049       113.6905 
 589   0.0000       4.180644       113.7611 
 590   0.0000       4.185026       113.8804 
 591   0.0000       4.187379       113.9444 
 592   0.0000       4.196843       114.2019 
 593   0.0000       4.198975       114.2599 
 594   0.0000       4.206148       114.4551 
 595   0.0000       4.221568       114.8747 
 596   0.0000       4.225832       114.9907 
 597   0.0000       4.237461       115.3072 
 598   0.0000       4.246033       115.5404 
 599   0.0000       4.249609       115.6377 
 600   0.0000       4.261474       115.9606 
 601   0.0000       4.267195       116.1163 
 602   0.0000       4.274417       116.3128 
 603   0.0000       4.278544       116.4251 
 604   0.0000       4.282834       116.5418 
 605   0.0000       4.303720       117.1102 
 606   0.0000       4.308547       117.2415 
 607   0.0000       4.322027       117.6083 
 608   0.0000       4.330551       117.8403 
 609   0.0000       4.333509       117.9208 
 610   0.0000       4.346275       118.2681 
 611   0.0000       4.349193       118.3476 
 612   0.0000       4.357142       118.5639 
 613   0.0000       4.372002       118.9682 
 614   0.0000       4.374415       119.0339 
 615   0.0000       4.377461       119.1168 
 616   0.0000       4.387767       119.3972 
 617   0.0000       4.397526       119.6628 
 618   0.0000       4.408843       119.9707 
 619   0.0000       4.412114       120.0597 
 620   0.0000       4.421699       120.3205 
 621   0.0000       4.432764       120.6216 
 622   0.0000       4.438778       120.7853 
 623   0.0000       4.451559       121.1331 
 624   0.0000       4.452133       121.1487 
 625   0.0000       4.468100       121.5832 
 626   0.0000       4.469659       121.6256 
 627   0.0000       4.482336       121.9706 
 628   0.0000       4.484340       122.0251 
 629   0.0000       4.505605       122.6037 
 630   0.0000       4.511892       122.7748 
 631   0.0000       4.515885       122.8835 
 632   0.0000       4.523638       123.0945 
 633   0.0000       4.527950       123.2118 
 634   0.0000       4.545752       123.6962 
 635   0.0000       4.548482       123.7705 
 636   0.0000       4.554439       123.9326 
 637   0.0000       4.561370       124.1212 
 638   0.0000       4.576226       124.5255 
 639   0.0000       4.582821       124.7049 
 640   0.0000       4.589056       124.8746 
 641   0.0000       4.593013       124.9822 
 642   0.0000       4.613084       125.5284 
 643   0.0000       4.614165       125.5578 
 644   0.0000       4.626445       125.8920 
 645   0.0000       4.629380       125.9718 
 646   0.0000       4.632458       126.0556 
 647   0.0000       4.643611       126.3591 
 648   0.0000       4.651333       126.5692 
 649   0.0000       4.658257       126.7576 
 650   0.0000       4.669086       127.0523 
 651   0.0000       4.679502       127.3357 
 652   0.0000       4.682846       127.4267 
 653   0.0000       4.688952       127.5929 
 654   0.0000       4.701950       127.9466 
 655   0.0000       4.705913       128.0544 
 656   0.0000       4.716976       128.3555 
 657   0.0000       4.724880       128.5705 
 658   0.0000       4.737065       128.9021 
 659   0.0000       4.759955       129.5250 
 660   0.0000       4.764651       129.6528 
 661   0.0000       4.766284       129.6972 
 662   0.0000       4.785208       130.2121 
 663   0.0000       4.795362       130.4884 
 664   0.0000       4.809087       130.8619 
 665   0.0000       4.832942       131.5110 
 666   0.0000       4.849952       131.9739 
 667   0.0000       4.871152       132.5508 
 668   0.0000       4.888173       133.0140 
 669   0.0000       4.901230       133.3692 
 670   0.0000       4.917974       133.8249 
 671   0.0000       4.923449       133.9739 
 672   0.0000       4.930523       134.1663 
 673   0.0000       4.935197       134.2935 
 674   0.0000       4.975068       135.3785 
 675   0.0000       4.995629       135.9380 
 676   0.0000       5.010137       136.3328 
 677   0.0000       5.016678       136.5107 
 678   0.0000       5.027951       136.8175 
 679   0.0000       5.040624       137.1623 
 680   0.0000       5.051441       137.4567 
 681   0.0000       5.070142       137.9656 
 682   0.0000       5.078829       138.2020 
 683   0.0000       5.094437       138.6267 
 684   0.0000       5.106133       138.9449 
 685   0.0000       5.123877       139.4278 
 686   0.0000       5.130182       139.5993 
 687   0.0000       5.149308       140.1198 
 688   0.0000       5.155300       140.2828 
 689   0.0000       5.168166       140.6330 
 690   0.0000       5.172895       140.7616 
 691   0.0000       5.185145       141.0950 
 692   0.0000       5.205222       141.6413 
 693   0.0000       5.208021       141.7175 
 694   0.0000       5.209986       141.7709 
 695   0.0000       5.223896       142.1494 
 696   0.0000       5.230436       142.3274 
 697   0.0000       5.234389       142.4350 
 698   0.0000       5.247198       142.7835 
 699   0.0000       5.248796       142.8270 
 700   0.0000       5.254588       142.9846 
 701   0.0000       5.273253       143.4925 
 702   0.0000       5.293658       144.0478 
 703   0.0000       5.323689       144.8649 
 704   0.0000       5.328189       144.9874 
 705   0.0000       5.336023       145.2006 
 706   0.0000       5.353144       145.6665 
 707   0.0000       5.354497       145.7033 
 708   0.0000       5.366902       146.0408 
 709   0.0000       5.376374       146.2986 
 710   0.0000       5.388403       146.6259 
 711   0.0000       5.419173       147.4632 
 712   0.0000       5.435385       147.9043 
 713   0.0000       5.453854       148.4069 
 714   0.0000       5.471453       148.8858 
 715   0.0000       5.491144       149.4216 
 716   0.0000       5.493621       149.4890 
 717   0.0000       5.503713       149.7636 
 718   0.0000       5.520041       150.2079 
 719   0.0000       5.527163       150.4018 
 720   0.0000       5.533412       150.5718 
 721   0.0000       5.542196       150.8108 
 722   0.0000       5.554197       151.1374 
 723   0.0000       5.568867       151.5366 
 724   0.0000       5.583786       151.9425 
 725   0.0000       5.606582       152.5629 
 726   0.0000       5.618712       152.8929 
 727   0.0000       5.633521       153.2959 
 728   0.0000       5.643497       153.5674 
 729   0.0000       5.648936       153.7154 
 730   0.0000       5.650062       153.7460 
 731   0.0000       5.674863       154.4209 
 732   0.0000       5.685464       154.7093 
 733   0.0000       5.689061       154.8072 
 734   0.0000       5.705741       155.2611 
 735   0.0000       5.709095       155.3524 
 736   0.0000       5.728186       155.8719 
 737   0.0000       5.737170       156.1163 
 738   0.0000       5.744196       156.3075 
 739   0.0000       5.754396       156.5851 
 740   0.0000       5.764573       156.8620 
 741   0.0000       5.778190       157.2325 
 742   0.0000       5.791492       157.5945 
 743   0.0000       5.812905       158.1772 
 744   0.0000       5.819907       158.3677 
 745   0.0000       5.845557       159.0657 
 746   0.0000       5.866182       159.6269 
 747   0.0000       5.881756       160.0507 
 748   0.0000       5.909900       160.8166 
 749   0.0000       5.935203       161.5051 
 750   0.0000       5.939556       161.6235 
 751   0.0000       5.963307       162.2698 
 752   0.0000       5.974683       162.5794 
 753   0.0000       5.997236       163.1931 
 754   0.0000       6.010356       163.5501 
 755   0.0000       6.039233       164.3359 
 756   0.0000       6.054886       164.7618 
 757   0.0000       6.064283       165.0175 
 758   0.0000       6.077570       165.3791 
 759   0.0000       6.094642       165.8436 
 760   0.0000       6.106404       166.1637 
 761   0.0000       6.173601       167.9922 
 762   0.0000       6.225089       169.3933 
 763   0.0000       6.238604       169.7610 
 764   0.0000       6.247605       170.0060 
 765   0.0000       6.313588       171.8015 
 766   0.0000       6.322284       172.0381 
 767   0.0000       6.342655       172.5924 
 768   0.0000       6.345433       172.6680 
 769   0.0000       6.359082       173.0394 
 770   0.0000       6.376437       173.5117 
 771   0.0000       6.384225       173.7236 
 772   0.0000       6.405870       174.3126 
 773   0.0000       6.423814       174.8009 
 774   0.0000       6.451855       175.5639 
 775   0.0000       6.461556       175.8279 
 776   0.0000       6.500799       176.8957 
 777   0.0000       6.555254       178.3775 
 778   0.0000       6.601481       179.6354 
 779   0.0000       6.623211       180.2267 
 780   0.0000       6.676741       181.6834 
 781   0.0000       6.696986       182.2343 
 782   0.0000       6.730828       183.1551 
 783   0.0000       6.772478       184.2885 
 784   0.0000       6.833104       185.9382 
 785   0.0000       6.871719       186.9890 
 786   0.0000       6.908453       187.9885 
 787   0.0000       6.922254       188.3641 
 788   0.0000       6.953788       189.2222 
 789   0.0000       7.008468       190.7101 
 790   0.0000       7.054569       191.9646 
 791   0.0000       7.062782       192.1881 
 792   0.0000       7.082051       192.7124 
 793   0.0000       7.134326       194.1349 
 794   0.0000       7.249970       197.2817 
 795   0.0000       7.257111       197.4760 
 796   0.0000       7.281344       198.1354 
 797   0.0000       7.285477       198.2479 
 798   0.0000       7.344004       199.8405 
 799   0.0000       7.374686       200.6754 
 800   0.0000       7.396154       201.2596 
 801   0.0000       7.557999       205.6636 
 802   0.0000       7.585249       206.4051 
 803   0.0000       7.592529       206.6032 
 804   0.0000       7.670156       208.7156 
 805   0.0000       7.797076       212.1692 
 806   0.0000       7.822712       212.8668 
 807   0.0000       7.904112       215.0818 
 808   0.0000       7.932639       215.8581 
 809   0.0000       9.485125       258.1034 
 810   0.0000       9.759058       265.5575 
 811   0.0000      10.865173       295.6564 
 812   0.0000      11.320816       308.0551 
 813   0.0000      11.887864       323.4852 
 814   0.0000      12.605590       343.0156 
 815   0.0000      12.940306       352.1236 
 816   0.0000      13.104469       356.5907 
 817   0.0000      13.239073       360.2535 
 818   0.0000      13.293852       361.7441 
 819   0.0000      13.403640       364.7316 
 820   0.0000      13.508000       367.5714 
 821   0.0000      13.793869       375.3503 
 822   0.0000      13.919946       378.7810 
 823   0.0000      14.037394       381.9769 
 824   0.0000      14.133692       384.5973 
 825   0.0000      14.508660       394.8007 
 826   0.0000      14.613465       397.6526 
 827   0.0000      15.989227       435.0890 

                    ********************************
                    * MULLIKEN POPULATION ANALYSIS *
                    ********************************

-----------------------
MULLIKEN ATOMIC CHARGES
-----------------------
   0 C :   -0.276037
   1 C :    0.004434
   2 O :   -0.360073
   3 C :    0.451039
   4 O :   -0.384869
   5 C :   -0.241198
   6 C :    0.160380
   7 C :   -0.298479
   8 N :   -0.127173
   9 C :    0.201287
  10 S :   -0.437659
  11 N :   -0.201708
  12 C :    0.060389
  13 C :    0.021205
  14 C :   -0.162587
  15 C :   -0.132000
  16 C :   -0.275324
  17 C :    0.311676
  18 O :   -0.360807
  19 C :   -0.273649
  20 H :    0.109448
  21 H :    0.111292
  22 H :    0.093281
  23 H :    0.122186
  24 H :    0.092379
  25 H :    0.138549
  26 H :    0.115445
  27 H :    0.120686
  28 H :    0.197539
  29 H :    0.195057
  30 H :    0.157458
  31 H :    0.159332
  32 H :    0.162145
  33 H :    0.131904
  34 H :    0.241861
  35 H :    0.172588
Sum of atomic charges:    0.0000000

--------------------------------
MULLIKEN REDUCED ORBITAL CHARGES
--------------------------------
  0 C s       :     3.255364  s :     3.255364
      pz      :     1.008675  p :     2.943435
      px      :     1.002855
      py      :     0.931905
      dz2     :     0.005167  d :     0.072776
      dxz     :     0.017513
      dyz     :     0.023641
      dx2y2   :     0.022954
      dxy     :     0.003501
      f0      :     0.000351  f :     0.004461
      f+1     :     0.000116
      f-1     :     0.000571
      f+2     :     0.002353
      f-2     :     0.000280
      f+3     :     0.000269
      f-3     :     0.000520
  1 C s       :     3.173623  s :     3.173623
      pz      :     0.906672  p :     2.649212
      px      :     0.761183
      py      :     0.981357
      dz2     :     0.017665  d :     0.161006
      dxz     :     0.041780
      dyz     :     0.035707
      dx2y2   :     0.034645
      dxy     :     0.031209
      f0      :     0.000821  f :     0.011725
      f+1     :     0.001797
      f-1     :     0.000702
      f+2     :     0.003145
      f-2     :     0.001792
      f+3     :     0.001428
      f-3     :     0.002039
  2 O s       :     3.724637  s :     3.724637
      pz      :     1.574869  p :     4.600365
      px      :     1.171255
      py      :     1.854241
      dz2     :     0.004324  d :     0.032794
      dxz     :     0.016220
      dyz     :     0.002629
      dx2y2   :     0.005201
      dxy     :     0.004421
      f0      :     0.000133  f :     0.002277
      f+1     :     0.000253
      f-1     :     0.000019
      f+2     :     0.000691
      f-2     :     0.000206
[...]
 15 C s       :     2.705539  s :     2.705539
      pz      :     0.881758  p :     2.794082
      px      :     0.950246
      py      :     0.962077
      dz2     :     0.079296  d :     0.415759
      dxz     :     0.074702
      dyz     :     0.050723
      dx2y2   :     0.114922
      dxy     :     0.096117
      f0      :     0.003077  f :     0.041049
      f+1     :     0.004935
      f-1     :     0.005160
      f+2     :     0.007170
      f-2     :     0.005868
      f+3     :     0.007974
      f-3     :     0.006865
 16 C s       :     2.701572  s :     2.701572
      pz      :     0.929636  p :     2.867613
      px      :     0.968134
      py      :     0.969843
      dz2     :     0.036610  d :     0.390696
      dxz     :     0.061933
      dyz     :     0.077084
      dx2y2   :     0.099597
      dxy     :     0.115473
      f0      :     0.003714  f :     0.040350
      f+1     :     0.004420
      f-1     :     0.003777
      f+2     :     0.006128
      f-2     :     0.004788
      f+3     :     0.009271
      f-3     :     0.008252
 17 C s       :     2.701092  s :     2.701092
      pz      :     0.851553  p :     2.683554
      px      :     0.823123
      py      :     1.008878
      dz2     :     0.112257  d :     0.709018
      dxz     :     0.115546
      dyz     :     0.122791
      dx2y2   :     0.177518
      dxy     :     0.180907
      f0      :     0.007781  f :     0.099377
      f+1     :     0.015618
      f-1     :     0.008133
      f+2     :     0.015797
      f-2     :     0.013021
      f+3     :     0.019337
      f-3     :     0.019689
 18 O s       :     3.177220  s :     3.177220
      pz      :     1.465968  p :     4.347984
      px      :     1.374087
      py      :     1.507929
      dz2     :     0.007083  d :     0.075541
      dxz     :     0.017030
      dyz     :     0.015512
      dx2y2   :     0.017411
      dxy     :     0.018505
      f0      :     0.000544  f :     0.005074
      f+1     :     0.000734
      f-1     :     0.000362
      f+2     :     0.000595
      f-2     :     0.000889
      f+3     :     0.000877
      f-3     :     0.001073
 19 C s       :     2.694883  s :     2.694883
      pz      :     0.924222  p :     2.847364
      px      :     0.961255
      py      :     0.961887
      dz2     :     0.065373  d :     0.388854
      dxz     :     0.070847
      dyz     :     0.051945
      dx2y2   :     0.101458
      dxy     :     0.099230
      f0      :     0.003202  f :     0.040876
      f+1     :     0.004933
      f-1     :     0.004741
      f+2     :     0.007179
      f-2     :     0.006353
      f+3     :     0.007951
      f-3     :     0.006517
 20 H s       :     0.841207  s :     0.841207
      pz      :     0.056584  p :     0.156137
      px      :     0.059713
      py      :     0.039840
      dz2     :     0.006842  d :     0.027698
      dxz     :     0.006866
      dyz     :     0.004815
      dx2y2   :     0.004830
      dxy     :     0.004344
 21 H s       :     0.845196  s :     0.845196
      pz      :     0.053371  p :     0.150297
      px      :     0.039253
      py      :     0.057673
      dz2     :     0.006324  d :     0.027559
      dxz     :     0.004771
      dyz     :     0.006936
      dx2y2   :     0.005021
      dxy     :     0.004506
 22 H s       :     0.847531  s :     0.847531
      pz      :     0.048240  p :     0.151946
      px      :     0.064736
      py      :     0.038971
      dz2     :     0.004635  d :     0.027513
      dxz     :     0.007894
      dyz     :     0.002570
      dx2y2   :     0.006007
      dxy     :     0.006407
 23 H s       :     0.853006  s :     0.853006
      pz      :     0.049323  p :     0.143797
      px      :     0.052253
      py      :     0.042221
      dz2     :     0.004314  d :     0.026786
      dxz     :     0.007656
      dyz     :     0.004754
      dx2y2   :     0.004868
      dxy     :     0.005193
 24 H s       :     0.861226  s :     0.861226
      pz      :     0.058990  p :     0.151570
      px      :     0.028864
      py      :     0.063716
      dz2     :     0.006902  d :     0.027402
      dxz     :     0.004012
      dyz     :     0.007822
      dx2y2   :     0.005186
      dxy     :     0.003480
 25 H s       :     0.827252  s :     0.827252
      pz      :     0.058987  p :     0.150859
      px      :     0.041989
      py      :     0.049883
      dz2     :     0.008335  d :     0.027724
      dxz     :     0.006119
      dyz     :     0.006511
      dx2y2   :     0.004187
      dxy     :     0.002572
 26 H s       :     0.838472  s :     0.838472
      pz      :     0.037989  p :     0.150107
      px      :     0.040602
      py      :     0.071516
      dz2     :     0.002651  d :     0.027700
      dxz     :     0.000563
      dyz     :     0.008976
      dx2y2   :     0.007240
      dxy     :     0.008269
 27 H s       :     0.833365  s :     0.833365
      pz      :     0.038184  p :     0.152754
      px      :     0.073831
      py      :     0.040738
      dz2     :     0.002362  d :     0.027747
      dxz     :     0.008881
      dyz     :     0.000118
      dx2y2   :     0.007391
      dxy     :     0.008995
 28 H s       :     0.742599  s :     0.742599
      pz      :     0.057141  p :     0.253593
      px      :     0.085097
      py      :     0.111355
      dz2     :     0.006630  d :     0.061757
      dxz     :     0.002691
      dyz     :     0.016366
      dx2y2   :     0.016780
      dxy     :     0.019291
 29 H s       :     0.748206  s :     0.748206
      pz      :     0.115004  p :     0.253935
      px      :     0.096285
      py      :     0.042645
      dz2     :     0.021906  d :     0.061311
      dxz     :     0.016704
      dyz     :     0.011143
      dx2y2   :     0.006958
      dxy     :     0.004601
 30 H s       :     0.827059  s :     0.827059
      pz      :     0.038813  p :     0.148449
      px      :     0.067840
      py      :     0.041796
      dz2     :     0.002878  d :     0.028311
      dxz     :     0.007480
      dyz     :     0.002639
      dx2y2   :     0.007652
      dxy     :     0.007662
 31 H s       :     0.839999  s :     0.839999
      pz      :     0.050219  p :     0.155969
      px      :     0.068258
      py      :     0.037492
      dz2     :     0.004413  d :     0.027419
      dxz     :     0.006928
      dyz     :     0.002698
      dx2y2   :     0.006566
      dxy     :     0.006814
 32 H s       :     0.841818  s :     0.841818
      pz      :     0.038088  p :     0.151040
      px      :     0.038874
      py      :     0.074078
      dz2     :     0.002730  d :     0.026436
      dxz     :     0.000930
      dyz     :     0.007053
      dx2y2   :     0.007755
      dxy     :     0.007968
 33 H s       :     0.848229  s :     0.848229
      pz      :     0.057713  p :     0.158908
      px      :     0.049401
      py      :     0.051794
      dz2     :     0.005784  d :     0.027741
      dxz     :     0.004902
      dyz     :     0.005645
      dx2y2   :     0.005985
      dxy     :     0.005424
 34 H s       :     0.706101  s :     0.706101
      pz      :     0.119322  p :     0.347499
      px      :     0.083235
      py      :     0.144942
      dz2     :     0.024318  d :     0.099475
      dxz     :     0.012236
      dyz     :     0.023755
      dx2y2   :     0.020280
      dxy     :     0.018887
 35 H s       :     0.839724  s :     0.839724
      pz      :     0.042237  p :     0.157439
      px      :     0.040192
      py      :     0.075010
      dz2     :     0.002779  d :     0.028060
      dxz     :     0.001126
      dyz     :     0.007827
      dx2y2   :     0.008028
      dxy     :     0.008300


                      *****************************
                      * MAYER POPULATION ANALYSIS *
                      *****************************

  NA   - Mulliken gross atomic population
  ZA   - Total nuclear charge
  QA   - Mulliken gross atomic charge
  VA   - Mayer's total valence
  BVA  - Mayer's bonded valence
  FA   - Mayer's free valence

  ATOM       NA         ZA         QA         VA         BVA        FA
  0 C      6.2760     6.0000    -0.2760     3.8911     3.8911    -0.0000
  1 C      5.9956     6.0000     0.0044     3.8745     3.8745    -0.0000
  2 O      8.3601     8.0000    -0.3601     1.9945     1.9945    -0.0000
  3 C      5.5490     6.0000     0.4510     4.2204     4.2204    -0.0000
  4 O      8.3849     8.0000    -0.3849     2.1211     2.1211    -0.0000
  5 C      6.2412     6.0000    -0.2412     3.5659     3.5659     0.0000
  6 C      5.8396     6.0000     0.1604     3.8183     3.8183     0.0000
  7 C      6.2985     6.0000    -0.2985     3.8864     3.8864    -0.0000
  8 N      7.1272     7.0000    -0.1272     3.2822     3.2822     0.0000
  9 C      5.7987     6.0000     0.2013     4.1549     4.1549    -0.0000
 10 S     16.4377    16.0000    -0.4377     1.7573     1.7573    -0.0000
 11 N      7.2017     7.0000    -0.2017     3.2610     3.2610     0.0000
 12 C      5.9396     6.0000     0.0604     3.9566     3.9566     0.0000
 13 C      5.9788     6.0000     0.0212     3.7461     3.7461     0.0000
 14 C      6.1626     6.0000    -0.1626     3.8569     3.8569     0.0000
 15 C      6.1320     6.0000    -0.1320     3.8058     3.8058     0.0000
 16 C      6.2753     6.0000    -0.2753     3.7904     3.7904     0.0000
 17 C      5.6883     6.0000     0.3117     3.8721     3.8721     0.0000
 18 O      8.3608     8.0000    -0.3608     2.1140     2.1140     0.0000
 19 C      6.2736     6.0000    -0.2736     3.8260     3.8260     0.0000
 20 H      0.8906     1.0000     0.1094     0.9824     0.9824    -0.0000
 21 H      0.8887     1.0000     0.1113     0.9854     0.9854     0.0000
 22 H      0.9067     1.0000     0.0933     0.9823     0.9823    -0.0000
 23 H      0.8778     1.0000     0.1222     0.9720     0.9720    -0.0000
 24 H      0.9076     1.0000     0.0924     0.9691     0.9691     0.0000
 25 H      0.8615     1.0000     0.1385     0.9807     0.9807    -0.0000
 26 H      0.8846     1.0000     0.1154     0.9855     0.9855    -0.0000
 27 H      0.8793     1.0000     0.1207     0.9709     0.9709     0.0000
 28 H      0.8025     1.0000     0.1975     1.0220     1.0220     0.0000
 29 H      0.8049     1.0000     0.1951     1.0177     1.0177     0.0000
 30 H      0.8425     1.0000     0.1575     0.9958     0.9958     0.0000
 31 H      0.8407     1.0000     0.1593     0.9870     0.9870     0.0000
 32 H      0.8379     1.0000     0.1621     0.9772     0.9772    -0.0000
 33 H      0.8681     1.0000     0.1319     0.9910     0.9910     0.0000
 34 H      0.7581     1.0000     0.2419     1.0099     1.0099    -0.0000
 35 H      0.8274     1.0000     0.1726     0.9836     0.9836     0.0000

  Mayer bond orders larger than 0.100000
B(  0-C ,  1-C ) :   0.9821 B(  0-C , 20-H ) :   0.9670 B(  0-C , 21-H ) :   0.9781 
B(  0-C , 22-H ) :   0.9758 B(  1-C ,  2-O ) :   0.8961 B(  1-C , 23-H ) :   0.9788 
B(  1-C , 24-H ) :   0.9652 B(  2-O ,  3-C ) :   1.1221 B(  3-C ,  4-O ) :   2.0730 
B(  3-C ,  5-C ) :   0.9697 B(  5-C ,  6-C ) :   1.6646 B(  5-C , 12-C ) :   0.9652 
B(  6-C ,  7-C ) :   0.9471 B(  6-C ,  8-N ) :   1.1392 B(  7-C , 25-H ) :   0.9692 
B(  7-C , 26-H ) :   0.9850 B(  7-C , 27-H ) :   0.9642 B(  8-N ,  9-C ) :   1.1839 
B(  8-N , 28-H ) :   0.9497 B(  9-C , 10-S ) :   1.6132 B(  9-C , 11-N ) :   1.2987 
B( 11-N , 12-C ) :   0.9961 B( 11-N , 29-H ) :   0.9516 B( 12-C , 13-C ) :   0.9416 
B( 12-C , 30-H ) :   0.9978 B( 13-C , 14-C ) :   1.3836 B( 13-C , 19-C ) :   1.3609 
B( 14-C , 15-C ) :   1.3919 B( 14-C , 31-H ) :   0.9634 B( 15-C , 16-C ) :   1.3635 
B( 15-C , 32-H ) :   0.9712 B( 16-C , 17-C ) :   1.3312 B( 16-C , 33-H ) :   0.9846 
B( 17-C , 18-O ) :   1.1091 B( 17-C , 19-C ) :   1.3712 B( 18-O , 34-H ) :   0.9792 
B( 19-C , 35-H ) :   0.9576 

-------
TIMINGS
-------

Total SCF time: 0 days 1 hours 36 min 32 sec 

Total time                  ....    5792.440 sec
Sum of individual times     ....    5784.650 sec  ( 99.9%)

Fock matrix formation       ....    5769.699 sec  ( 99.6%)
Diagonalization             ....       1.417 sec  (  0.0%)
Density matrix formation    ....       0.174 sec  (  0.0%)
Population analysis         ....       0.259 sec  (  0.0%)
Initial guess               ....       5.742 sec  (  0.1%)
Orbital Transformation      ....       0.000 sec  (  0.0%)
Orbital Orthonormalization  ....       0.000 sec  (  0.0%)
DIIS solution               ....       3.633 sec  (  0.1%)
SOSCF solution              ....       2.200 sec  (  0.0%)

Maximum memory used throughout the entire SCF-calculation: 762.3 MB

------------------------------------------------------------------------------
                                ORCA  MP2 
------------------------------------------------------------------------------

Freezing NCore=48 chemical core electrons

-------------
RI-MP2 ENERGY
-------------
Dimension of the basis                    ...  828
Memory devoted to MP2                     ...  256 MB   
Data format for buffers                   ... DOUBLE
Compression type for matrix containers    ... UNCOMPRESSED
Overall scaling of the MP2 energy         ...   1.000e+00
Calculating two index integrals           ... done (    0.038 sec)
Cholesky decomposition of V**-1           ... done (    0.501 sec)

-----------------
RI-TRANSFORMATION (AUX index driven)
-----------------

Dimension of the orbital-basis         ... 828
Dimension of the aux-basis             ... 2141
Transformation of internal/external MOs...   24-  76 to   77- 827
Number Format for Storage              ... Double (8 Byte)
Integral mode                          ... Direct

First Phase: integral generation and transformation of MO indices
  Aux angular momentum 0               ... done (    4.500 sec)
  Aux angular momentum 1               ... done (    7.332 sec)
  Aux angular momentum 2               ... done (    8.803 sec)
  Aux angular momentum 3               ... done (    7.104 sec)
  Aux angular momentum 4               ... done (    2.776 sec)
Closing buffer VIA ( 0.63 GB; CompressionRatio= 1.00)
  Phase 1 completed in    30.723 sec
Second Phase: sorting and transformation of aux index

IA-Transformation
Memory available                       ... 156 MB 
Max. # MO pairs treated in a batch     ... 11    
# of internal orbitals                 ... 53
# batches for internal orbitals        ... 5
Closing buffer IAV ( 0.63 GB; CompressionRatio= 1.00)
(ia|v) transformation done in    31.291 sec

  Phase 2 completed in    31.305 sec
RI-Integral transformation completed in    62.034 sec
Opening buffers                              ... done

Starting loop over batches of integrals:

Operator 0  - window                       ... ( 24- 76)x( 77-827)
Operator 0  - Memory available             ...   256 MB
Operator 0  - Memory needed per MO         ...  12.3 MB
Operator 0  - Number of orbitals per batch ... 13
Operator 0  - Number of batches            ... 5

OPERATOR  0   PASS   0:  MOs    24 ...   36
  Reading integrals       ... ok
  Internal MO  26
  Internal MO  29
  Internal MO  32
  Internal MO  35
OPERATOR  0   PASS   1:  MOs    37 ...   49
  Reading integrals       ... ok
  Internal MO  38
  Internal MO  41
  Internal MO  44
  Internal MO  47
OPERATOR  0   PASS   2:  MOs    50 ...   62
  Reading integrals       ... ok
  Internal MO  50
  Internal MO  53
  Internal MO  56
  Internal MO  59
  Internal MO  62
OPERATOR  0   PASS   3:  MOs    63 ...   75
  Reading integrals       ... ok
  Internal MO  65
  Internal MO  68
  Internal MO  71
  Internal MO  74
OPERATOR  0   PASS   4:  MOs    76 ...   76
  Reading integrals       ... ok
Time spent in pair loops =   192.646 sec
Deleting buffer (Ka|jb)[aa] ...done

-----------------------------------------------
 RI-MP2 CORRELATION ENERGY:     -3.538393172 Eh
-----------------------------------------------


-------
TIMINGS
-------

Total time                :  255.363 sec
Integral trafo            :   62.046 sec ( 24.3%)
I/O of integrals          :    5.194 sec (  2.0%)
K(i,j) Operators          :   89.755 sec ( 35.1%)
T(i,j) pair energies      :    4.126 sec (  1.6%)
V-calculation             :    0.038 sec (  0.0%)
V**(-1/2)                 :    0.501 sec (  0.2%)
Gamma(ia|P)               :    0.000 sec (  0.0%)
Gamma-Trafo               :    0.000 sec (  0.0%)
D(virtual)                :    0.000 sec (  0.0%)
D(internal)               :    0.000 sec (  0.0%)
W(virtual)                :    0.000 sec (  0.0%)
W(internal)               :    0.000 sec (  0.0%)
L(virtual)                :    0.000 sec (  0.0%)
L(internal)               :    0.000 sec (  0.0%)
G(D)                      :    0.000 sec (  0.0%)
G(Z)                      :    0.000 sec (  0.0%)
Z-Vector Solution         :    0.000 sec (  0.0%)
3-Index Derivative        :    0.000 sec (  0.0%)
2-Index Derivative        :    0.000 sec (  0.0%)
Separable Gradient        :    0.000 sec (  0.0%)


---------------------------------------
MP2 TOTAL ENERGY:    -1274.334658349 Eh
---------------------------------------

Maximum memory used throughout the entire MP2-calculation: 306.1 MB

-------------------------   --------------------
FINAL SINGLE POINT ENERGY     -1274.334658348692
-------------------------   --------------------


                            ***************************************
                            *     ORCA property calculations      *
                            ***************************************


  WARNING: The energy has been calculated at the MP2 level but the densities
           used in the property calculations are still SCF densities
           MP2 response densities have not been calculated 
           use %mp2 Density relaxed end
           or  %mp2 Density unrelaxed end

                                    ---------------------
                                    Active property flags
                                    ---------------------
   (+) Dipole Moment


------------------------------------------------------------------------------
                       ORCA ELECTRIC PROPERTIES CALCULATION
------------------------------------------------------------------------------

Dipole Moment Calculation                       ... on
Quadrupole Moment Calculation                   ... off
Polarizability Calculation                      ... off
GBWName                                         ... CONFS/Conf290.orca.gbw
Electron density file                           ... CONFS/Conf290.orca.scfp
The origin for moment calculation is the CENTER OF MASS  = (32.823465, 31.421347 35.174436)

-------------
DIPOLE MOMENT
-------------
                                X             Y             Z
Electronic contribution:      9.95758       8.54955       5.50546
Nuclear contribution   :    -11.42298      -9.44063      -5.84945
                        -----------------------------------------
Total Dipole Moment    :     -1.46540      -0.89108      -0.34399
                        -----------------------------------------
Magnitude (a.u.)       :      1.74921
Magnitude (Debye)      :      4.44615



--------------------
Rotational spectrum 
--------------------
 
Rotational constants in cm-1:     0.012348     0.009328     0.006831 
Rotational constants in MHz :   370.182899   279.635722   204.785038 

 Dipole components along the rotational axes: 
x,y,z [a.u.] :    -1.327751    -0.531153     1.007324 
x,y,z [Debye]:    -3.374875    -1.350083     2.560415 

 

Timings for individual modules:

Sum of individual times         ...     6052.098 sec (= 100.868 min)
GTO integral calculation        ...        3.593 sec (=   0.060 min)   0.1 %
SCF iterations                  ...     5792.665 sec (=  96.544 min)  95.7 %
MP2 module                      ...      255.840 sec (=   4.264 min)   4.2 %
                             ****ORCA TERMINATED NORMALLY****
TOTAL RUN TIME: 0 days 1 hours 40 minutes 54 seconds 342 msec
