
                                        *****************
                                        * O   R   C   A *
                                        *****************

                                            #,                                       
                                            ###                                      
                                            ####                                     
                                            #####                                    
                                            ######                                   
                                           ########,                                 
                                     ,,################,,,,,                         
                               ,,#################################,,                 
                          ,,##########################################,,             
                       ,#########################################, ''#####,          
                    ,#############################################,,   '####,        
                  ,##################################################,,,,####,       
                ,###########''''           ''''###############################       
              ,#####''   ,,,,##########,,,,          '''####'''          '####       
            ,##' ,,,,###########################,,,                        '##       
           ' ,,###''''                  '''############,,,                           
         ,,##''                                '''############,,,,        ,,,,,,###''
      ,#''                                            '''#######################'''  
     '                                                          ''''####''''         
             ,#######,   #######,   ,#######,      ##                                
            ,#'     '#,  ##    ##  ,#'     '#,    #''#        ######   ,####,        
            ##       ##  ##   ,#'  ##            #'  '#       #        #'  '#        
            ##       ##  #######   ##           ,######,      #####,   #    #        
            '#,     ,#'  ##    ##  '#,     ,#' ,#      #,         ##   #,  ,#        
             '#######'   ##     ##  '#######'  #'      '#     #####' # '####'        



                  #######################################################
                  #                        -***-                        #
                  #          Department of theory and spectroscopy      #
                  #    Directorship and core code : Frank Neese         #
                  #        Max Planck Institute fuer Kohlenforschung    #
                  #                Kaiser Wilhelm Platz 1               #
                  #                 D-45470 Muelheim/Ruhr               #
                  #                      Germany                        #
                  #                                                     #
                  #                  All rights reserved                #
                  #                        -***-                        #
                  #######################################################


                         Program Version 5.0.0 -  RELEASE  -
                                (SVN: $Rev: 19529$)
                ($Date: 2021-06-28 11:36:33 +0200 (Mo, 28 Jun 2021) $)


 With contributions from (in alphabetic order):
   Daniel Aravena         : Magnetic Suceptibility
   Michael Atanasov       : Ab Initio Ligand Field Theory (pilot matlab implementation)
   Alexander A. Auer      : GIAO ZORA, VPT2 properties, NMR spectrum
   Ute Becker             : Parallelization
   Giovanni Bistoni       : ED, misc. LED, open-shell LED, HFLD
   Martin Brehm           : Molecular dynamics
   Dmytro Bykov           : SCF Hessian
   Vijay G. Chilkuri      : MRCI spin determinant printing, contributions to CSF-ICE
   Dipayan Datta          : RHF DLPNO-CCSD density
   Achintya Kumar Dutta   : EOM-CC, STEOM-CC
   Dmitry Ganyushin       : Spin-Orbit,Spin-Spin,Magnetic field MRCI
   Miquel Garcia          : C-PCM Hessian, Gaussian charge scheme
   Yang Guo               : DLPNO-NEVPT2, F12-NEVPT2, CIM, IAO-localization
   Andreas Hansen         : Spin unrestricted coupled pair/coupled cluster methods
   Benjamin Helmich-Paris : MC-RPA, TRAH-SCF, COSX integrals
   Lee Huntington         : MR-EOM, pCC
   Robert Izsak           : Overlap fitted RIJCOSX, COSX-SCS-MP3, EOM
   Marcus Kettner         : VPT2
   Christian Kollmar      : KDIIS, OOCD, Brueckner-CCSD(T), CCSD density, CASPT2, CASPT2-K
   Simone Kossmann        : Meta GGA functionals, TD-DFT gradient, OOMP2, MP2 Hessian
   Martin Krupicka        : Initial AUTO-CI
   Lucas Lang             : DCDCAS
   Marvin Lechner         : AUTO-CI (C++ implementation), FIC-MRCC
   Dagmar Lenk            : GEPOL surface, SMD
   Dimitrios Liakos       : Extrapolation schemes; Compound Job, initial MDCI parallelization
   Dimitrios Manganas     : Further ROCIS development; embedding schemes
   Dimitrios Pantazis     : SARC Basis sets
   Anastasios Papadopoulos: AUTO-CI, single reference methods and gradients
   Taras Petrenko         : DFT Hessian,TD-DFT gradient, ASA, ECA, R-Raman, ABS, FL, XAS/XES, NRVS
   Peter Pinski           : DLPNO-MP2, DLPNO-MP2 Gradient
   Christoph Reimann      : Effective Core Potentials
   Marius Retegan         : Local ZFS, SOC
   Christoph Riplinger    : Optimizer, TS searches, QM/MM, DLPNO-CCSD(T), (RO)-DLPNO pert. Triples
   Tobias Risthaus        : Range-separated hybrids, TD-DFT gradient, RPA, STAB
   Michael Roemelt        : Original ROCIS implementation
   Masaaki Saitow         : Open-shell DLPNO-CCSD energy and density
   Barbara Sandhoefer     : DKH picture change effects
   Avijit Sen             : IP-ROCIS
   Kantharuban Sivalingam : CASSCF convergence, NEVPT2, FIC-MRCI
   Bernardo de Souza      : ESD, SOC TD-DFT
   Georgi Stoychev        : AutoAux, RI-MP2 NMR
   Willem Van den Heuvel  : Paramagnetic NMR
   Boris Wezisla          : Elementary symmetry handling
   Frank Wennmohs         : Technical directorship


 We gratefully acknowledge several colleagues who have allowed us to
 interface, adapt or use parts of their codes:
   Stefan Grimme, W. Hujo, H. Kruse, P. Pracht,  : VdW corrections, initial TS optimization,
                  C. Bannwarth, S. Ehlert          DFT functionals, gCP, sTDA/sTD-DF
   Ed Valeev, F. Pavosevic, A. Kumar             : LibInt (2-el integral package), F12 methods
   Garnet Chan, S. Sharma, J. Yang, R. Olivares  : DMRG
   Ulf Ekstrom                                   : XCFun DFT Library
   Mihaly Kallay                                 : mrcc  (arbitrary order and MRCC methods)
   Jiri Pittner, Ondrej Demel                    : Mk-CCSD
   Frank Weinhold                                : gennbo (NPA and NBO analysis)
   Christopher J. Cramer and Donald G. Truhlar   : smd solvation model
   Lars Goerigk                                  : TD-DFT with DH, B97 family of functionals
   V. Asgeirsson, H. Jonsson                     : NEB implementation
   FAccTs GmbH                                   : IRC, NEB, NEB-TS, DLPNO-Multilevel, CI-OPT
                                                   MM, QMMM, 2- and 3-layer-ONIOM, Crystal-QMMM,
                                                   LR-CPCM, SF, NACMEs, symmetry and pop. for TD-DFT,
                                                   nearIR, NL-DFT gradient (VV10), updates on ESD,
                                                   ML-optimized integration grids
   S Lehtola, MJT Oliveira, MAL Marques          : LibXC Library
   Liviu Ungur et al                             : ANISO software


 Your calculation uses the libint2 library for the computation of 2-el integrals
 For citations please refer to: http://libint.valeyev.net

 Your ORCA version has been built with support for libXC version: 5.1.0
 For citations please refer to: https://tddft.org/programs/libxc/

 This ORCA versions uses:
   CBLAS   interface :  Fast vector & matrix operations
   LAPACKE interface :  Fast linear algebra routines
   SCALAPACK package :  Parallel linear algebra routines
   Shared memory     :  Shared parallel matrices
   BLAS/LAPACK       :  OpenBLAS 0.3.15  USE64BITINT DYNAMIC_ARCH NO_AFFINITY SkylakeX SINGLE_THREADED
        Core in use  :  SkylakeX
   Copyright (c) 2011-2014, The OpenBLAS Project


================================================================================

----- Orbital basis set information -----
Your calculation utilizes the basis: cc-pVTZ 
       H, B-Ne : Obtained from the ccRepo (grant-hill.group.shef.ac.uk/ccrepo) Feb. 2017
                 T. H. Dunning, Jr., J. Chem. Phys. 90, 1007 (1989)
            He : Obtained from the ccRepo (grant-hill.group.shef.ac.uk/ccrepo) Feb. 2017
                 D. E. Woon, T. H. Dunning, Jr., J. Chem. Phys. 100, 2975 (1994)
  Li-Be, Na-Mg : Obtained from the ccRepo (grant-hill.group.shef.ac.uk/ccrepo) Feb. 2017
                 B. P. Prascher, D. E. Woon, K. A. Peterson, T. H. Dunning, Jr., A. K. Wilson, Theor. Chem. Acc. 128, 69 (2011)
         Al-Ar : Obtained from the ccRepo (grant-hill.group.shef.ac.uk/ccrepo) Feb. 2017
                 D. E. Woon, T. H. Dunning, Jr., J. Chem. Phys. 98, 1358 (1993)
            Ca : Obtained from the Peterson Research Group Website (tyr0.chem.wsu.edu/~kipeters) Feb. 2017
                 J. Koput, K. A. Peterson, J. Phys. Chem. 106, 9595 (2002)
         Sc-Zn : Obtained from the ccRepo (grant-hill.group.shef.ac.uk/ccrepo) Feb. 2017
                 N. B. Balabanov, K. A. Peterson, J. Chem. Phys. 123, 064107 (2005)
                 N. B. Balabanov, K. A. Peterson, J. Chem. Phys. 125, 074110 (2006)
         Ga-Kr : Obtained from the ccRepo (grant-hill.group.shef.ac.uk/ccrepo) Feb. 2017
                 A. K. Wilson, D. E. Woon, K. A. Peterson, T. H. Dunning, Jr., J. Chem. Phys. 110, 7667 (1999)
             Y : Obtained from the ccRepo (grant-hill.group.shef.ac.uk/ccrepo) Feb. 2017
                 K. A. Peterson, D. Figgen, M. Dolg, H. Stoll, J. Chem. Phys. 126, 124101 (2007)
        Ag, Au : Obtained from the Peterson Research Group Website (tyr0.chem.wsu.edu/~kipeters) Feb. 2017
                 K. A. Peterson, C. Puzzarini, Theor. Chem. Acc. 114, 283 (2005)

----- AuxC basis set information -----
Your calculation utilizes the auxiliary basis: cc-pVTZ/C 
  Obtained from the EMSL Basis Set Exchange (bse.pnl.gov) Feb. 2017
  H-He, B-F, Al-Ar, Ga-Kr : F. Weigend, A. Kohn, C. Hattig, J. Chem. Phys. 116, 3175 (2002)
             Li-Be, Na-Mg : C. Haettig, Phys. Chem. Chem. Phys. 7, 59 (2005)
                       Ne : C. Haettig, Phys. Chem. Chem. Phys. 7, 59 (2005)
                            F. Weigend, A. Kohn, C. Hattig, J. Chem. Phys. 116, 3175 (2002)
                    Sc-Zn : J. G. Hill, J. A. Platts, J. Chem. Phys. 128, 044104 (2008)

================================================================================
                                        WARNINGS
                       Please study these warnings very carefully!
================================================================================


WARNING: No MP2 level density has been requested!
         To caclulate MP2 level properties use
         %mp2 Density relaxed end
         or
         %mp2 Density unrelaxed end

WARNING: Post HF methods need fully converged wavefunctions
  ===> : Setting SCFConvForced true
         You can overwrite this default with %scf ConvForced false 


INFO   : the flag for use of the SHARK integral package has been found!

================================================================================
                                       INPUT FILE
================================================================================
NAME = qm_input.solv
|  1> ! RI-MP2 cc-pVTZ cc-pVTZ/c TightSCF KeepDens NoKeepInts
|  2> 
|  3> %pointcharges "srfp_output"
|  4> 
|  5> *xyz  0  1
|  6>     C     2.8898785   11.1814303    2.0912652
|  7>     C     1.5256516   10.5991186    2.1226686
|  8>     O     0.9496155   10.4630992    3.4507237
|  9>     C     0.4578235   11.5350078    4.0986262
| 10>     O     0.6389581   12.7288658    3.6529590
| 11>     C    -0.2972478   11.1016617    5.3865129
| 12>     C    -0.7204956   12.0598269    6.2867704
| 13>     C    -0.5333530   13.5077584    6.2137126
| 14>     N    -1.4486677   11.7062420    7.4293949
| 15>     C    -1.6907965   10.4174460    7.7188212
| 16>     S    -2.6637508   10.0577770    9.0356778
| 17>     N    -1.0061596    9.4272421    7.0109411
| 18>     C    -0.3563454    9.5732932    5.6791771
| 19>     C    -1.1332985    8.9344196    4.5501959
| 20>     C    -2.4129840    9.3734653    4.0932498
| 21>     C    -3.1046227    8.7126471    3.0670472
| 22>     C    -2.5566038    7.5461136    2.4991492
| 23>     C    -1.3651629    7.0960187    3.0166853
| 24>     O    -0.8392936    6.0029614    2.4376654
| 25>     C    -0.6381792    7.7349531    3.9768974
| 26>     H     3.3132051   11.0390216    1.0894141
| 27>     H     3.5804359   10.6257075    2.7374016
| 28>     H     2.9307435   12.2406259    2.3734589
| 29>     H     0.9764226   11.1971533    1.3851785
| 30>     H     1.5883629    9.5702038    1.7477127
| 31>     H    -1.0389471   13.9928451    7.0576671
| 32>     H    -0.8587898   13.8575064    5.2263135
| 33>     H     0.4858690   13.8895730    6.3500994
| 34>     H    -1.9023528   12.3974291    8.0145416
| 35>     H    -1.0386243    8.5025395    7.4230644
| 36>     H     0.6650238    9.1747150    5.7127933
| 37>     H    -2.9045097   10.1950194    4.6059366
| 38>     H    -4.1335908    8.9864457    2.8533768
| 39>     H    -3.1038511    6.9068791    1.8126387
| 40>     H    -0.0515190    5.6670655    2.8995252
| 41>     H     0.3260085    7.2981939    4.2197544
| 42> *
| 43> 
| 44>                          ****END OF INPUT****
================================================================================

                       ****************************
                       * Single Point Calculation *
                       ****************************

---------------------------------
CARTESIAN COORDINATES (ANGSTROEM)
---------------------------------
  C      2.889879   11.181430    2.091265
  C      1.525652   10.599119    2.122669
  O      0.949615   10.463099    3.450724
  C      0.457823   11.535008    4.098626
  O      0.638958   12.728866    3.652959
  C     -0.297248   11.101662    5.386513
  C     -0.720496   12.059827    6.286770
  C     -0.533353   13.507758    6.213713
  N     -1.448668   11.706242    7.429395
  C     -1.690796   10.417446    7.718821
  S     -2.663751   10.057777    9.035678
  N     -1.006160    9.427242    7.010941
  C     -0.356345    9.573293    5.679177
  C     -1.133298    8.934420    4.550196
  C     -2.412984    9.373465    4.093250
  C     -3.104623    8.712647    3.067047
  C     -2.556604    7.546114    2.499149
  C     -1.365163    7.096019    3.016685
  O     -0.839294    6.002961    2.437665
  C     -0.638179    7.734953    3.976897
  H      3.313205   11.039022    1.089414
  H      3.580436   10.625708    2.737402
  H      2.930744   12.240626    2.373459
  H      0.976423   11.197153    1.385179
  H      1.588363    9.570204    1.747713
  H     -1.038947   13.992845    7.057667
  H     -0.858790   13.857506    5.226313
  H      0.485869   13.889573    6.350099
  H     -1.902353   12.397429    8.014542
  H     -1.038624    8.502539    7.423064
  H      0.665024    9.174715    5.712793
  H     -2.904510   10.195019    4.605937
  H     -4.133591    8.986446    2.853377
  H     -3.103851    6.906879    1.812639
  H     -0.051519    5.667065    2.899525
  H      0.326008    7.298194    4.219754

----------------------------
CARTESIAN COORDINATES (A.U.)
----------------------------
  NO LB      ZA    FRAG     MASS         X           Y           Z
   0 C     6.0000    0    12.011    5.461079   21.129841    3.951919
   1 C     6.0000    0    12.011    2.883064   20.029431    4.011262
   2 O     8.0000    0    15.999    1.794513   19.772392    6.520923
   3 C     6.0000    0    12.011    0.865161   21.798006    7.745281
   4 O     8.0000    0    15.999    1.207456   24.054070    6.903092
   5 C     6.0000    0    12.011   -0.561717   20.979100   10.179034
   6 C     6.0000    0    12.011   -1.361539   22.789770   11.880274
   7 C     6.0000    0    12.011   -1.007891   25.525964   11.742215
   8 N     7.0000    0    14.007   -2.737585   22.121591   14.039522
   9 C     6.0000    0    12.011   -3.195142   19.686120   14.586458
  10 S    16.0000    0    32.060   -5.033760   19.006444   17.074956
  11 N     7.0000    0    14.007   -1.901366   17.814906   13.248759
  12 C     6.0000    0    12.011   -0.673395   18.090902   10.732089
  13 C     6.0000    0    12.011   -2.141624   16.883606    8.598624
  14 C     6.0000    0    12.011   -4.559879   17.713282    7.735121
  15 C     6.0000    0    12.011   -5.866887   16.464517    5.795879
  16 C     6.0000    0    12.011   -4.831281   14.260088    4.722708
  17 C     6.0000    0    12.011   -2.579784   13.409532    5.700709
  18 O     8.0000    0    15.999   -1.586035   11.343953    4.606520
  19 C     6.0000    0    12.011   -1.205984   14.616943    7.515247
  20 H     1.0000    0     1.008    6.261050   20.860728    2.058694
  21 H     1.0000    0     1.008    6.766043   20.079677    5.172939
  22 H     1.0000    0     1.008    5.538303   23.131431    4.485187
  23 H     1.0000    0     1.008    1.845171   21.159553    2.617608
  24 H     1.0000    0     1.008    3.001571   18.085064    3.302698
  25 H     1.0000    0     1.008   -1.963325   26.442645   13.337058
  26 H     1.0000    0     1.008   -1.622878   26.186892    9.876301
  27 H     1.0000    0     1.008    0.918159   26.247489   11.999949
  28 H     1.0000    0     1.008   -3.594926   23.427746   15.145289
  29 H     1.0000    0     1.008   -1.962715   16.067471   14.027559
  30 H     1.0000    0     1.008    1.256713   17.337699   10.795615
  31 H     1.0000    0     1.008   -5.488728   19.265795    8.703959
  32 H     1.0000    0     1.008   -7.811355   16.981921    5.392101
  33 H     1.0000    0     1.008   -5.865429   13.052110    3.425391
  34 H     1.0000    0     1.008   -0.097357   10.709202    5.479309
  35 H     1.0000    0     1.008    0.616067   13.791588    7.974180

--------------------------------
INTERNAL COORDINATES (ANGSTROEM)
--------------------------------
 C      0   0   0     0.000000000000     0.00000000     0.00000000
 C      1   0   0     1.483640159935     0.00000000     0.00000000
 O      2   1   0     1.453977033627   114.85624740     0.00000000
 C      3   2   1     1.345594689171   120.66870780    76.60468617
 O      4   3   2     1.287138656337   121.38084651   350.56921732
 C      4   3   2     1.554533261949   110.75467663   171.03121025
 C      6   4   3     1.381188914306   119.69979824   171.28686284
 C      7   6   4     1.461802115051   127.97635159   358.86137835
 N      7   6   4     1.400302694680   121.06688491   177.46890649
 C      9   7   6     1.342903223817   120.79411410     3.74032048
 S     10   9   7     1.676339215199   118.67657443   184.50061865
 N     10   9   7     1.396540613227   118.87084727    11.67268536
 C     12  10   9     1.489021413556   126.70848084   338.72294245
 C     13  12  10     1.512089331465   113.70984760   255.33903351
 C     14  13  12     1.427990141389   124.71382855    66.20015815
 C     15  14  13     1.402902905064   122.07645020   182.05900825
 C     16  15  14     1.408415158887   119.55495791     2.70541352
 C     17  16  15     1.374758324944   117.16767441     1.51933209
 O     18  17  16     1.344089590155   116.30525023   181.77347351
 C     18  17  16     1.363359726762   125.01764479   355.80980424
 H      1   2   3     1.096900758808   108.85920665   167.75688324
 H      1   2   3     1.096899995688   111.56571714    54.45822084
 H      1   2   3     1.096904075844   114.06713698   291.32672031
 H      2   1   3     1.096900015700   103.42616832   129.74978543
 H      2   1   3     1.096900314409   107.96024206   244.12091940
 H      8   7   6     1.096901863679   109.91192889   176.76485553
 H      8   7   6     1.096900066997   108.83427984    50.62738017
 H      8   7   6     1.096903474911   117.22735442   290.34991151
 H      9   7   6     1.012900013668   122.14065919   190.71296414
 H     12  10   9     1.012903978468   115.17281722   164.64005142
 H     13  12  10     1.096900028775   110.07820796   130.93882366
 H     15  14  13     1.086000187791   119.15160497   357.07487122
 H     16  15  14     1.086000029473   119.49045085   170.83044953
 H     17  16  15     1.086000469594   123.11654658   170.50839776
 H     19  18  17     0.973000180318   113.14266761   186.36737285
 H     20  18  17     1.086000019367   116.25975235   185.21395875

---------------------------
INTERNAL COORDINATES (A.U.)
---------------------------
 C      0   0   0     0.000000000000     0.00000000     0.00000000
 C      1   0   0     2.803673583564     0.00000000     0.00000000
 O      2   1   0     2.747618398567   114.85624740     0.00000000
 C      3   2   1     2.542805449791   120.66870780    76.60468617
 O      4   3   2     2.432339556860   121.38084651   350.56921732
 C      4   3   2     2.937642131155   110.75467663   171.03121025
 C      6   4   3     2.610068787247   119.69979824   171.28686284
 C      7   6   4     2.762405659433   127.97635159   358.86137835
 N      7   6   4     2.646188597536   121.06688491   177.46890649
 C      9   7   6     2.537719317373   120.79411410     3.74032048
 S     10   9   7     3.167822024278   118.67657443   184.50061865
 N     10   9   7     2.639079293898   118.87084727    11.67268536
 C     12  10   9     2.813842679165   126.70848084   338.72294245
 C     13  12  10     2.857434726493   113.70984760   255.33903351
 C     14  13  12     2.698510289165   124.71382855    66.20015815
 C     15  14  13     2.651102283053   122.07645020   182.05900825
 C     16  15  14     2.661518933160   119.55495791     2.70541352
 C     17  16  15     2.597916734472   117.16767441     1.51933209
 O     18  17  16     2.539961224847   116.30525023   181.77347351
 C     18  17  16     2.576376505597   125.01764479   355.80980424
 H      1   2   3     2.072842030238   108.85920665   167.75688324
 H      1   2   3     2.072840588149   111.56571714    54.45822084
 H      1   2   3     2.072848298528   114.06713698   291.32672031
 H      2   1   3     2.072840625967   103.42616832   129.74978543
 H      2   1   3     2.072841190446   107.96024206   244.12091940
 H      8   7   6     2.072844118141   109.91192889   176.76485553
 H      8   7   6     2.072840722905   108.83427984    50.62738017
 H      8   7   6     2.072847162928   117.22735442   290.34991151
 H      9   7   6     1.914103626878   122.14065919   190.71296414
 H     12  10   9     1.914111119263   115.17281722   164.64005142
 H     13  12  10     2.072840650675   110.07820796   130.93882366
 H     15  14  13     2.052242936312   119.15160497   357.07487122
 H     16  15  14     2.052242637135   119.49045085   170.83044953
 H     17  16  15     2.052243468842   123.11654658   170.50839776
 H     19  18  17     1.838703869056   113.14266761   186.36737285
 H     20  18  17     2.052242618037   116.25975235   185.21395875

---------------------
BASIS SET INFORMATION
---------------------
There are 5 groups of distinct atoms

 Group   1 Type C   : 18s5p2d1f contracted to 4s3p2d1f pattern {8811/311/11/1}
 Group   2 Type O   : 18s5p2d1f contracted to 4s3p2d1f pattern {8811/311/11/1}
 Group   3 Type N   : 18s5p2d1f contracted to 4s3p2d1f pattern {8811/311/11/1}
 Group   4 Type S   : 41s16p2d1f contracted to 5s4p2d1f pattern {13131311/7711/11/1}
 Group   5 Type H   : 5s2p1d contracted to 3s2p1d pattern {311/11/1}

Atom   0C    basis set group =>   1
Atom   1C    basis set group =>   1
Atom   2O    basis set group =>   2
Atom   3C    basis set group =>   1
Atom   4O    basis set group =>   2
Atom   5C    basis set group =>   1
Atom   6C    basis set group =>   1
Atom   7C    basis set group =>   1
Atom   8N    basis set group =>   3
Atom   9C    basis set group =>   1
Atom  10S    basis set group =>   4
Atom  11N    basis set group =>   3
Atom  12C    basis set group =>   1
Atom  13C    basis set group =>   1
Atom  14C    basis set group =>   1
Atom  15C    basis set group =>   1
Atom  16C    basis set group =>   1
Atom  17C    basis set group =>   1
Atom  18O    basis set group =>   2
Atom  19C    basis set group =>   1
Atom  20H    basis set group =>   5
Atom  21H    basis set group =>   5
Atom  22H    basis set group =>   5
Atom  23H    basis set group =>   5
Atom  24H    basis set group =>   5
Atom  25H    basis set group =>   5
Atom  26H    basis set group =>   5
Atom  27H    basis set group =>   5
Atom  28H    basis set group =>   5
Atom  29H    basis set group =>   5
Atom  30H    basis set group =>   5
Atom  31H    basis set group =>   5
Atom  32H    basis set group =>   5
Atom  33H    basis set group =>   5
Atom  34H    basis set group =>   5
Atom  35H    basis set group =>   5
---------------------------------
AUXILIARY/C BASIS SET INFORMATION
---------------------------------
There are 5 groups of distinct atoms

 Group   1 Type C   : 8s6p5d3f1g contracted to 8s6p5d3f1g pattern {11111111/111111/11111/111/1}
 Group   2 Type O   : 8s6p5d3f1g contracted to 8s6p5d3f1g pattern {11111111/111111/11111/111/1}
 Group   3 Type N   : 8s6p5d3f1g contracted to 8s6p5d3f1g pattern {11111111/111111/11111/111/1}
 Group   4 Type S   : 10s8p7d5f2g contracted to 10s8p7d5f2g pattern {1111111111/11111111/1111111/11111/11}
 Group   5 Type H   : 4s3p2d1f contracted to 4s3p2d1f pattern {1111/111/11/1}

Atom   0C    basis set group =>   1
Atom   1C    basis set group =>   1
Atom   2O    basis set group =>   2
Atom   3C    basis set group =>   1
Atom   4O    basis set group =>   2
Atom   5C    basis set group =>   1
Atom   6C    basis set group =>   1
Atom   7C    basis set group =>   1
Atom   8N    basis set group =>   3
Atom   9C    basis set group =>   1
Atom  10S    basis set group =>   4
Atom  11N    basis set group =>   3
Atom  12C    basis set group =>   1
Atom  13C    basis set group =>   1
Atom  14C    basis set group =>   1
Atom  15C    basis set group =>   1
Atom  16C    basis set group =>   1
Atom  17C    basis set group =>   1
Atom  18O    basis set group =>   2
Atom  19C    basis set group =>   1
Atom  20H    basis set group =>   5
Atom  21H    basis set group =>   5
Atom  22H    basis set group =>   5
Atom  23H    basis set group =>   5
Atom  24H    basis set group =>   5
Atom  25H    basis set group =>   5
Atom  26H    basis set group =>   5
Atom  27H    basis set group =>   5
Atom  28H    basis set group =>   5
Atom  29H    basis set group =>   5
Atom  30H    basis set group =>   5
Atom  31H    basis set group =>   5
Atom  32H    basis set group =>   5
Atom  33H    basis set group =>   5
Atom  34H    basis set group =>   5
Atom  35H    basis set group =>   5
------------------------------------------------------------------------------
                           ORCA GTO INTEGRAL CALCULATION
------------------------------------------------------------------------------
------------------------------------------------------------------------------
                   ___                                                        
                  /   \      - P O W E R E D   B Y -                         
                 /     \                                                     
                 |  |  |   _    _      __       _____    __    __             
                 |  |  |  | |  | |    /  \     |  _  \  |  |  /  |          
                  \  \/   | |  | |   /    \    | | | |  |  | /  /          
                 / \  \   | |__| |  /  /\  \   | |_| |  |  |/  /          
                |  |  |   |  __  | /  /__\  \  |    /   |      \           
                |  |  |   | |  | | |   __   |  |    \   |  |\   \          
                \     /   | |  | | |  |  |  |  | |\  \  |  | \   \       
                 \___/    |_|  |_| |__|  |__|  |_| \__\ |__|  \__/        
                                                                              
                      - O R C A' S   B I G   F R I E N D -                    
                                      &                                       
                       - I N T E G R A L  F E E D E R -                       
                                                                              
 v1 FN, 2020, v2 2021                                                         
------------------------------------------------------------------------------


Reading SHARK input file qm_input.solv.SHARKINP.tmp ... ok
----------------------
SHARK INTEGRAL PACKAGE
----------------------

Number of atoms                             ...     36
Number of basis functions                   ...    828
Number of shells                            ...    298
Maximum angular momentum                    ...      3
Integral batch strategy                     ... SHARK/LIBINT Hybrid
RI-J (if used) integral strategy            ... SPLIT-RIJ (Revised 2003 algorithm where possible)
Printlevel                                  ...      1
Contraction scheme used                     ... SEGMENTED contraction
Coulomb Range Separation                    ... NOT USED
Exchange Range Separation                   ... NOT USED
Finite Nucleus Model                        ... NOT USED
Auxiliary Coulomb fitting basis             ... NOT available
Auxiliary J/K fitting basis                 ... NOT available
Auxiliary Correlation fitting basis         ... AVAILABLE
   # of basis functions in Aux-C            ...   2141
   # of shells in Aux-C                     ...    629
   Maximum angular momentum in Aux-C        ...      4
Auxiliary 'external' fitting basis          ... NOT available
Integral threshold                          ...     2.500000e-11
Primitive cut-off                           ...     2.500000e-12
Primitive pair pre-selection threshold      ...     2.500000e-12

Calculating pre-screening integrals         ... done (  0.6 sec) Dimension = 298
Organizing shell pair data                  ... done (  0.4 sec)
Shell pair information
Total number of shell pairs                 ...     44551
Shell pairs after pre-screening             ...     32595
Total number of primitive shell pairs       ...    234348
Primitive shell pairs kept                  ...     93648
          la=0 lb=0:   6528 shell pairs
          la=1 lb=0:   9071 shell pairs
          la=1 lb=1:   3191 shell pairs
          la=2 lb=0:   5201 shell pairs
          la=2 lb=1:   3547 shell pairs
          la=2 lb=2:   1014 shell pairs
          la=3 lb=0:   1892 shell pairs
          la=3 lb=1:   1284 shell pairs
          la=3 lb=2:    722 shell pairs
          la=3 lb=3:    145 shell pairs

Reading point charge file                   ... ok (45435 point charges)
Calculating one electron integrals          ... done (241.5 sec)
Calculating RI/C V-Matrix + Cholesky decomp.... done (  0.4 sec)
Calculating Nuclear repulsion               ... (+Point charges) done (  0.0 sec) ENN=   1514.699888091787 Eh

SHARK setup successfully completed in 243.2 seconds

Maximum memory used throughout the entire GTOINT-calculation: 482.4 MB
ENUC WAS=  0.000000000
ENUC IS =  0.000000000
-------------------------------------------------------------------------------
                                 ORCA SCF
-------------------------------------------------------------------------------

------------
SCF SETTINGS
------------
Hamiltonian:
 Ab initio Hamiltonian  Method          .... Hartree-Fock(GTOs)


General Settings:
 Integral files         IntName         .... qm_input.solv
 Hartree-Fock type      HFTyp           .... RHF
 Total Charge           Charge          ....    0
 Multiplicity           Mult            ....    1
 Number of Electrons    NEL             ....  154
 Basis Dimension        Dim             ....  828
 Nuclear Repulsion      ENuc            ....   1514.6998880918 Eh

Convergence Acceleration:
 DIIS                   CNVDIIS         .... on
   Start iteration      DIISMaxIt       ....    12
   Startup error        DIISStart       ....  0.200000
   # of expansion vecs  DIISMaxEq       ....     5
   Bias factor          DIISBfac        ....   1.050
   Max. coefficient     DIISMaxC        ....  10.000
 Trust-Rad. Augm. Hess. CNVTRAH         .... auto
   Auto Start mean grad. ratio tolernc. ....  1.125000
   Auto Start start iteration           ....    20
   Auto Start num. interpolation iter.  ....    10
   Max. Number of Micro iterations      ....    16
   Max. Number of Macro iterations      .... Maxiter - #DIIS iter
   Number of Davidson start vectors     ....     2
   Converg. threshold I  (grad. norm)   ....   1.000e-05
   Converg. threshold II (energy diff.) ....   1.000e-08
   Grad. Scal. Fac. for Micro threshold ....   0.100
   Minimum threshold for Micro iter.    ....   0.010
   NR start threshold (gradient norm)   ....   0.001
   Initial trust radius                 ....   0.400
   Minimum AH scaling param. (alpha)    ....   1.000
   Maximum AH scaling param. (alpha)    .... 1000.000
   Orbital update algorithm             .... Taylor
   White noise on init. David. guess    .... on
   Maximum white noise                  ....   0.010
   Quad. conv. algorithm                .... NR
 SOSCF                  CNVSOSCF        .... on
   Start iteration      SOSCFMaxIt      ....   150
   Startup grad/error   SOSCFStart      ....  0.003300
 Level Shifting         CNVShift        .... on
   Level shift para.    LevelShift      ....    0.2500
   Turn off err/grad.   ShiftErr        ....    0.0010
 Zerner damping         CNVZerner       .... off
 Static damping         CNVDamp         .... on
   Fraction old density DampFac         ....    0.7000
   Max. Damping (<1)    DampMax         ....    0.9800
   Min. Damping (>=0)   DampMin         ....    0.0000
   Turn off err/grad.   DampErr         ....    0.1000
 Fernandez-Rico         CNVRico         .... off

SCF Procedure:
 Maximum # iterations   MaxIter         ....   125
 SCF integral mode      SCFMode         .... Direct
   Integral package                     .... SHARK and LIBINT hybrid scheme
 Reset frequency        DirectResetFreq ....    20
 Integral Threshold     Thresh          ....  2.500e-11 Eh
 Primitive CutOff       TCut            ....  2.500e-12 Eh

Convergence Tolerance:
 Convergence Check Mode ConvCheckMode   .... Total+1el-Energy
 Convergence forced     ConvForced      .... 1
 Energy Change          TolE            ....  1.000e-08 Eh
 1-El. energy change                    ....  1.000e-05 Eh
 Orbital Gradient       TolG            ....  1.000e-05
 Orbital Rotation angle TolX            ....  1.000e-05
 DIIS Error             TolErr          ....  5.000e-07


Diagonalization of the overlap matrix:
Smallest eigenvalue                        ... 3.703e-05
Time for diagonalization                   ...    0.159 sec
Threshold for overlap eigenvalues          ... 1.000e-08
Number of eigenvalues below threshold      ... 0
Time for construction of square roots      ...    0.086 sec
Total time needed                          ...    0.248 sec

Time for model grid setup =    1.523 sec

------------------------------
INITIAL GUESS: MODEL POTENTIAL
------------------------------
Loading Hartree-Fock densities                     ... done
Calculating cut-offs                               ... done
Initializing the effective Hamiltonian             ... done
Setting up the integral package (SHARK)            ... done
Starting the Coulomb interaction                   ... done (   4.5 sec)
Reading the grid                                   ... done
Mapping shells                                     ... done
Starting the XC term evaluation                    ... done (   1.6 sec)
Transforming the Hamiltonian                       ... done (   0.1 sec)
Diagonalizing the Hamiltonian                      ... done (   0.2 sec)
Back transforming the eigenvectors                 ... done (   0.0 sec)
Now organizing SCF variables                       ... done
                      ------------------
                      INITIAL GUESS DONE (   7.9 sec)
                      ------------------
--------------
SCF ITERATIONS
--------------
ITER       Energy         Delta-E        Max-DP      RMS-DP      [F,P]     Damp
               ***  Starting incremental Fock matrix formation  ***
  0  -1270.0082673522   0.000000000000 0.07345738  0.00048827  0.3732303 0.7000
  1  -1270.3065753735  -0.298308021248 0.06676107  0.00039613  0.2113709 0.7000
                               ***Turning on DIIS***
  2  -1270.4897784109  -0.183203037429 0.03598197  0.00025689  0.1113943 0.7000
  3  -1272.4916294989  -2.001851087984 0.06424866  0.00052532  0.0849715 0.0000
  4  -1270.8330604021   1.658569096756 0.02337471  0.00010948  0.0073098 0.0000
  5  -1270.8937609570  -0.060700554835 0.00703348  0.00005321  0.0045493 0.0000
  6  -1270.8659717897   0.027789167279 0.00242920  0.00002598  0.0037556 0.0000
                      *** Initiating the SOSCF procedure ***
                           *** Shutting down DIIS ***
                      *** Re-Reading the Fockian *** 
                      *** Removing any level shift *** 
ITER      Energy       Delta-E        Grad      Rot      Max-DP    RMS-DP
  7  -1270.88434461  -0.0183728238  0.000975  0.000975  0.001594  0.000014
               *** Restarting incremental Fock matrix formation ***
  8  -1270.88503425  -0.0006896415  0.000449  0.000876  0.000679  0.000008
  9  -1270.88504965  -0.0000153902  0.000198  0.000958  0.000670  0.000009
 10  -1270.88505548  -0.0000058391  0.000059  0.000119  0.000129  0.000001
 11  -1270.88505589  -0.0000004052  0.000031  0.000060  0.000056  0.000001
 12  -1270.88505600  -0.0000001076  0.000010  0.000042  0.000028  0.000000
 13  -1270.88505602  -0.0000000185  0.000007  0.000034  0.000020  0.000000
 14  -1270.88505603  -0.0000000102  0.000003  0.000008  0.000005  0.000000
                  ***Gradient check signals convergence***
              ***Rediagonalizing the Fockian in SOSCF/NRSCF***

               *****************************************************
               *                     SUCCESS                       *
               *           SCF CONVERGED AFTER  15 CYCLES          *
               *****************************************************


----------------
TOTAL SCF ENERGY
----------------

Total Energy       :        -1270.88505602 Eh          -34582.54052 eV

Components:
Nuclear Repulsion  :         1514.69988809 Eh           41217.07939 eV
Electronic Energy  :        -2785.58494411 Eh          -75799.61991 eV
One Electron Energy:        -4925.50618776 Eh         -134029.83731 eV
Two Electron Energy:         2139.92124365 Eh           58230.21741 eV

Virial components:
Potential Energy   :        -2539.72660007 Eh          -69109.47425 eV
Kinetic Energy     :         1268.84154406 Eh           34526.93373 eV
Virial Ratio       :            2.00161053


---------------
SCF CONVERGENCE
---------------

  Last Energy change         ...    7.3182e-09  Tolerance :   1.0000e-08
  Last MAX-Density change    ...    2.3285e-06  Tolerance :   1.0000e-07
  Last RMS-Density change    ...    2.7243e-08  Tolerance :   5.0000e-09
  Last Orbital Gradient      ...    1.0457e-06  Tolerance :   1.0000e-05
  Last Orbital Rotation      ...    2.2638e-06  Tolerance :   1.0000e-05

             **** THE GBW FILE WAS UPDATED (qm_input.solv.gbw) ****
             **** DENSITY qm_input.solv.scfp WAS UPDATED ****
             **** ENERGY FILE WAS UPDATED (qm_input.solv.en.tmp) ****
             **** THE GBW FILE WAS UPDATED (qm_input.solv.gbw) ****
             **** DENSITY qm_input.solv.scfp WAS UPDATED ****
----------------
ORBITAL ENERGIES
----------------

  NO   OCC          E(Eh)            E(eV) 
   0   2.0000     -90.767753     -2469.9161 
   1   2.0000     -19.485971      -530.2402 
   2   2.0000     -19.445566      -529.1407 
   3   2.0000     -19.423049      -528.5280 
   4   2.0000     -14.493959      -394.4007 
   5   2.0000     -14.474312      -393.8660 
   6   2.0000     -10.290058      -280.0067 
   7   2.0000     -10.261573      -279.2316 
   8   2.0000     -10.201198      -277.5887 
   9   2.0000     -10.178725      -276.9772 
  10   2.0000     -10.162752      -276.5425 
  11   2.0000     -10.156923      -276.3839 
  12   2.0000     -10.133141      -275.7368 
  13   2.0000     -10.128236      -275.6033 
  14   2.0000     -10.114946      -275.2417 
  15   2.0000     -10.101095      -274.8648 
  16   2.0000     -10.097654      -274.7711 
  17   2.0000     -10.097064      -274.7551 
  18   2.0000     -10.096731      -274.7460 
  19   2.0000     -10.077263      -274.2163 
  20   2.0000      -7.773387      -211.5246 
  21   2.0000      -5.455186      -148.4431 
  22   2.0000      -5.453284      -148.3914 
  23   2.0000      -5.452809      -148.3785 
  24   2.0000      -0.324237        -8.8229 
  25   2.0000      -0.274853        -7.4791 
  26   2.0000      -0.208533        -5.6745 
  27   2.0000      -0.205662        -5.5963 
  28   2.0000      -0.097119        -2.6427 
  29   2.0000      -0.021312        -0.5799 
  30   2.0000       0.015746         0.4285 
  31   2.0000       0.083153         2.2627 
  32   2.0000       0.090670         2.4673 
  33   2.0000       0.122829         3.3424 
  34   2.0000       0.142605         3.8805 
  35   2.0000       0.150411         4.0929 
  36   2.0000       0.210124         5.7178 
  37   2.0000       0.239970         6.5299 
  38   2.0000       0.285736         7.7753 
  39   2.0000       0.294344         8.0095 
  40   2.0000       0.315805         8.5935 
  41   2.0000       0.328405         8.9364 
  42   2.0000       0.374449        10.1893 
  43   2.0000       0.399022        10.8579 
  44   2.0000       0.409555        11.1446 
  45   2.0000       0.437608        11.9079 
  46   2.0000       0.446862        12.1597 
  47   2.0000       0.454553        12.3690 
  48   2.0000       0.466748        12.7009 
  49   2.0000       0.482800        13.1377 
  50   2.0000       0.485360        13.2073 
  51   2.0000       0.492015        13.3884 
  52   2.0000       0.506166        13.7735 
  53   2.0000       0.527297        14.3485 
  54   2.0000       0.528057        14.3692 
  55   2.0000       0.536360        14.5951 
  56   2.0000       0.543554        14.7909 
  57   2.0000       0.555759        15.1230 
  58   2.0000       0.563081        15.3222 
  59   2.0000       0.571879        15.5616 
  60   2.0000       0.583793        15.8858 
  61   2.0000       0.593867        16.1600 
  62   2.0000       0.603548        16.4234 
  63   2.0000       0.607832        16.5400 
  64   2.0000       0.613677        16.6990 
  65   2.0000       0.626181        17.0393 
  66   2.0000       0.631871        17.1941 
  67   2.0000       0.644563        17.5394 
  68   2.0000       0.653416        17.7803 
  69   2.0000       0.667759        18.1706 
  70   2.0000       0.676906        18.4195 
  71   2.0000       0.684888        18.6367 
  72   2.0000       0.773961        21.0605 
  73   2.0000       0.786832        21.4108 
  74   2.0000       0.792013        21.5518 
  75   2.0000       0.800958        21.7952 
  76   2.0000       0.819486        22.2993 
  77   0.0000       1.199908        32.6511 
  78   0.0000       1.244125        33.8544 
  79   0.0000       1.267322        34.4856 
  80   0.0000       1.281287        34.8656 
  81   0.0000       1.284017        34.9399 
  82   0.0000       1.301691        35.4208 
  83   0.0000       1.306219        35.5440 
  84   0.0000       1.311075        35.6762 
  85   0.0000       1.324764        36.0487 
  86   0.0000       1.331325        36.2272 
  87   0.0000       1.334613        36.3167 
  88   0.0000       1.341722        36.5101 
  89   0.0000       1.350870        36.7590 
  90   0.0000       1.354292        36.8522 
  91   0.0000       1.355837        36.8942 
  92   0.0000       1.360912        37.0323 
  93   0.0000       1.370241        37.2862 
  94   0.0000       1.376931        37.4682 
  95   0.0000       1.389764        37.8174 
  96   0.0000       1.395434        37.9717 
  97   0.0000       1.398377        38.0518 
  98   0.0000       1.399485        38.0819 
  99   0.0000       1.414801        38.4987 
 100   0.0000       1.432039        38.9678 
 101   0.0000       1.445722        39.3401 
 102   0.0000       1.455069        39.5944 
 103   0.0000       1.458129        39.6777 
 104   0.0000       1.463767        39.8311 
 105   0.0000       1.475488        40.1501 
 106   0.0000       1.482628        40.3443 
 107   0.0000       1.494057        40.6554 
 108   0.0000       1.502239        40.8780 
 109   0.0000       1.505112        40.9562 
 110   0.0000       1.508984        41.0616 
 111   0.0000       1.516262        41.2596 
 112   0.0000       1.523100        41.4457 
 113   0.0000       1.531805        41.6825 
 114   0.0000       1.536349        41.8062 
 115   0.0000       1.541965        41.9590 
 116   0.0000       1.547666        42.1141 
 117   0.0000       1.559445        42.4347 
 118   0.0000       1.562676        42.5226 
 119   0.0000       1.568069        42.6693 
 120   0.0000       1.578102        42.9423 
 121   0.0000       1.580264        43.0012 
 122   0.0000       1.592271        43.3279 
 123   0.0000       1.596207        43.4350 
 124   0.0000       1.598023        43.4844 
 125   0.0000       1.601126        43.5689 
 126   0.0000       1.606536        43.7161 
 127   0.0000       1.614026        43.9199 
 128   0.0000       1.621287        44.1175 
 129   0.0000       1.629639        44.3447 
 130   0.0000       1.632386        44.4195 
 131   0.0000       1.641643        44.6714 
 132   0.0000       1.649625        44.8886 
 133   0.0000       1.653583        44.9963 
 134   0.0000       1.663462        45.2651 
 135   0.0000       1.664886        45.3039 
 136   0.0000       1.667784        45.3827 
 137   0.0000       1.673422        45.5361 
 138   0.0000       1.680645        45.7327 
 139   0.0000       1.686142        45.8822 
 140   0.0000       1.694246        46.1028 
 141   0.0000       1.700590        46.2754 
 142   0.0000       1.705303        46.4037 
 143   0.0000       1.709233        46.5106 
 144   0.0000       1.718270        46.7565 
 145   0.0000       1.718799        46.7709 
 146   0.0000       1.723772        46.9062 
 147   0.0000       1.726374        46.9770 
 148   0.0000       1.729829        47.0710 
 149   0.0000       1.734217        47.1904 
 150   0.0000       1.742693        47.4211 
 151   0.0000       1.749480        47.6058 
 152   0.0000       1.754455        47.7411 
 153   0.0000       1.757124        47.8138 
 154   0.0000       1.765104        48.0309 
 155   0.0000       1.767671        48.1008 
 156   0.0000       1.771995        48.2184 
 157   0.0000       1.774811        48.2951 
 158   0.0000       1.779938        48.4346 
 159   0.0000       1.781297        48.4716 
 160   0.0000       1.785123        48.5757 
 161   0.0000       1.790651        48.7261 
 162   0.0000       1.790846        48.7314 
 163   0.0000       1.802767        49.0558 
 164   0.0000       1.804506        49.1031 
 165   0.0000       1.812658        49.3249 
 166   0.0000       1.823530        49.6208 
 167   0.0000       1.824526        49.6479 
 168   0.0000       1.830855        49.8201 
 169   0.0000       1.836491        49.9735 
 170   0.0000       1.841440        50.1081 
 171   0.0000       1.846887        50.2564 
 172   0.0000       1.856229        50.5106 
 173   0.0000       1.859054        50.5874 
 174   0.0000       1.864828        50.7445 
 175   0.0000       1.872870        50.9634 
 176   0.0000       1.877097        51.0784 
 177   0.0000       1.883873        51.2628 
 178   0.0000       1.893938        51.5367 
 179   0.0000       1.896788        51.6142 
 180   0.0000       1.903148        51.7873 
 181   0.0000       1.908510        51.9332 
 182   0.0000       1.915079        52.1119 
 183   0.0000       1.921990        52.3000 
 184   0.0000       1.934254        52.6337 
 185   0.0000       1.940340        52.7993 
 186   0.0000       1.951689        53.1081 
 187   0.0000       1.956899        53.2499 
 188   0.0000       1.960474        53.3472 
 189   0.0000       1.968402        53.5629 
 190   0.0000       1.971766        53.6545 
 191   0.0000       1.981197        53.9111 
 192   0.0000       1.986430        54.0535 
 193   0.0000       1.993962        54.2585 
 194   0.0000       1.998497        54.3819 
 195   0.0000       2.006414        54.5973 
 196   0.0000       2.013378        54.7868 
 197   0.0000       2.023548        55.0635 
 198   0.0000       2.041034        55.5394 
 199   0.0000       2.043325        55.6017 
 200   0.0000       2.053427        55.8766 
 201   0.0000       2.055075        55.9214 
 202   0.0000       2.062268        56.1172 
 203   0.0000       2.066045        56.2199 
 204   0.0000       2.073823        56.4316 
 205   0.0000       2.080159        56.6040 
 206   0.0000       2.081907        56.6516 
 207   0.0000       2.087915        56.8151 
 208   0.0000       2.097248        57.0690 
 209   0.0000       2.105781        57.3012 
 210   0.0000       2.111325        57.4521 
 211   0.0000       2.121792        57.7369 
 212   0.0000       2.140656        58.2502 
 213   0.0000       2.142408        58.2979 
 214   0.0000       2.152824        58.5813 
 215   0.0000       2.156227        58.6739 
 216   0.0000       2.165158        58.9169 
 217   0.0000       2.169489        59.0348 
 218   0.0000       2.175896        59.2091 
 219   0.0000       2.185065        59.4586 
 220   0.0000       2.190324        59.6017 
 221   0.0000       2.196852        59.7794 
 222   0.0000       2.201571        59.9078 
 223   0.0000       2.213668        60.2370 
 224   0.0000       2.216126        60.3038 
 225   0.0000       2.226444        60.5846 
 226   0.0000       2.238724        60.9188 
 227   0.0000       2.239875        60.9501 
 228   0.0000       2.246945        61.1425 
 229   0.0000       2.258303        61.4515 
 230   0.0000       2.269550        61.7576 
 231   0.0000       2.280447        62.0541 
 232   0.0000       2.282972        62.1228 
 233   0.0000       2.286779        62.2264 
 234   0.0000       2.291838        62.3641 
 235   0.0000       2.301497        62.6269 
 236   0.0000       2.306971        62.7759 
 237   0.0000       2.313104        62.9428 
 238   0.0000       2.322376        63.1951 
 239   0.0000       2.328819        63.3704 
 240   0.0000       2.335907        63.5633 
 241   0.0000       2.338684        63.6388 
 242   0.0000       2.340607        63.6911 
 243   0.0000       2.348329        63.9013 
 244   0.0000       2.357784        64.1586 
 245   0.0000       2.365551        64.3699 
 246   0.0000       2.371325        64.5270 
 247   0.0000       2.380606        64.7796 
 248   0.0000       2.388517        64.9948 
 249   0.0000       2.394130        65.1476 
 250   0.0000       2.396323        65.2073 
 251   0.0000       2.410015        65.5798 
 252   0.0000       2.418063        65.7988 
 253   0.0000       2.422180        65.9109 
 254   0.0000       2.433645        66.2229 
 255   0.0000       2.444381        66.5150 
 256   0.0000       2.447054        66.5877 
 257   0.0000       2.460484        66.9532 
 258   0.0000       2.464666        67.0670 
 259   0.0000       2.475161        67.3526 
 260   0.0000       2.482867        67.5622 
 261   0.0000       2.491270        67.7909 
 262   0.0000       2.494089        67.8676 
 263   0.0000       2.502517        68.0969 
 264   0.0000       2.516038        68.4649 
 265   0.0000       2.518923        68.5434 
 266   0.0000       2.521797        68.6216 
 267   0.0000       2.529642        68.8351 
 268   0.0000       2.540209        69.1226 
 269   0.0000       2.554292        69.5058 
 270   0.0000       2.557278        69.5871 
 271   0.0000       2.563746        69.7631 
 272   0.0000       2.585313        70.3500 
 273   0.0000       2.589721        70.4699 
 274   0.0000       2.595166        70.6181 
 275   0.0000       2.603112        70.8343 
 276   0.0000       2.616146        71.1890 
 277   0.0000       2.621054        71.3225 
 278   0.0000       2.624004        71.4028 
 279   0.0000       2.633706        71.6668 
 280   0.0000       2.637760        71.7771 
 281   0.0000       2.644632        71.9641 
 282   0.0000       2.652450        72.1768 
 283   0.0000       2.654389        72.2296 
 284   0.0000       2.665534        72.5329 
 285   0.0000       2.669830        72.6498 
 286   0.0000       2.677635        72.8622 
 287   0.0000       2.679682        72.9178 
 288   0.0000       2.688251        73.1510 
 289   0.0000       2.695091        73.3372 
 290   0.0000       2.706584        73.6499 
 291   0.0000       2.712092        73.7998 
 292   0.0000       2.712966        73.8236 
 293   0.0000       2.718650        73.9782 
 294   0.0000       2.722988        74.0963 
 295   0.0000       2.734635        74.4132 
 296   0.0000       2.738406        74.5158 
 297   0.0000       2.744602        74.6844 
 298   0.0000       2.753281        74.9206 
 299   0.0000       2.765261        75.2466 
 300   0.0000       2.773670        75.4754 
 301   0.0000       2.780820        75.6700 
 302   0.0000       2.785542        75.7985 
 303   0.0000       2.798228        76.1436 
 304   0.0000       2.799856        76.1880 
 305   0.0000       2.810398        76.4748 
 306   0.0000       2.815829        76.6226 
 307   0.0000       2.828167        76.9583 
 308   0.0000       2.832016        77.0631 
 309   0.0000       2.845227        77.4226 
 310   0.0000       2.856863        77.7392 
 311   0.0000       2.860359        77.8343 
 312   0.0000       2.871731        78.1438 
 313   0.0000       2.889556        78.6288 
 314   0.0000       2.893594        78.7387 
 315   0.0000       2.899634        78.9030 
 316   0.0000       2.904859        79.0452 
 317   0.0000       2.921075        79.4865 
 318   0.0000       2.929548        79.7171 
 319   0.0000       2.940408        80.0126 
 320   0.0000       2.943179        80.0880 
 321   0.0000       2.954194        80.3877 
 322   0.0000       2.957994        80.4911 
 323   0.0000       2.971998        80.8722 
 324   0.0000       2.973319        80.9081 
 325   0.0000       2.990487        81.3753 
 326   0.0000       3.004195        81.7483 
 327   0.0000       3.010721        81.9259 
 328   0.0000       3.022026        82.2335 
 329   0.0000       3.031857        82.5010 
 330   0.0000       3.044862        82.8549 
 331   0.0000       3.046499        82.8995 
 332   0.0000       3.059788        83.2611 
 333   0.0000       3.072093        83.5959 
 334   0.0000       3.099504        84.3418 
 335   0.0000       3.101192        84.3877 
 336   0.0000       3.111961        84.6808 
 337   0.0000       3.124686        85.0270 
 338   0.0000       3.135468        85.3204 
 339   0.0000       3.137420        85.3735 
 340   0.0000       3.161882        86.0392 
 341   0.0000       3.165592        86.1402 
 342   0.0000       3.184596        86.6573 
 343   0.0000       3.201196        87.1090 
 344   0.0000       3.212295        87.4110 
 345   0.0000       3.229379        87.8759 
 346   0.0000       3.243777        88.2677 
 347   0.0000       3.251637        88.4816 
 348   0.0000       3.275102        89.1201 
 349   0.0000       3.281253        89.2874 
 350   0.0000       3.293735        89.6271 
 351   0.0000       3.318494        90.3008 
 352   0.0000       3.333333        90.7046 
 353   0.0000       3.349011        91.1312 
 354   0.0000       3.369292        91.6831 
 355   0.0000       3.375979        91.8651 
 356   0.0000       3.398645        92.4818 
 357   0.0000       3.406898        92.7064 
 358   0.0000       3.407323        92.7180 
 359   0.0000       3.416552        92.9691 
 360   0.0000       3.443341        93.6981 
 361   0.0000       3.451343        93.9158 
 362   0.0000       3.467191        94.3471 
 363   0.0000       3.484202        94.8100 
 364   0.0000       3.493540        95.0641 
 365   0.0000       3.505103        95.3787 
 366   0.0000       3.516937        95.7007 
 367   0.0000       3.524610        95.9095 
 368   0.0000       3.544642        96.4546 
 369   0.0000       3.554426        96.7208 
 370   0.0000       3.564299        96.9895 
 371   0.0000       3.578591        97.3784 
 372   0.0000       3.582540        97.4859 
 373   0.0000       3.603746        98.0629 
 374   0.0000       3.627391        98.7063 
 375   0.0000       3.631640        98.8219 
 376   0.0000       3.645070        99.1874 
 377   0.0000       3.656301        99.4930 
 378   0.0000       3.665651        99.7474 
 379   0.0000       3.671264        99.9002 
 380   0.0000       3.691708       100.4565 
 381   0.0000       3.709327       100.9359 
 382   0.0000       3.725508       101.3762 
 383   0.0000       3.746571       101.9494 
 384   0.0000       3.754058       102.1531 
 385   0.0000       3.759435       102.2994 
 386   0.0000       3.767038       102.5063 
 387   0.0000       3.769195       102.5650 
 388   0.0000       3.781990       102.9132 
 389   0.0000       3.800016       103.4037 
 390   0.0000       3.810480       103.6884 
 391   0.0000       3.818586       103.9090 
 392   0.0000       3.839422       104.4760 
 393   0.0000       3.840727       104.5115 
 394   0.0000       3.846937       104.6805 
 395   0.0000       3.871747       105.3556 
 396   0.0000       3.876139       105.4751 
 397   0.0000       3.881394       105.6181 
 398   0.0000       3.887800       105.7924 
 399   0.0000       3.894205       105.9667 
 400   0.0000       3.904265       106.2404 
 401   0.0000       3.911217       106.4296 
 402   0.0000       3.927013       106.8595 
 403   0.0000       3.937664       107.1493 
 404   0.0000       3.956087       107.6506 
 405   0.0000       3.963398       107.8495 
 406   0.0000       3.975026       108.1659 
 407   0.0000       3.983611       108.3996 
 408   0.0000       3.991676       108.6190 
 409   0.0000       3.994104       108.6851 
 410   0.0000       4.000296       108.8536 
 411   0.0000       4.007747       109.0563 
 412   0.0000       4.023697       109.4904 
 413   0.0000       4.025749       109.5462 
 414   0.0000       4.052807       110.2825 
 415   0.0000       4.064782       110.6083 
 416   0.0000       4.070459       110.7628 
 417   0.0000       4.074646       110.8768 
 418   0.0000       4.086859       111.2091 
 419   0.0000       4.095752       111.4511 
 420   0.0000       4.102574       111.6367 
 421   0.0000       4.106113       111.7330 
 422   0.0000       4.110091       111.8413 
 423   0.0000       4.118033       112.0574 
 424   0.0000       4.133344       112.4740 
 425   0.0000       4.134558       112.5070 
 426   0.0000       4.147099       112.8483 
 427   0.0000       4.152256       112.9886 
 428   0.0000       4.155683       113.0819 
 429   0.0000       4.179501       113.7300 
 430   0.0000       4.187499       113.9476 
 431   0.0000       4.192149       114.0742 
 432   0.0000       4.201527       114.3294 
 433   0.0000       4.204375       114.4069 
 434   0.0000       4.215613       114.7127 
 435   0.0000       4.222365       114.8964 
 436   0.0000       4.232206       115.1642 
 437   0.0000       4.238269       115.3292 
 438   0.0000       4.240451       115.3885 
 439   0.0000       4.249650       115.6389 
 440   0.0000       4.254172       115.7619 
 441   0.0000       4.263772       116.0231 
 442   0.0000       4.266643       116.1013 
 443   0.0000       4.275420       116.3401 
 444   0.0000       4.283738       116.5664 
 445   0.0000       4.295108       116.8758 
 446   0.0000       4.304618       117.1346 
 447   0.0000       4.313321       117.3714 
 448   0.0000       4.316631       117.4615 
 449   0.0000       4.319393       117.5367 
 450   0.0000       4.332957       117.9058 
 451   0.0000       4.344529       118.2206 
 452   0.0000       4.353389       118.4617 
 453   0.0000       4.357800       118.5818 
 454   0.0000       4.366931       118.8302 
 455   0.0000       4.367288       118.8400 
 456   0.0000       4.375418       119.0612 
 457   0.0000       4.380522       119.2001 
 458   0.0000       4.386334       119.3582 
 459   0.0000       4.397883       119.6725 
 460   0.0000       4.398744       119.6959 
 461   0.0000       4.409926       120.0002 
 462   0.0000       4.415944       120.1640 
 463   0.0000       4.425432       120.4221 
 464   0.0000       4.428474       120.5049 
 465   0.0000       4.440850       120.8417 
 466   0.0000       4.444939       120.9529 
 467   0.0000       4.451415       121.1292 
 468   0.0000       4.460006       121.3629 
 469   0.0000       4.467673       121.5716 
 470   0.0000       4.474987       121.7706 
 471   0.0000       4.480466       121.9197 
 472   0.0000       4.482989       121.9883 
 473   0.0000       4.493375       122.2709 
 474   0.0000       4.497385       122.3801 
 475   0.0000       4.506407       122.6256 
 476   0.0000       4.512157       122.7820 
 477   0.0000       4.518021       122.9416 
 478   0.0000       4.520515       123.0095 
 479   0.0000       4.529525       123.2546 
 480   0.0000       4.533978       123.3758 
 481   0.0000       4.543846       123.6443 
 482   0.0000       4.545506       123.6895 
 483   0.0000       4.549953       123.8105 
 484   0.0000       4.553952       123.9193 
 485   0.0000       4.561632       124.1283 
 486   0.0000       4.563770       124.1865 
 487   0.0000       4.566116       124.2503 
 488   0.0000       4.569884       124.3529 
 489   0.0000       4.572381       124.4208 
 490   0.0000       4.581968       124.6817 
 491   0.0000       4.588588       124.8618 
 492   0.0000       4.592577       124.9704 
 493   0.0000       4.598212       125.1237 
 494   0.0000       4.603026       125.2547 
 495   0.0000       4.607780       125.3841 
 496   0.0000       4.614736       125.5734 
 497   0.0000       4.622247       125.7777 
 498   0.0000       4.628552       125.9493 
 499   0.0000       4.632227       126.0493 
 500   0.0000       4.642296       126.3233 
 501   0.0000       4.653728       126.6344 
 502   0.0000       4.660576       126.8207 
 503   0.0000       4.674903       127.2106 
 504   0.0000       4.682833       127.4264 
 505   0.0000       4.689975       127.6207 
 506   0.0000       4.696459       127.7971 
 507   0.0000       4.707048       128.0853 
 508   0.0000       4.712650       128.2377 
 509   0.0000       4.719140       128.4143 
 510   0.0000       4.720986       128.4646 
 511   0.0000       4.729512       128.6966 
 512   0.0000       4.735298       128.8540 
 513   0.0000       4.742091       129.0389 
 514   0.0000       4.744479       129.1038 
 515   0.0000       4.751773       129.3023 
 516   0.0000       4.761551       129.5684 
 517   0.0000       4.767108       129.7196 
 518   0.0000       4.774319       129.9158 
 519   0.0000       4.788472       130.3010 
 520   0.0000       4.790968       130.3689 
 521   0.0000       4.794156       130.4556 
 522   0.0000       4.803752       130.7167 
 523   0.0000       4.804847       130.7465 
 524   0.0000       4.810265       130.8940 
 525   0.0000       4.818385       131.1149 
 526   0.0000       4.821324       131.1949 
 527   0.0000       4.825180       131.2998 
 528   0.0000       4.832866       131.5090 
 529   0.0000       4.842602       131.7739 
 530   0.0000       4.846202       131.8719 
 531   0.0000       4.850768       131.9961 
 532   0.0000       4.860096       132.2499 
 533   0.0000       4.870800       132.5412 
 534   0.0000       4.875025       132.6562 
 535   0.0000       4.879864       132.7879 
 536   0.0000       4.883605       132.8897 
 537   0.0000       4.890941       133.0893 
 538   0.0000       4.899042       133.3097 
 539   0.0000       4.909330       133.5897 
 540   0.0000       4.914837       133.7395 
 541   0.0000       4.926627       134.0603 
 542   0.0000       4.934386       134.2715 
 543   0.0000       4.936767       134.3363 
 544   0.0000       4.944362       134.5429 
 545   0.0000       4.954761       134.8259 
 546   0.0000       4.961936       135.0211 
 547   0.0000       4.971066       135.2696 
 548   0.0000       4.974523       135.3637 
 549   0.0000       4.983846       135.6173 
 550   0.0000       4.984819       135.6438 
 551   0.0000       4.996999       135.9752 
 552   0.0000       5.001446       136.0963 
 553   0.0000       5.005626       136.2100 
 554   0.0000       5.023984       136.7096 
 555   0.0000       5.044785       137.2756 
 556   0.0000       5.048378       137.3733 
 557   0.0000       5.066356       137.8626 
 558   0.0000       5.073181       138.0483 
 559   0.0000       5.079396       138.2174 
 560   0.0000       5.081428       138.2727 
 561   0.0000       5.089986       138.5056 
 562   0.0000       5.106604       138.9578 
 563   0.0000       5.113367       139.1418 
 564   0.0000       5.114176       139.1638 
 565   0.0000       5.128232       139.5463 
 566   0.0000       5.133285       139.6838 
 567   0.0000       5.136919       139.7827 
 568   0.0000       5.156808       140.3239 
 569   0.0000       5.161822       140.4603 
 570   0.0000       5.171371       140.7202 
 571   0.0000       5.175339       140.8281 
 572   0.0000       5.179729       140.9476 
 573   0.0000       5.189273       141.2073 
 574   0.0000       5.198362       141.4546 
 575   0.0000       5.220985       142.0702 
 576   0.0000       5.226384       142.2171 
 577   0.0000       5.231903       142.3673 
 578   0.0000       5.238587       142.5492 
 579   0.0000       5.249017       142.8330 
 580   0.0000       5.254415       142.9799 
 581   0.0000       5.260533       143.1464 
 582   0.0000       5.267530       143.3368 
 583   0.0000       5.272425       143.4700 
 584   0.0000       5.279166       143.6534 
 585   0.0000       5.290810       143.9702 
 586   0.0000       5.299722       144.2128 
 587   0.0000       5.303570       144.3175 
 588   0.0000       5.305259       144.3634 
 589   0.0000       5.315214       144.6343 
 590   0.0000       5.326357       144.9376 
 591   0.0000       5.329265       145.0167 
 592   0.0000       5.336626       145.2170 
 593   0.0000       5.344908       145.4423 
 594   0.0000       5.349247       145.5604 
 595   0.0000       5.355281       145.7246 
 596   0.0000       5.361742       145.9004 
 597   0.0000       5.370832       146.1478 
 598   0.0000       5.382167       146.4562 
 599   0.0000       5.386892       146.5848 
 600   0.0000       5.402044       146.9971 
 601   0.0000       5.406895       147.1291 
 602   0.0000       5.412665       147.2861 
 603   0.0000       5.419421       147.4699 
 604   0.0000       5.425699       147.6408 
 605   0.0000       5.431122       147.7883 
 606   0.0000       5.433359       147.8492 
 607   0.0000       5.447506       148.2342 
 608   0.0000       5.452673       148.3748 
 609   0.0000       5.466702       148.7565 
 610   0.0000       5.475844       149.0053 
 611   0.0000       5.481637       149.1629 
 612   0.0000       5.485711       149.2738 
 613   0.0000       5.496212       149.5595 
 614   0.0000       5.499778       149.6566 
 615   0.0000       5.512283       149.9968 
 616   0.0000       5.516460       150.1105 
 617   0.0000       5.524168       150.3203 
 618   0.0000       5.531041       150.5073 
 619   0.0000       5.547457       150.9540 
 620   0.0000       5.554301       151.1402 
 621   0.0000       5.559061       151.2697 
 622   0.0000       5.562313       151.3582 
 623   0.0000       5.571105       151.5975 
 624   0.0000       5.581031       151.8676 
 625   0.0000       5.589495       152.0979 
 626   0.0000       5.594174       152.2252 
 627   0.0000       5.608290       152.6093 
 628   0.0000       5.611426       152.6947 
 629   0.0000       5.617425       152.8579 
 630   0.0000       5.629350       153.1824 
 631   0.0000       5.641146       153.5034 
 632   0.0000       5.647875       153.6865 
 633   0.0000       5.653692       153.8448 
 634   0.0000       5.670716       154.3080 
 635   0.0000       5.686802       154.7457 
 636   0.0000       5.691212       154.8658 
 637   0.0000       5.705186       155.2460 
 638   0.0000       5.707971       155.3218 
 639   0.0000       5.716663       155.5583 
 640   0.0000       5.719645       155.6394 
 641   0.0000       5.727748       155.8599 
 642   0.0000       5.732628       155.9928 
 643   0.0000       5.739965       156.1924 
 644   0.0000       5.745537       156.3440 
 645   0.0000       5.755686       156.6202 
 646   0.0000       5.766919       156.9259 
 647   0.0000       5.775228       157.1520 
 648   0.0000       5.778745       157.2477 
 649   0.0000       5.799073       157.8008 
 650   0.0000       5.806401       158.0002 
 651   0.0000       5.812917       158.1775 
 652   0.0000       5.820995       158.3973 
 653   0.0000       5.825092       158.5088 
 654   0.0000       5.854632       159.3126 
 655   0.0000       5.860855       159.4820 
 656   0.0000       5.861865       159.5095 
 657   0.0000       5.874576       159.8553 
 658   0.0000       5.879353       159.9853 
 659   0.0000       5.896839       160.4612 
 660   0.0000       5.901696       160.5933 
 661   0.0000       5.913669       160.9191 
 662   0.0000       5.913924       160.9261 
 663   0.0000       5.924793       161.2218 
 664   0.0000       5.935967       161.5259 
 665   0.0000       5.959006       162.1528 
 666   0.0000       5.974867       162.5844 
 667   0.0000       5.987286       162.9223 
 668   0.0000       5.990368       163.0062 
 669   0.0000       6.010641       163.5579 
 670   0.0000       6.026995       164.0029 
 671   0.0000       6.061978       164.9548 
 672   0.0000       6.080900       165.4697 
 673   0.0000       6.099226       165.9684 
 674   0.0000       6.108717       166.2266 
 675   0.0000       6.126675       166.7153 
 676   0.0000       6.147226       167.2745 
 677   0.0000       6.154895       167.4832 
 678   0.0000       6.166320       167.7941 
 679   0.0000       6.187652       168.3746 
 680   0.0000       6.199409       168.6945 
 681   0.0000       6.216754       169.1665 
 682   0.0000       6.227876       169.4691 
 683   0.0000       6.235771       169.6840 
 684   0.0000       6.240205       169.8046 
 685   0.0000       6.257014       170.2620 
 686   0.0000       6.265047       170.4806 
 687   0.0000       6.270695       170.6343 
 688   0.0000       6.298358       171.3870 
 689   0.0000       6.307891       171.6464 
 690   0.0000       6.311083       171.7333 
 691   0.0000       6.314375       171.8229 
 692   0.0000       6.327176       172.1712 
 693   0.0000       6.341287       172.5552 
 694   0.0000       6.351601       172.8358 
 695   0.0000       6.353620       172.8908 
 696   0.0000       6.372877       173.4148 
 697   0.0000       6.374550       173.4603 
 698   0.0000       6.381694       173.6547 
 699   0.0000       6.393843       173.9853 
 700   0.0000       6.407555       174.3584 
 701   0.0000       6.420952       174.7230 
 702   0.0000       6.440266       175.2485 
 703   0.0000       6.458193       175.7364 
 704   0.0000       6.465022       175.9222 
 705   0.0000       6.467913       176.0009 
 706   0.0000       6.494147       176.7147 
 707   0.0000       6.507917       177.0894 
 708   0.0000       6.515375       177.2924 
 709   0.0000       6.531573       177.7331 
 710   0.0000       6.542898       178.0413 
 711   0.0000       6.556117       178.4010 
 712   0.0000       6.578916       179.0214 
 713   0.0000       6.606531       179.7729 
 714   0.0000       6.612819       179.9439 
 715   0.0000       6.616560       180.0457 
 716   0.0000       6.637801       180.6237 
 717   0.0000       6.657298       181.1543 
 718   0.0000       6.659255       181.2075 
 719   0.0000       6.669153       181.4769 
 720   0.0000       6.675816       181.6582 
 721   0.0000       6.694820       182.1753 
 722   0.0000       6.719815       182.8555 
 723   0.0000       6.722056       182.9164 
 724   0.0000       6.730586       183.1486 
 725   0.0000       6.744456       183.5260 
 726   0.0000       6.753701       183.7775 
 727   0.0000       6.770974       184.2476 
 728   0.0000       6.774807       184.3519 
 729   0.0000       6.785487       184.6425 
 730   0.0000       6.805116       185.1766 
 731   0.0000       6.814309       185.4268 
 732   0.0000       6.818372       185.5373 
 733   0.0000       6.824123       185.6938 
 734   0.0000       6.836762       186.0377 
 735   0.0000       6.846025       186.2898 
 736   0.0000       6.865172       186.8108 
 737   0.0000       6.881865       187.2651 
 738   0.0000       6.891102       187.5164 
 739   0.0000       6.901574       187.8014 
 740   0.0000       6.909798       188.0252 
 741   0.0000       6.931385       188.6126 
 742   0.0000       6.962991       189.4726 
 743   0.0000       6.970652       189.6811 
 744   0.0000       6.985699       190.0905 
 745   0.0000       6.998627       190.4423 
 746   0.0000       7.000483       190.4928 
 747   0.0000       7.017293       190.9502 
 748   0.0000       7.044173       191.6817 
 749   0.0000       7.052958       191.9207 
 750   0.0000       7.057743       192.0510 
 751   0.0000       7.076852       192.5709 
 752   0.0000       7.106822       193.3864 
 753   0.0000       7.122416       193.8108 
 754   0.0000       7.145416       194.4367 
 755   0.0000       7.151009       194.5888 
 756   0.0000       7.158509       194.7929 
 757   0.0000       7.166270       195.0041 
 758   0.0000       7.195169       195.7905 
 759   0.0000       7.230500       196.7519 
 760   0.0000       7.263945       197.6620 
 761   0.0000       7.299930       198.6412 
 762   0.0000       7.326448       199.3628 
 763   0.0000       7.341158       199.7631 
 764   0.0000       7.373369       200.6396 
 765   0.0000       7.409682       201.6277 
 766   0.0000       7.434188       202.2945 
 767   0.0000       7.457511       202.9292 
 768   0.0000       7.479757       203.5345 
 769   0.0000       7.485636       203.6945 
 770   0.0000       7.493285       203.9027 
 771   0.0000       7.508682       204.3216 
 772   0.0000       7.560046       205.7193 
 773   0.0000       7.581495       206.3030 
 774   0.0000       7.591316       206.5702 
 775   0.0000       7.598677       206.7705 
 776   0.0000       7.610898       207.1031 
 777   0.0000       7.622616       207.4219 
 778   0.0000       7.698444       209.4853 
 779   0.0000       7.703905       209.6339 
 780   0.0000       7.721907       210.1238 
 781   0.0000       7.741376       210.6535 
 782   0.0000       7.790145       211.9806 
 783   0.0000       7.832391       213.1302 
 784   0.0000       7.964350       216.7210 
 785   0.0000       8.002418       217.7569 
 786   0.0000       8.023376       218.3271 
 787   0.0000       8.033133       218.5927 
 788   0.0000       8.083018       219.9501 
 789   0.0000       8.141118       221.5311 
 790   0.0000       8.192348       222.9251 
 791   0.0000       8.195856       223.0206 
 792   0.0000       8.225129       223.8171 
 793   0.0000       8.285086       225.4486 
 794   0.0000       8.325570       226.5503 
 795   0.0000       8.355978       227.3777 
 796   0.0000       8.418661       229.0834 
 797   0.0000       8.439082       229.6391 
 798   0.0000       8.448807       229.9037 
 799   0.0000       8.460711       230.2276 
 800   0.0000       8.463940       230.3155 
 801   0.0000       8.608576       234.2513 
 802   0.0000       8.658500       235.6098 
 803   0.0000       8.756029       238.2637 
 804   0.0000       8.767677       238.5806 
 805   0.0000       8.906369       242.3546 
 806   0.0000       8.936051       243.1623 
 807   0.0000       9.106973       247.8133 
 808   0.0000       9.134947       248.5745 
 809   0.0000      10.430865       283.8383 
 810   0.0000      10.737019       292.1691 
 811   0.0000      11.765836       320.1647 
 812   0.0000      12.119672       329.7930 
 813   0.0000      13.048752       355.0746 
 814   0.0000      13.715653       373.2219 
 815   0.0000      13.786177       375.1410 
 816   0.0000      14.119138       384.2013 
 817   0.0000      14.187720       386.0675 
 818   0.0000      14.284988       388.7143 
 819   0.0000      14.342820       390.2880 
 820   0.0000      14.501662       394.6103 
 821   0.0000      14.747908       401.3110 
 822   0.0000      14.916945       405.9107 
 823   0.0000      15.238592       414.6632 
 824   0.0000      15.365780       418.1241 
 825   0.0000      15.583315       424.0435 
 826   0.0000      16.021331       435.9626 
 827   0.0000      17.179300       467.4725 

                    ********************************
                    * MULLIKEN POPULATION ANALYSIS *
                    ********************************

-----------------------
MULLIKEN ATOMIC CHARGES
-----------------------
   0 C :   -0.286273
   1 C :    0.033478
   2 O :   -0.323426
   3 C :    0.514083
   4 O :   -0.615839
   5 C :   -0.278878
   6 C :    0.236970
   7 C :   -0.296729
   8 N :   -0.109332
   9 C :    0.302944
  10 S :   -0.625335
  11 N :   -0.254293
  12 C :    0.095160
  13 C :    0.029256
  14 C :   -0.243192
  15 C :   -0.151049
  16 C :   -0.295312
  17 C :    0.284147
  18 O :   -0.437111
  19 C :   -0.252112
  20 H :    0.117472
  21 H :    0.089079
  22 H :    0.105839
  23 H :    0.112203
  24 H :    0.124886
  25 H :    0.116297
  26 H :    0.130255
  27 H :    0.133846
  28 H :    0.264342
  29 H :    0.246420
  30 H :    0.171979
  31 H :    0.186510
  32 H :    0.195276
  33 H :    0.189481
  34 H :    0.319005
  35 H :    0.169949
Sum of atomic charges:   -0.0000000

--------------------------------
MULLIKEN REDUCED ORBITAL CHARGES
--------------------------------
  0 C s       :     3.267174  s :     3.267174
      pz      :     1.034773  p :     2.939240
      px      :     0.904004
      py      :     1.000463
      dz2     :     0.014688  d :     0.075036
      dxz     :     0.013689
      dyz     :     0.007373
      dx2y2   :     0.022085
      dxy     :     0.017201
      f0      :     0.000669  f :     0.004822
      f+1     :     0.000953
      f-1     :     0.000346
      f+2     :     0.000313
      f-2     :     0.000221
      f+3     :     0.000864
      f-3     :     0.001456
  1 C s       :     3.158273  s :     3.158273
      pz      :     0.697237  p :     2.647849
      px      :     0.907983
      py      :     1.042629
      dz2     :     0.034215  d :     0.148898
      dxz     :     0.041213
      dyz     :     0.027799
      dx2y2   :     0.026501
      dxy     :     0.019168
      f0      :     0.002860  f :     0.011502
      f+1     :     0.002678
      f-1     :     0.001413
      f+2     :     0.001304
      f-2     :     0.001152
      f+3     :     0.000835
      f-3     :     0.001260
  2 O s       :     3.716028  s :     3.716028
      pz      :     1.373705  p :     4.569003
      px      :     1.667701
      py      :     1.527597
      dz2     :     0.008293  d :     0.036092
      dxz     :     0.004930
      dyz     :     0.010398
      dx2y2   :     0.005788
      dxy     :     0.006682
      f0      :     0.000374  f :     0.002302
      f+1     :     0.000455
[...]
 15 C s       :     2.707118  s :     2.707118
      pz      :     0.906107  p :     2.795459
      px      :     0.954831
      py      :     0.934521
      dz2     :     0.090010  d :     0.417354
      dxz     :     0.062963
      dyz     :     0.076776
      dx2y2   :     0.104961
      dxy     :     0.082644
      f0      :     0.004867  f :     0.041350
      f+1     :     0.005458
      f-1     :     0.005842
      f+2     :     0.007413
      f-2     :     0.005023
      f+3     :     0.005603
      f-3     :     0.007144
 16 C s       :     2.699443  s :     2.699443
      pz      :     0.937518  p :     2.872435
      px      :     0.969648
      py      :     0.965269
      dz2     :     0.041710  d :     0.391337
      dxz     :     0.072242
      dyz     :     0.076721
      dx2y2   :     0.094934
      dxy     :     0.105730
      f0      :     0.003421  f :     0.041979
      f+1     :     0.005432
      f-1     :     0.005221
      f+2     :     0.006763
      f-2     :     0.005592
      f+3     :     0.007183
      f-3     :     0.008366
 17 C s       :     2.690034  s :     2.690034
      pz      :     0.918411  p :     2.703909
      px      :     0.967246
      py      :     0.818252
      dz2     :     0.132394  d :     0.747981
      dxz     :     0.136125
      dyz     :     0.144593
      dx2y2   :     0.182257
      dxy     :     0.152612
      f0      :     0.009082  f :     0.109598
      f+1     :     0.012616
      f-1     :     0.016844
      f+2     :     0.019892
      f-2     :     0.013855
      f+3     :     0.015548
      f-3     :     0.021760
 18 O s       :     3.157043  s :     3.157043
      pz      :     1.565056  p :     4.386052
      px      :     1.404986
      py      :     1.416011
      dz2     :     0.009787  d :     0.076355
      dxz     :     0.013358
      dyz     :     0.016783
      dx2y2   :     0.017537
      dxy     :     0.018889
      f0      :     0.000332  f :     0.004802
      f+1     :     0.000320
      f-1     :     0.000737
      f+2     :     0.001111
      f-2     :     0.000883
      f+3     :     0.000603
      f-3     :     0.000815
 19 C s       :     2.692615  s :     2.692615
      pz      :     0.943534  p :     2.847095
      px      :     0.952971
      py      :     0.950590
      dz2     :     0.075097  d :     0.397756
      dxz     :     0.060696
      dyz     :     0.079614
      dx2y2   :     0.086199
      dxy     :     0.096150
      f0      :     0.004612  f :     0.042704
      f+1     :     0.005070
      f-1     :     0.006359
      f+2     :     0.007898
      f-2     :     0.005870
      f+3     :     0.005246
      f-3     :     0.007649
 20 H s       :     0.829952  s :     0.829952
      pz      :     0.067374  p :     0.150000
      px      :     0.043330
      py      :     0.039297
      dz2     :     0.008867  d :     0.027851
      dxz     :     0.008270
      dyz     :     0.007679
      dx2y2   :     0.001780
      dxy     :     0.001255
 21 H s       :     0.846016  s :     0.846016
      pz      :     0.052407  p :     0.151942
      px      :     0.052373
      py      :     0.047161
      dz2     :     0.007264  d :     0.027856
      dxz     :     0.005308
      dyz     :     0.004128
      dx2y2   :     0.006317
      dxy     :     0.004839
 22 H s       :     0.847891  s :     0.847891
      pz      :     0.041625  p :     0.150928
      px      :     0.037290
      py      :     0.072013
      dz2     :     0.003392  d :     0.027331
      dxz     :     0.000504
      dyz     :     0.008437
      dx2y2   :     0.006658
      dxy     :     0.008340
 23 H s       :     0.840626  s :     0.840626
      pz      :     0.048319  p :     0.150045
      px      :     0.049643
      py      :     0.052084
      dz2     :     0.005690  d :     0.027706
      dxz     :     0.006201
      dyz     :     0.005873
      dx2y2   :     0.006481
      dxy     :     0.003460
 24 H s       :     0.841904  s :     0.841904
      pz      :     0.031154  p :     0.143968
      px      :     0.039054
      py      :     0.073760
      dz2     :     0.003345  d :     0.027516
      dxz     :     0.001073
      dyz     :     0.007703
      dx2y2   :     0.006484
      dxy     :     0.008910
 25 H s       :     0.825552  s :     0.825552
      pz      :     0.058168  p :     0.151231
      px      :     0.051665
      py      :     0.041398
      dz2     :     0.008211  d :     0.028312
      dxz     :     0.006004
      dyz     :     0.006317
      dx2y2   :     0.004646
      dxy     :     0.003134
 26 H s       :     0.821112  s :     0.821112
      pz      :     0.070960  p :     0.155372
      px      :     0.044414
      py      :     0.039998
      dz2     :     0.008782  d :     0.028121
      dxz     :     0.008164
      dyz     :     0.007580
      dx2y2   :     0.002342
      dxy     :     0.001253
 27 H s       :     0.817697  s :     0.817697
      pz      :     0.042395  p :     0.152474
      px      :     0.071444
      py      :     0.038635
      dz2     :     0.002617  d :     0.028025
      dxz     :     0.009168
      dyz     :     0.000895
      dx2y2   :     0.007702
      dxy     :     0.007643
 28 H s       :     0.710321  s :     0.710321
      pz      :     0.083953  p :     0.247956
      px      :     0.086138
      py      :     0.077866
      dz2     :     0.013264  d :     0.060363
      dxz     :     0.008390
      dyz     :     0.014471
      dx2y2   :     0.011091
      dxy     :     0.013149
 29 H s       :     0.729027  s :     0.729027
      pz      :     0.068267  p :     0.256641
      px      :     0.075166
      py      :     0.113208
      dz2     :     0.008708  d :     0.061080
      dxz     :     0.003629
      dyz     :     0.017185
      dx2y2   :     0.013112
      dxy     :     0.018446
 30 H s       :     0.826121  s :     0.826121
      pz      :     0.028259  p :     0.147050
      px      :     0.077096
      py      :     0.041695
      dz2     :     0.002965  d :     0.028045
      dxz     :     0.006949
      dyz     :     0.000814
      dx2y2   :     0.009219
      dxy     :     0.008098
 31 H s       :     0.836849  s :     0.836849
      pz      :     0.048539  p :     0.159068
      px      :     0.044426
      py      :     0.066103
      dz2     :     0.004732  d :     0.027803
      dxz     :     0.003714
      dyz     :     0.006355
      dx2y2   :     0.006530
      dxy     :     0.006473
 32 H s       :     0.831948  s :     0.831948
      pz      :     0.037210  p :     0.152205
      px      :     0.076895
      py      :     0.038100
      dz2     :     0.003094  d :     0.026796
      dxz     :     0.007326
      dyz     :     0.000816
      dx2y2   :     0.007828
      dxy     :     0.007730
 33 H s       :     0.836767  s :     0.836767
      pz      :     0.058737  p :     0.156192
      px      :     0.046689
      py      :     0.050766
      dz2     :     0.006250  d :     0.027493
      dxz     :     0.005274
      dyz     :     0.005807
      dx2y2   :     0.005069
      dxy     :     0.005094
 34 H s       :     0.672729  s :     0.672729
      pz      :     0.112999  p :     0.339213
      px      :     0.144677
      py      :     0.081537
      dz2     :     0.016766  d :     0.097900
      dxz     :     0.024766
      dyz     :     0.011178
      dx2y2   :     0.025011
      dxy     :     0.020179
 35 H s       :     0.831093  s :     0.831093
      pz      :     0.041978  p :     0.156687
      px      :     0.072576
      py      :     0.042133
      dz2     :     0.003152  d :     0.027983
      dxz     :     0.007374
      dyz     :     0.001882
      dx2y2   :     0.007891
      dxy     :     0.007685


                      *****************************
                      * MAYER POPULATION ANALYSIS *
                      *****************************

  NA   - Mulliken gross atomic population
  ZA   - Total nuclear charge
  QA   - Mulliken gross atomic charge
  VA   - Mayer's total valence
  BVA  - Mayer's bonded valence
  FA   - Mayer's free valence

  ATOM       NA         ZA         QA         VA         BVA        FA
  0 C      6.2863     6.0000    -0.2863     3.8639     3.8639     0.0000
  1 C      5.9665     6.0000     0.0335     3.8210     3.8210    -0.0000
  2 O      8.3234     8.0000    -0.3234     2.1106     2.1106    -0.0000
  3 C      5.4859     6.0000     0.5141     4.1870     4.1870     0.0000
  4 O      8.6158     8.0000    -0.6158     1.9038     1.9038     0.0000
  5 C      6.2789     6.0000    -0.2789     3.6861     3.6861     0.0000
  6 C      5.7630     6.0000     0.2370     3.8233     3.8233    -0.0000
  7 C      6.2967     6.0000    -0.2967     3.8679     3.8679     0.0000
  8 N      7.1093     7.0000    -0.1093     3.4088     3.4088    -0.0000
  9 C      5.6971     6.0000     0.3029     4.0768     4.0768    -0.0000
 10 S     16.6253    16.0000    -0.6253     1.5297     1.5297    -0.0000
 11 N      7.2543     7.0000    -0.2543     3.2856     3.2856     0.0000
 12 C      5.9048     6.0000     0.0952     3.9214     3.9214    -0.0000
 13 C      5.9707     6.0000     0.0293     3.6520     3.6520     0.0000
 14 C      6.2432     6.0000    -0.2432     3.8277     3.8277    -0.0000
 15 C      6.1510     6.0000    -0.1510     3.7902     3.7902     0.0000
 16 C      6.2953     6.0000    -0.2953     3.7555     3.7555     0.0000
 17 C      5.7159     6.0000     0.2841     3.8663     3.8663     0.0000
 18 O      8.4371     8.0000    -0.4371     2.0400     2.0400    -0.0000
 19 C      6.2521     6.0000    -0.2521     3.8000     3.8000    -0.0000
 20 H      0.8825     1.0000     0.1175     0.9790     0.9790    -0.0000
 21 H      0.9109     1.0000     0.0891     0.9829     0.9829    -0.0000
 22 H      0.8942     1.0000     0.1058     0.9962     0.9962    -0.0000
 23 H      0.8878     1.0000     0.1122     0.9831     0.9831    -0.0000
 24 H      0.8751     1.0000     0.1249     0.9741     0.9741    -0.0000
 25 H      0.8837     1.0000     0.1163     0.9877     0.9877     0.0000
 26 H      0.8697     1.0000     0.1303     0.9907     0.9907    -0.0000
 27 H      0.8662     1.0000     0.1338     0.9749     0.9749     0.0000
 28 H      0.7357     1.0000     0.2643     0.9641     0.9641     0.0000
 29 H      0.7536     1.0000     0.2464     0.9772     0.9772     0.0000
 30 H      0.8280     1.0000     0.1720     0.9898     0.9898    -0.0000
 31 H      0.8135     1.0000     0.1865     0.9727     0.9727    -0.0000
 32 H      0.8047     1.0000     0.1953     0.9641     0.9641     0.0000
 33 H      0.8105     1.0000     0.1895     0.9764     0.9764    -0.0000
 34 H      0.6810     1.0000     0.3190     0.9430     0.9430     0.0000
 35 H      0.8301     1.0000     0.1699     0.9793     0.9793    -0.0000

  Mayer bond orders larger than 0.100000
B(  0-C ,  1-C ) :   0.9664 B(  0-C , 20-H ) :   0.9705 B(  0-C , 21-H ) :   0.9760 
B(  0-C , 22-H ) :   0.9762 B(  1-C ,  2-O ) :   0.8667 B(  1-C , 23-H ) :   0.9731 
B(  1-C , 24-H ) :   0.9821 B(  2-O ,  3-C ) :   1.2345 B(  3-C ,  4-O ) :   1.7893 
B(  3-C ,  5-C ) :   1.1125 B(  5-C ,  6-C ) :   1.6128 B(  5-C , 12-C ) :   0.9553 
B(  6-C ,  7-C ) :   0.9495 B(  6-C ,  8-N ) :   1.1651 B(  7-C , 25-H ) :   0.9907 
B(  7-C , 26-H ) :   0.9573 B(  7-C , 27-H ) :   0.9569 B(  8-N ,  9-C ) :   1.2858 
B(  8-N , 28-H ) :   0.9103 B(  9-C , 10-S ) :   1.3870 B(  9-C , 11-N ) :   1.3343 
B( 11-N , 12-C ) :   0.9843 B( 11-N , 29-H ) :   0.9288 B( 12-C , 13-C ) :   0.9412 
B( 12-C , 30-H ) :   0.9886 B( 13-C , 14-C ) :   1.3539 B( 13-C , 19-C ) :   1.3086 
B( 14-C , 15-C ) :   1.4056 B( 14-C , 31-H ) :   0.9612 B( 15-C , 16-C ) :   1.3572 
B( 15-C , 32-H ) :   0.9634 B( 16-C , 17-C ) :   1.3335 B( 16-C , 33-H ) :   0.9548 
B( 17-C , 18-O ) :   1.1088 B( 17-C , 19-C ) :   1.3711 B( 18-O , 34-H ) :   0.9165 
B( 19-C , 35-H ) :   0.9646 

-------
TIMINGS
-------

Total SCF time: 0 days 2 hours 9 min 3 sec 

Total time                  ....    7743.109 sec
Sum of individual times     ....    7739.656 sec  (100.0%)

Fock matrix formation       ....    7725.584 sec  ( 99.8%)
Diagonalization             ....       1.810 sec  (  0.0%)
Density matrix formation    ....       0.228 sec  (  0.0%)
Population analysis         ....       0.317 sec  (  0.0%)
Initial guess               ....       6.389 sec  (  0.1%)
Orbital Transformation      ....       0.000 sec  (  0.0%)
Orbital Orthonormalization  ....       0.000 sec  (  0.0%)
DIIS solution               ....       1.934 sec  (  0.0%)
SOSCF solution              ....       1.871 sec  (  0.0%)

Maximum memory used throughout the entire SCF-calculation: 724.7 MB

------------------------------------------------------------------------------
                                ORCA  MP2 
------------------------------------------------------------------------------

Freezing NCore=48 chemical core electrons

-------------
RI-MP2 ENERGY
-------------
Dimension of the basis                    ...  828
Memory devoted to MP2                     ...  256 MB   
Data format for buffers                   ... DOUBLE
Compression type for matrix containers    ... UNCOMPRESSED
Overall scaling of the MP2 energy         ...   1.000e+00
Calculating two index integrals           ... done (    0.048 sec)
Cholesky decomposition of V**-1           ... done (    0.621 sec)

-----------------
RI-TRANSFORMATION (AUX index driven)
-----------------

Dimension of the orbital-basis         ... 828
Dimension of the aux-basis             ... 2141
Transformation of internal/external MOs...   24-  76 to   77- 827
Number Format for Storage              ... Double (8 Byte)
Integral mode                          ... Direct

First Phase: integral generation and transformation of MO indices
  Aux angular momentum 0               ... done (    5.272 sec)
  Aux angular momentum 1               ... done (    8.870 sec)
  Aux angular momentum 2               ... done (   11.228 sec)
  Aux angular momentum 3               ... done (    8.895 sec)
  Aux angular momentum 4               ... done (    3.075 sec)
Closing buffer VIA ( 0.63 GB; CompressionRatio= 1.00)
  Phase 1 completed in    37.542 sec
Second Phase: sorting and transformation of aux index

IA-Transformation
Memory available                       ... 157 MB 
Max. # MO pairs treated in a batch     ... 11    
# of internal orbitals                 ... 53
# batches for internal orbitals        ... 5
Closing buffer IAV ( 0.63 GB; CompressionRatio= 1.00)
(ia|v) transformation done in    18.891 sec

  Phase 2 completed in    18.916 sec
RI-Integral transformation completed in    56.467 sec
Opening buffers                              ... done

Starting loop over batches of integrals:

Operator 0  - window                       ... ( 24- 76)x( 77-827)
Operator 0  - Memory available             ...   256 MB
Operator 0  - Memory needed per MO         ...  12.3 MB
Operator 0  - Number of orbitals per batch ... 13
Operator 0  - Number of batches            ... 5

OPERATOR  0   PASS   0:  MOs    24 ...   36
  Reading integrals       ... ok
  Internal MO  26
  Internal MO  29
  Internal MO  32
  Internal MO  35
OPERATOR  0   PASS   1:  MOs    37 ...   49
  Reading integrals       ... ok
  Internal MO  38
  Internal MO  41
  Internal MO  44
  Internal MO  47
OPERATOR  0   PASS   2:  MOs    50 ...   62
  Reading integrals       ... ok
  Internal MO  50
  Internal MO  53
  Internal MO  56
  Internal MO  59
  Internal MO  62
OPERATOR  0   PASS   3:  MOs    63 ...   75
  Reading integrals       ... ok
  Internal MO  65
  Internal MO  68
  Internal MO  71
  Internal MO  74
OPERATOR  0   PASS   4:  MOs    76 ...   76
  Reading integrals       ... ok
Time spent in pair loops =    98.403 sec
Deleting buffer (Ka|jb)[aa] ...done

-----------------------------------------------
 RI-MP2 CORRELATION ENERGY:     -3.530197512 Eh
-----------------------------------------------


-------
TIMINGS
-------

Total time                :  155.653 sec
Integral trafo            :   56.495 sec ( 36.3%)
I/O of integrals          :    1.228 sec (  0.8%)
K(i,j) Operators          :   68.853 sec ( 44.2%)
T(i,j) pair energies      :   10.320 sec (  6.6%)
V-calculation             :    0.048 sec (  0.0%)
V**(-1/2)                 :    0.621 sec (  0.4%)
Gamma(ia|P)               :    0.000 sec (  0.0%)
Gamma-Trafo               :    0.000 sec (  0.0%)
D(virtual)                :    0.000 sec (  0.0%)
D(internal)               :    0.000 sec (  0.0%)
W(virtual)                :    0.000 sec (  0.0%)
W(internal)               :    0.000 sec (  0.0%)
L(virtual)                :    0.000 sec (  0.0%)
L(internal)               :    0.000 sec (  0.0%)
G(D)                      :    0.000 sec (  0.0%)
G(Z)                      :    0.000 sec (  0.0%)
Z-Vector Solution         :    0.000 sec (  0.0%)
3-Index Derivative        :    0.000 sec (  0.0%)
2-Index Derivative        :    0.000 sec (  0.0%)
Separable Gradient        :    0.000 sec (  0.0%)


---------------------------------------
MP2 TOTAL ENERGY:    -1274.415253531 Eh
---------------------------------------

Maximum memory used throughout the entire MP2-calculation: 303.5 MB

-------------------------   --------------------
FINAL SINGLE POINT ENERGY     -1274.415253530814
-------------------------   --------------------


                            ***************************************
                            *     ORCA property calculations      *
                            ***************************************


  WARNING: The energy has been calculated at the MP2 level but the densities
           used in the property calculations are still SCF densities
           MP2 response densities have not been calculated 
           use %mp2 Density relaxed end
           or  %mp2 Density unrelaxed end

                                    ---------------------
                                    Active property flags
                                    ---------------------
   (+) Dipole Moment


------------------------------------------------------------------------------
                       ORCA ELECTRIC PROPERTIES CALCULATION
------------------------------------------------------------------------------

Dipole Moment Calculation                       ... on
Quadrupole Moment Calculation                   ... off
Polarizability Calculation                      ... off
GBWName                                         ... qm_input.solv.gbw
Electron density file                           ... qm_input.solv.scfp
The origin for moment calculation is the CENTER OF MASS  = (-1.475765, 18.916038  9.313845)

-------------
DIPOLE MOMENT
-------------
                                X             Y             Z
Electronic contribution:     -8.74959      -5.32112      11.93230
Nuclear contribution   :     10.72387       5.04161     -12.69580
                        -----------------------------------------
Total Dipole Moment    :      1.97428      -0.27951      -0.76349
                        -----------------------------------------
Magnitude (a.u.)       :      2.13514
Magnitude (Debye)      :      5.42709



--------------------
Rotational spectrum 
--------------------
 
Rotational constants in cm-1:     0.011813     0.008446     0.005607 
Rotational constants in MHz :   354.131575   253.208212   168.083771 

 Dipole components along the rotational axes: 
x,y,z [a.u.] :    -1.342872     1.049930    -1.285752 
x,y,z [Debye]:    -3.413308     2.668709    -3.268123 

 

Timings for individual modules:

Sum of individual times         ...     8142.786 sec (= 135.713 min)
GTO integral calculation        ...      243.292 sec (=   4.055 min)   3.0 %
SCF iterations                  ...     7743.241 sec (= 129.054 min)  95.1 %
MP2 module                      ...      156.254 sec (=   2.604 min)   1.9 %
                             ****ORCA TERMINATED NORMALLY****
TOTAL RUN TIME: 0 days 2 hours 15 minutes 43 seconds 752 msec
