
                                        *****************
                                        * O   R   C   A *
                                        *****************

                                            #,                                       
                                            ###                                      
                                            ####                                     
                                            #####                                    
                                            ######                                   
                                           ########,                                 
                                     ,,################,,,,,                         
                               ,,#################################,,                 
                          ,,##########################################,,             
                       ,#########################################, ''#####,          
                    ,#############################################,,   '####,        
                  ,##################################################,,,,####,       
                ,###########''''           ''''###############################       
              ,#####''   ,,,,##########,,,,          '''####'''          '####       
            ,##' ,,,,###########################,,,                        '##       
           ' ,,###''''                  '''############,,,                           
         ,,##''                                '''############,,,,        ,,,,,,###''
      ,#''                                            '''#######################'''  
     '                                                          ''''####''''         
             ,#######,   #######,   ,#######,      ##                                
            ,#'     '#,  ##    ##  ,#'     '#,    #''#        ######   ,####,        
            ##       ##  ##   ,#'  ##            #'  '#       #        #'  '#        
            ##       ##  #######   ##           ,######,      #####,   #    #        
            '#,     ,#'  ##    ##  '#,     ,#' ,#      #,         ##   #,  ,#        
             '#######'   ##     ##  '#######'  #'      '#     #####' # '####'        



                  #######################################################
                  #                        -***-                        #
                  #          Department of theory and spectroscopy      #
                  #    Directorship and core code : Frank Neese         #
                  #        Max Planck Institute fuer Kohlenforschung    #
                  #                Kaiser Wilhelm Platz 1               #
                  #                 D-45470 Muelheim/Ruhr               #
                  #                      Germany                        #
                  #                                                     #
                  #                  All rights reserved                #
                  #                        -***-                        #
                  #######################################################


                         Program Version 5.0.0 -  RELEASE  -
                                (SVN: $Rev: 19529$)
                ($Date: 2021-06-28 11:36:33 +0200 (Mo, 28 Jun 2021) $)


 With contributions from (in alphabetic order):
   Daniel Aravena         : Magnetic Suceptibility
   Michael Atanasov       : Ab Initio Ligand Field Theory (pilot matlab implementation)
   Alexander A. Auer      : GIAO ZORA, VPT2 properties, NMR spectrum
   Ute Becker             : Parallelization
   Giovanni Bistoni       : ED, misc. LED, open-shell LED, HFLD
   Martin Brehm           : Molecular dynamics
   Dmytro Bykov           : SCF Hessian
   Vijay G. Chilkuri      : MRCI spin determinant printing, contributions to CSF-ICE
   Dipayan Datta          : RHF DLPNO-CCSD density
   Achintya Kumar Dutta   : EOM-CC, STEOM-CC
   Dmitry Ganyushin       : Spin-Orbit,Spin-Spin,Magnetic field MRCI
   Miquel Garcia          : C-PCM Hessian, Gaussian charge scheme
   Yang Guo               : DLPNO-NEVPT2, F12-NEVPT2, CIM, IAO-localization
   Andreas Hansen         : Spin unrestricted coupled pair/coupled cluster methods
   Benjamin Helmich-Paris : MC-RPA, TRAH-SCF, COSX integrals
   Lee Huntington         : MR-EOM, pCC
   Robert Izsak           : Overlap fitted RIJCOSX, COSX-SCS-MP3, EOM
   Marcus Kettner         : VPT2
   Christian Kollmar      : KDIIS, OOCD, Brueckner-CCSD(T), CCSD density, CASPT2, CASPT2-K
   Simone Kossmann        : Meta GGA functionals, TD-DFT gradient, OOMP2, MP2 Hessian
   Martin Krupicka        : Initial AUTO-CI
   Lucas Lang             : DCDCAS
   Marvin Lechner         : AUTO-CI (C++ implementation), FIC-MRCC
   Dagmar Lenk            : GEPOL surface, SMD
   Dimitrios Liakos       : Extrapolation schemes; Compound Job, initial MDCI parallelization
   Dimitrios Manganas     : Further ROCIS development; embedding schemes
   Dimitrios Pantazis     : SARC Basis sets
   Anastasios Papadopoulos: AUTO-CI, single reference methods and gradients
   Taras Petrenko         : DFT Hessian,TD-DFT gradient, ASA, ECA, R-Raman, ABS, FL, XAS/XES, NRVS
   Peter Pinski           : DLPNO-MP2, DLPNO-MP2 Gradient
   Christoph Reimann      : Effective Core Potentials
   Marius Retegan         : Local ZFS, SOC
   Christoph Riplinger    : Optimizer, TS searches, QM/MM, DLPNO-CCSD(T), (RO)-DLPNO pert. Triples
   Tobias Risthaus        : Range-separated hybrids, TD-DFT gradient, RPA, STAB
   Michael Roemelt        : Original ROCIS implementation
   Masaaki Saitow         : Open-shell DLPNO-CCSD energy and density
   Barbara Sandhoefer     : DKH picture change effects
   Avijit Sen             : IP-ROCIS
   Kantharuban Sivalingam : CASSCF convergence, NEVPT2, FIC-MRCI
   Bernardo de Souza      : ESD, SOC TD-DFT
   Georgi Stoychev        : AutoAux, RI-MP2 NMR
   Willem Van den Heuvel  : Paramagnetic NMR
   Boris Wezisla          : Elementary symmetry handling
   Frank Wennmohs         : Technical directorship


 We gratefully acknowledge several colleagues who have allowed us to
 interface, adapt or use parts of their codes:
   Stefan Grimme, W. Hujo, H. Kruse, P. Pracht,  : VdW corrections, initial TS optimization,
                  C. Bannwarth, S. Ehlert          DFT functionals, gCP, sTDA/sTD-DF
   Ed Valeev, F. Pavosevic, A. Kumar             : LibInt (2-el integral package), F12 methods
   Garnet Chan, S. Sharma, J. Yang, R. Olivares  : DMRG
   Ulf Ekstrom                                   : XCFun DFT Library
   Mihaly Kallay                                 : mrcc  (arbitrary order and MRCC methods)
   Jiri Pittner, Ondrej Demel                    : Mk-CCSD
   Frank Weinhold                                : gennbo (NPA and NBO analysis)
   Christopher J. Cramer and Donald G. Truhlar   : smd solvation model
   Lars Goerigk                                  : TD-DFT with DH, B97 family of functionals
   V. Asgeirsson, H. Jonsson                     : NEB implementation
   FAccTs GmbH                                   : IRC, NEB, NEB-TS, DLPNO-Multilevel, CI-OPT
                                                   MM, QMMM, 2- and 3-layer-ONIOM, Crystal-QMMM,
                                                   LR-CPCM, SF, NACMEs, symmetry and pop. for TD-DFT,
                                                   nearIR, NL-DFT gradient (VV10), updates on ESD,
                                                   ML-optimized integration grids
   S Lehtola, MJT Oliveira, MAL Marques          : LibXC Library
   Liviu Ungur et al                             : ANISO software


 Your calculation uses the libint2 library for the computation of 2-el integrals
 For citations please refer to: http://libint.valeyev.net

 Your ORCA version has been built with support for libXC version: 5.1.0
 For citations please refer to: https://tddft.org/programs/libxc/

 This ORCA versions uses:
   CBLAS   interface :  Fast vector & matrix operations
   LAPACKE interface :  Fast linear algebra routines
   SCALAPACK package :  Parallel linear algebra routines
   Shared memory     :  Shared parallel matrices
   BLAS/LAPACK       :  OpenBLAS 0.3.15  USE64BITINT DYNAMIC_ARCH NO_AFFINITY SkylakeX SINGLE_THREADED
        Core in use  :  SkylakeX
   Copyright (c) 2011-2014, The OpenBLAS Project


================================================================================

----- Orbital basis set information -----
Your calculation utilizes the basis: cc-pVTZ 
       H, B-Ne : Obtained from the ccRepo (grant-hill.group.shef.ac.uk/ccrepo) Feb. 2017
                 T. H. Dunning, Jr., J. Chem. Phys. 90, 1007 (1989)
            He : Obtained from the ccRepo (grant-hill.group.shef.ac.uk/ccrepo) Feb. 2017
                 D. E. Woon, T. H. Dunning, Jr., J. Chem. Phys. 100, 2975 (1994)
  Li-Be, Na-Mg : Obtained from the ccRepo (grant-hill.group.shef.ac.uk/ccrepo) Feb. 2017
                 B. P. Prascher, D. E. Woon, K. A. Peterson, T. H. Dunning, Jr., A. K. Wilson, Theor. Chem. Acc. 128, 69 (2011)
         Al-Ar : Obtained from the ccRepo (grant-hill.group.shef.ac.uk/ccrepo) Feb. 2017
                 D. E. Woon, T. H. Dunning, Jr., J. Chem. Phys. 98, 1358 (1993)
            Ca : Obtained from the Peterson Research Group Website (tyr0.chem.wsu.edu/~kipeters) Feb. 2017
                 J. Koput, K. A. Peterson, J. Phys. Chem. 106, 9595 (2002)
         Sc-Zn : Obtained from the ccRepo (grant-hill.group.shef.ac.uk/ccrepo) Feb. 2017
                 N. B. Balabanov, K. A. Peterson, J. Chem. Phys. 123, 064107 (2005)
                 N. B. Balabanov, K. A. Peterson, J. Chem. Phys. 125, 074110 (2006)
         Ga-Kr : Obtained from the ccRepo (grant-hill.group.shef.ac.uk/ccrepo) Feb. 2017
                 A. K. Wilson, D. E. Woon, K. A. Peterson, T. H. Dunning, Jr., J. Chem. Phys. 110, 7667 (1999)
             Y : Obtained from the ccRepo (grant-hill.group.shef.ac.uk/ccrepo) Feb. 2017
                 K. A. Peterson, D. Figgen, M. Dolg, H. Stoll, J. Chem. Phys. 126, 124101 (2007)
        Ag, Au : Obtained from the Peterson Research Group Website (tyr0.chem.wsu.edu/~kipeters) Feb. 2017
                 K. A. Peterson, C. Puzzarini, Theor. Chem. Acc. 114, 283 (2005)

----- AuxC basis set information -----
Your calculation utilizes the auxiliary basis: cc-pVTZ/C 
  Obtained from the EMSL Basis Set Exchange (bse.pnl.gov) Feb. 2017
  H-He, B-F, Al-Ar, Ga-Kr : F. Weigend, A. Kohn, C. Hattig, J. Chem. Phys. 116, 3175 (2002)
             Li-Be, Na-Mg : C. Haettig, Phys. Chem. Chem. Phys. 7, 59 (2005)
                       Ne : C. Haettig, Phys. Chem. Chem. Phys. 7, 59 (2005)
                            F. Weigend, A. Kohn, C. Hattig, J. Chem. Phys. 116, 3175 (2002)
                    Sc-Zn : J. G. Hill, J. A. Platts, J. Chem. Phys. 128, 044104 (2008)

================================================================================
                                        WARNINGS
                       Please study these warnings very carefully!
================================================================================


WARNING: No MP2 level density has been requested!
         To caclulate MP2 level properties use
         %mp2 Density relaxed end
         or
         %mp2 Density unrelaxed end

WARNING: Post HF methods need fully converged wavefunctions
  ===> : Setting SCFConvForced true
         You can overwrite this default with %scf ConvForced false 


INFO   : the flag for use of the SHARK integral package has been found!

================================================================================
                                       INPUT FILE
================================================================================
NAME = qm_input.vacu
|  1> ! RI-MP2 cc-pVTZ cc-pVTZ/c TightSCF KeepDens NoKeepInts
|  2> 
|  3> *xyz  0  1
|  4>     C     2.8898785   11.1814303    2.0912652
|  5>     C     1.5256516   10.5991186    2.1226686
|  6>     O     0.9496155   10.4630992    3.4507237
|  7>     C     0.4578235   11.5350078    4.0986262
|  8>     O     0.6389581   12.7288658    3.6529590
|  9>     C    -0.2972478   11.1016617    5.3865129
| 10>     C    -0.7204956   12.0598269    6.2867704
| 11>     C    -0.5333530   13.5077584    6.2137126
| 12>     N    -1.4486677   11.7062420    7.4293949
| 13>     C    -1.6907965   10.4174460    7.7188212
| 14>     S    -2.6637508   10.0577770    9.0356778
| 15>     N    -1.0061596    9.4272421    7.0109411
| 16>     C    -0.3563454    9.5732932    5.6791771
| 17>     C    -1.1332985    8.9344196    4.5501959
| 18>     C    -2.4129840    9.3734653    4.0932498
| 19>     C    -3.1046227    8.7126471    3.0670472
| 20>     C    -2.5566038    7.5461136    2.4991492
| 21>     C    -1.3651629    7.0960187    3.0166853
| 22>     O    -0.8392936    6.0029614    2.4376654
| 23>     C    -0.6381792    7.7349531    3.9768974
| 24>     H     3.3132051   11.0390216    1.0894141
| 25>     H     3.5804359   10.6257075    2.7374016
| 26>     H     2.9307435   12.2406259    2.3734589
| 27>     H     0.9764226   11.1971533    1.3851785
| 28>     H     1.5883629    9.5702038    1.7477127
| 29>     H    -1.0389471   13.9928451    7.0576671
| 30>     H    -0.8587898   13.8575064    5.2263135
| 31>     H     0.4858690   13.8895730    6.3500994
| 32>     H    -1.9023528   12.3974291    8.0145416
| 33>     H    -1.0386243    8.5025395    7.4230644
| 34>     H     0.6650238    9.1747150    5.7127933
| 35>     H    -2.9045097   10.1950194    4.6059366
| 36>     H    -4.1335908    8.9864457    2.8533768
| 37>     H    -3.1038511    6.9068791    1.8126387
| 38>     H    -0.0515190    5.6670655    2.8995252
| 39>     H     0.3260085    7.2981939    4.2197544
| 40> *
| 41> 
| 42>                          ****END OF INPUT****
================================================================================

                       ****************************
                       * Single Point Calculation *
                       ****************************

---------------------------------
CARTESIAN COORDINATES (ANGSTROEM)
---------------------------------
  C      2.889879   11.181430    2.091265
  C      1.525652   10.599119    2.122669
  O      0.949615   10.463099    3.450724
  C      0.457823   11.535008    4.098626
  O      0.638958   12.728866    3.652959
  C     -0.297248   11.101662    5.386513
  C     -0.720496   12.059827    6.286770
  C     -0.533353   13.507758    6.213713
  N     -1.448668   11.706242    7.429395
  C     -1.690796   10.417446    7.718821
  S     -2.663751   10.057777    9.035678
  N     -1.006160    9.427242    7.010941
  C     -0.356345    9.573293    5.679177
  C     -1.133298    8.934420    4.550196
  C     -2.412984    9.373465    4.093250
  C     -3.104623    8.712647    3.067047
  C     -2.556604    7.546114    2.499149
  C     -1.365163    7.096019    3.016685
  O     -0.839294    6.002961    2.437665
  C     -0.638179    7.734953    3.976897
  H      3.313205   11.039022    1.089414
  H      3.580436   10.625708    2.737402
  H      2.930744   12.240626    2.373459
  H      0.976423   11.197153    1.385179
  H      1.588363    9.570204    1.747713
  H     -1.038947   13.992845    7.057667
  H     -0.858790   13.857506    5.226313
  H      0.485869   13.889573    6.350099
  H     -1.902353   12.397429    8.014542
  H     -1.038624    8.502539    7.423064
  H      0.665024    9.174715    5.712793
  H     -2.904510   10.195019    4.605937
  H     -4.133591    8.986446    2.853377
  H     -3.103851    6.906879    1.812639
  H     -0.051519    5.667065    2.899525
  H      0.326008    7.298194    4.219754

----------------------------
CARTESIAN COORDINATES (A.U.)
----------------------------
  NO LB      ZA    FRAG     MASS         X           Y           Z
   0 C     6.0000    0    12.011    5.461079   21.129841    3.951919
   1 C     6.0000    0    12.011    2.883064   20.029431    4.011262
   2 O     8.0000    0    15.999    1.794513   19.772392    6.520923
   3 C     6.0000    0    12.011    0.865161   21.798006    7.745281
   4 O     8.0000    0    15.999    1.207456   24.054070    6.903092
   5 C     6.0000    0    12.011   -0.561717   20.979100   10.179034
   6 C     6.0000    0    12.011   -1.361539   22.789770   11.880274
   7 C     6.0000    0    12.011   -1.007891   25.525964   11.742215
   8 N     7.0000    0    14.007   -2.737585   22.121591   14.039522
   9 C     6.0000    0    12.011   -3.195142   19.686120   14.586458
  10 S    16.0000    0    32.060   -5.033760   19.006444   17.074956
  11 N     7.0000    0    14.007   -1.901366   17.814906   13.248759
  12 C     6.0000    0    12.011   -0.673395   18.090902   10.732089
  13 C     6.0000    0    12.011   -2.141624   16.883606    8.598624
  14 C     6.0000    0    12.011   -4.559879   17.713282    7.735121
  15 C     6.0000    0    12.011   -5.866887   16.464517    5.795879
  16 C     6.0000    0    12.011   -4.831281   14.260088    4.722708
  17 C     6.0000    0    12.011   -2.579784   13.409532    5.700709
  18 O     8.0000    0    15.999   -1.586035   11.343953    4.606520
  19 C     6.0000    0    12.011   -1.205984   14.616943    7.515247
  20 H     1.0000    0     1.008    6.261050   20.860728    2.058694
  21 H     1.0000    0     1.008    6.766043   20.079677    5.172939
  22 H     1.0000    0     1.008    5.538303   23.131431    4.485187
  23 H     1.0000    0     1.008    1.845171   21.159553    2.617608
  24 H     1.0000    0     1.008    3.001571   18.085064    3.302698
  25 H     1.0000    0     1.008   -1.963325   26.442645   13.337058
  26 H     1.0000    0     1.008   -1.622878   26.186892    9.876301
  27 H     1.0000    0     1.008    0.918159   26.247489   11.999949
  28 H     1.0000    0     1.008   -3.594926   23.427746   15.145289
  29 H     1.0000    0     1.008   -1.962715   16.067471   14.027559
  30 H     1.0000    0     1.008    1.256713   17.337699   10.795615
  31 H     1.0000    0     1.008   -5.488728   19.265795    8.703959
  32 H     1.0000    0     1.008   -7.811355   16.981921    5.392101
  33 H     1.0000    0     1.008   -5.865429   13.052110    3.425391
  34 H     1.0000    0     1.008   -0.097357   10.709202    5.479309
  35 H     1.0000    0     1.008    0.616067   13.791588    7.974180

--------------------------------
INTERNAL COORDINATES (ANGSTROEM)
--------------------------------
 C      0   0   0     0.000000000000     0.00000000     0.00000000
 C      1   0   0     1.483640159935     0.00000000     0.00000000
 O      2   1   0     1.453977033627   114.85624740     0.00000000
 C      3   2   1     1.345594689171   120.66870780    76.60468617
 O      4   3   2     1.287138656337   121.38084651   350.56921732
 C      4   3   2     1.554533261949   110.75467663   171.03121025
 C      6   4   3     1.381188914306   119.69979824   171.28686284
 C      7   6   4     1.461802115051   127.97635159   358.86137835
 N      7   6   4     1.400302694680   121.06688491   177.46890649
 C      9   7   6     1.342903223817   120.79411410     3.74032048
 S     10   9   7     1.676339215199   118.67657443   184.50061865
 N     10   9   7     1.396540613227   118.87084727    11.67268536
 C     12  10   9     1.489021413556   126.70848084   338.72294245
 C     13  12  10     1.512089331465   113.70984760   255.33903351
 C     14  13  12     1.427990141389   124.71382855    66.20015815
 C     15  14  13     1.402902905064   122.07645020   182.05900825
 C     16  15  14     1.408415158887   119.55495791     2.70541352
 C     17  16  15     1.374758324944   117.16767441     1.51933209
 O     18  17  16     1.344089590155   116.30525023   181.77347351
 C     18  17  16     1.363359726762   125.01764479   355.80980424
 H      1   2   3     1.096900758808   108.85920665   167.75688324
 H      1   2   3     1.096899995688   111.56571714    54.45822084
 H      1   2   3     1.096904075844   114.06713698   291.32672031
 H      2   1   3     1.096900015700   103.42616832   129.74978543
 H      2   1   3     1.096900314409   107.96024206   244.12091940
 H      8   7   6     1.096901863679   109.91192889   176.76485553
 H      8   7   6     1.096900066997   108.83427984    50.62738017
 H      8   7   6     1.096903474911   117.22735442   290.34991151
 H      9   7   6     1.012900013668   122.14065919   190.71296414
 H     12  10   9     1.012903978468   115.17281722   164.64005142
 H     13  12  10     1.096900028775   110.07820796   130.93882366
 H     15  14  13     1.086000187791   119.15160497   357.07487122
 H     16  15  14     1.086000029473   119.49045085   170.83044953
 H     17  16  15     1.086000469594   123.11654658   170.50839776
 H     19  18  17     0.973000180318   113.14266761   186.36737285
 H     20  18  17     1.086000019367   116.25975235   185.21395875

---------------------------
INTERNAL COORDINATES (A.U.)
---------------------------
 C      0   0   0     0.000000000000     0.00000000     0.00000000
 C      1   0   0     2.803673583564     0.00000000     0.00000000
 O      2   1   0     2.747618398567   114.85624740     0.00000000
 C      3   2   1     2.542805449791   120.66870780    76.60468617
 O      4   3   2     2.432339556860   121.38084651   350.56921732
 C      4   3   2     2.937642131155   110.75467663   171.03121025
 C      6   4   3     2.610068787247   119.69979824   171.28686284
 C      7   6   4     2.762405659433   127.97635159   358.86137835
 N      7   6   4     2.646188597536   121.06688491   177.46890649
 C      9   7   6     2.537719317373   120.79411410     3.74032048
 S     10   9   7     3.167822024278   118.67657443   184.50061865
 N     10   9   7     2.639079293898   118.87084727    11.67268536
 C     12  10   9     2.813842679165   126.70848084   338.72294245
 C     13  12  10     2.857434726493   113.70984760   255.33903351
 C     14  13  12     2.698510289165   124.71382855    66.20015815
 C     15  14  13     2.651102283053   122.07645020   182.05900825
 C     16  15  14     2.661518933160   119.55495791     2.70541352
 C     17  16  15     2.597916734472   117.16767441     1.51933209
 O     18  17  16     2.539961224847   116.30525023   181.77347351
 C     18  17  16     2.576376505597   125.01764479   355.80980424
 H      1   2   3     2.072842030238   108.85920665   167.75688324
 H      1   2   3     2.072840588149   111.56571714    54.45822084
 H      1   2   3     2.072848298528   114.06713698   291.32672031
 H      2   1   3     2.072840625967   103.42616832   129.74978543
 H      2   1   3     2.072841190446   107.96024206   244.12091940
 H      8   7   6     2.072844118141   109.91192889   176.76485553
 H      8   7   6     2.072840722905   108.83427984    50.62738017
 H      8   7   6     2.072847162928   117.22735442   290.34991151
 H      9   7   6     1.914103626878   122.14065919   190.71296414
 H     12  10   9     1.914111119263   115.17281722   164.64005142
 H     13  12  10     2.072840650675   110.07820796   130.93882366
 H     15  14  13     2.052242936312   119.15160497   357.07487122
 H     16  15  14     2.052242637135   119.49045085   170.83044953
 H     17  16  15     2.052243468842   123.11654658   170.50839776
 H     19  18  17     1.838703869056   113.14266761   186.36737285
 H     20  18  17     2.052242618037   116.25975235   185.21395875

---------------------
BASIS SET INFORMATION
---------------------
There are 5 groups of distinct atoms

 Group   1 Type C   : 18s5p2d1f contracted to 4s3p2d1f pattern {8811/311/11/1}
 Group   2 Type O   : 18s5p2d1f contracted to 4s3p2d1f pattern {8811/311/11/1}
 Group   3 Type N   : 18s5p2d1f contracted to 4s3p2d1f pattern {8811/311/11/1}
 Group   4 Type S   : 41s16p2d1f contracted to 5s4p2d1f pattern {13131311/7711/11/1}
 Group   5 Type H   : 5s2p1d contracted to 3s2p1d pattern {311/11/1}

Atom   0C    basis set group =>   1
Atom   1C    basis set group =>   1
Atom   2O    basis set group =>   2
Atom   3C    basis set group =>   1
Atom   4O    basis set group =>   2
Atom   5C    basis set group =>   1
Atom   6C    basis set group =>   1
Atom   7C    basis set group =>   1
Atom   8N    basis set group =>   3
Atom   9C    basis set group =>   1
Atom  10S    basis set group =>   4
Atom  11N    basis set group =>   3
Atom  12C    basis set group =>   1
Atom  13C    basis set group =>   1
Atom  14C    basis set group =>   1
Atom  15C    basis set group =>   1
Atom  16C    basis set group =>   1
Atom  17C    basis set group =>   1
Atom  18O    basis set group =>   2
Atom  19C    basis set group =>   1
Atom  20H    basis set group =>   5
Atom  21H    basis set group =>   5
Atom  22H    basis set group =>   5
Atom  23H    basis set group =>   5
Atom  24H    basis set group =>   5
Atom  25H    basis set group =>   5
Atom  26H    basis set group =>   5
Atom  27H    basis set group =>   5
Atom  28H    basis set group =>   5
Atom  29H    basis set group =>   5
Atom  30H    basis set group =>   5
Atom  31H    basis set group =>   5
Atom  32H    basis set group =>   5
Atom  33H    basis set group =>   5
Atom  34H    basis set group =>   5
Atom  35H    basis set group =>   5
---------------------------------
AUXILIARY/C BASIS SET INFORMATION
---------------------------------
There are 5 groups of distinct atoms

 Group   1 Type C   : 8s6p5d3f1g contracted to 8s6p5d3f1g pattern {11111111/111111/11111/111/1}
 Group   2 Type O   : 8s6p5d3f1g contracted to 8s6p5d3f1g pattern {11111111/111111/11111/111/1}
 Group   3 Type N   : 8s6p5d3f1g contracted to 8s6p5d3f1g pattern {11111111/111111/11111/111/1}
 Group   4 Type S   : 10s8p7d5f2g contracted to 10s8p7d5f2g pattern {1111111111/11111111/1111111/11111/11}
 Group   5 Type H   : 4s3p2d1f contracted to 4s3p2d1f pattern {1111/111/11/1}

Atom   0C    basis set group =>   1
Atom   1C    basis set group =>   1
Atom   2O    basis set group =>   2
Atom   3C    basis set group =>   1
Atom   4O    basis set group =>   2
Atom   5C    basis set group =>   1
Atom   6C    basis set group =>   1
Atom   7C    basis set group =>   1
Atom   8N    basis set group =>   3
Atom   9C    basis set group =>   1
Atom  10S    basis set group =>   4
Atom  11N    basis set group =>   3
Atom  12C    basis set group =>   1
Atom  13C    basis set group =>   1
Atom  14C    basis set group =>   1
Atom  15C    basis set group =>   1
Atom  16C    basis set group =>   1
Atom  17C    basis set group =>   1
Atom  18O    basis set group =>   2
Atom  19C    basis set group =>   1
Atom  20H    basis set group =>   5
Atom  21H    basis set group =>   5
Atom  22H    basis set group =>   5
Atom  23H    basis set group =>   5
Atom  24H    basis set group =>   5
Atom  25H    basis set group =>   5
Atom  26H    basis set group =>   5
Atom  27H    basis set group =>   5
Atom  28H    basis set group =>   5
Atom  29H    basis set group =>   5
Atom  30H    basis set group =>   5
Atom  31H    basis set group =>   5
Atom  32H    basis set group =>   5
Atom  33H    basis set group =>   5
Atom  34H    basis set group =>   5
Atom  35H    basis set group =>   5
------------------------------------------------------------------------------
                           ORCA GTO INTEGRAL CALCULATION
------------------------------------------------------------------------------
------------------------------------------------------------------------------
                   ___                                                        
                  /   \      - P O W E R E D   B Y -                         
                 /     \                                                     
                 |  |  |   _    _      __       _____    __    __             
                 |  |  |  | |  | |    /  \     |  _  \  |  |  /  |          
                  \  \/   | |  | |   /    \    | | | |  |  | /  /          
                 / \  \   | |__| |  /  /\  \   | |_| |  |  |/  /          
                |  |  |   |  __  | /  /__\  \  |    /   |      \           
                |  |  |   | |  | | |   __   |  |    \   |  |\   \          
                \     /   | |  | | |  |  |  |  | |\  \  |  | \   \       
                 \___/    |_|  |_| |__|  |__|  |_| \__\ |__|  \__/        
                                                                              
                      - O R C A' S   B I G   F R I E N D -                    
                                      &                                       
                       - I N T E G R A L  F E E D E R -                       
                                                                              
 v1 FN, 2020, v2 2021                                                         
------------------------------------------------------------------------------


Reading SHARK input file qm_input.vacu.SHARKINP.tmp ... ok
----------------------
SHARK INTEGRAL PACKAGE
----------------------

Number of atoms                             ...     36
Number of basis functions                   ...    828
Number of shells                            ...    298
Maximum angular momentum                    ...      3
Integral batch strategy                     ... SHARK/LIBINT Hybrid
RI-J (if used) integral strategy            ... SPLIT-RIJ (Revised 2003 algorithm where possible)
Printlevel                                  ...      1
Contraction scheme used                     ... SEGMENTED contraction
Coulomb Range Separation                    ... NOT USED
Exchange Range Separation                   ... NOT USED
Finite Nucleus Model                        ... NOT USED
Auxiliary Coulomb fitting basis             ... NOT available
Auxiliary J/K fitting basis                 ... NOT available
Auxiliary Correlation fitting basis         ... AVAILABLE
   # of basis functions in Aux-C            ...   2141
   # of shells in Aux-C                     ...    629
   Maximum angular momentum in Aux-C        ...      4
Auxiliary 'external' fitting basis          ... NOT available
Integral threshold                          ...     2.500000e-11
Primitive cut-off                           ...     2.500000e-12
Primitive pair pre-selection threshold      ...     2.500000e-12

Calculating pre-screening integrals         ... done (  0.7 sec) Dimension = 298
Organizing shell pair data                  ... done (  0.4 sec)
Shell pair information
Total number of shell pairs                 ...     44551
Shell pairs after pre-screening             ...     32595
Total number of primitive shell pairs       ...    234348
Primitive shell pairs kept                  ...     93648
          la=0 lb=0:   6528 shell pairs
          la=1 lb=0:   9071 shell pairs
          la=1 lb=1:   3191 shell pairs
          la=2 lb=0:   5201 shell pairs
          la=2 lb=1:   3547 shell pairs
          la=2 lb=2:   1014 shell pairs
          la=3 lb=0:   1892 shell pairs
          la=3 lb=1:   1284 shell pairs
          la=3 lb=2:    722 shell pairs
          la=3 lb=3:    145 shell pairs

Calculating one electron integrals          ... done (  0.4 sec)
Calculating RI/C V-Matrix + Cholesky decomp.... done (  0.4 sec)
Calculating Nuclear repulsion               ... done (  0.0 sec) ENN=   1689.619362889778 Eh

SHARK setup successfully completed in   2.0 seconds

Maximum memory used throughout the entire GTOINT-calculation: 482.4 MB
-------------------------------------------------------------------------------
                                 ORCA SCF
-------------------------------------------------------------------------------

------------
SCF SETTINGS
------------
Hamiltonian:
 Ab initio Hamiltonian  Method          .... Hartree-Fock(GTOs)


General Settings:
 Integral files         IntName         .... qm_input.vacu
 Hartree-Fock type      HFTyp           .... RHF
 Total Charge           Charge          ....    0
 Multiplicity           Mult            ....    1
 Number of Electrons    NEL             ....  154
 Basis Dimension        Dim             ....  828
 Nuclear Repulsion      ENuc            ....   1689.6193628898 Eh

Convergence Acceleration:
 DIIS                   CNVDIIS         .... on
   Start iteration      DIISMaxIt       ....    12
   Startup error        DIISStart       ....  0.200000
   # of expansion vecs  DIISMaxEq       ....     5
   Bias factor          DIISBfac        ....   1.050
   Max. coefficient     DIISMaxC        ....  10.000
 Trust-Rad. Augm. Hess. CNVTRAH         .... auto
   Auto Start mean grad. ratio tolernc. ....  1.125000
   Auto Start start iteration           ....    20
   Auto Start num. interpolation iter.  ....    10
   Max. Number of Micro iterations      ....    16
   Max. Number of Macro iterations      .... Maxiter - #DIIS iter
   Number of Davidson start vectors     ....     2
   Converg. threshold I  (grad. norm)   ....   1.000e-05
   Converg. threshold II (energy diff.) ....   1.000e-08
   Grad. Scal. Fac. for Micro threshold ....   0.100
   Minimum threshold for Micro iter.    ....   0.010
   NR start threshold (gradient norm)   ....   0.001
   Initial trust radius                 ....   0.400
   Minimum AH scaling param. (alpha)    ....   1.000
   Maximum AH scaling param. (alpha)    .... 1000.000
   Orbital update algorithm             .... Taylor
   White noise on init. David. guess    .... on
   Maximum white noise                  ....   0.010
   Quad. conv. algorithm                .... NR
 SOSCF                  CNVSOSCF        .... on
   Start iteration      SOSCFMaxIt      ....   150
   Startup grad/error   SOSCFStart      ....  0.003300
 Level Shifting         CNVShift        .... on
   Level shift para.    LevelShift      ....    0.2500
   Turn off err/grad.   ShiftErr        ....    0.0010
 Zerner damping         CNVZerner       .... off
 Static damping         CNVDamp         .... on
   Fraction old density DampFac         ....    0.7000
   Max. Damping (<1)    DampMax         ....    0.9800
   Min. Damping (>=0)   DampMin         ....    0.0000
   Turn off err/grad.   DampErr         ....    0.1000
 Fernandez-Rico         CNVRico         .... off

SCF Procedure:
 Maximum # iterations   MaxIter         ....   125
 SCF integral mode      SCFMode         .... Direct
   Integral package                     .... SHARK and LIBINT hybrid scheme
 Reset frequency        DirectResetFreq ....    20
 Integral Threshold     Thresh          ....  2.500e-11 Eh
 Primitive CutOff       TCut            ....  2.500e-12 Eh

Convergence Tolerance:
 Convergence Check Mode ConvCheckMode   .... Total+1el-Energy
 Convergence forced     ConvForced      .... 1
 Energy Change          TolE            ....  1.000e-08 Eh
 1-El. energy change                    ....  1.000e-05 Eh
 Orbital Gradient       TolG            ....  1.000e-05
 Orbital Rotation angle TolX            ....  1.000e-05
 DIIS Error             TolErr          ....  5.000e-07


Diagonalization of the overlap matrix:
Smallest eigenvalue                        ... 3.703e-05
Time for diagonalization                   ...    0.166 sec
Threshold for overlap eigenvalues          ... 1.000e-08
Number of eigenvalues below threshold      ... 0
Time for construction of square roots      ...    0.069 sec
Total time needed                          ...    0.238 sec

Time for model grid setup =    1.468 sec

------------------------------
INITIAL GUESS: MODEL POTENTIAL
------------------------------
Loading Hartree-Fock densities                     ... done
Calculating cut-offs                               ... done
Initializing the effective Hamiltonian             ... done
Setting up the integral package (SHARK)            ... done
Starting the Coulomb interaction                   ... done (   4.4 sec)
Reading the grid                                   ... done
Mapping shells                                     ... done
Starting the XC term evaluation                    ... done (   1.5 sec)
Transforming the Hamiltonian                       ... done (   0.1 sec)
Diagonalizing the Hamiltonian                      ... done (   0.2 sec)
Back transforming the eigenvectors                 ... done (   0.0 sec)
Now organizing SCF variables                       ... done
                      ------------------
                      INITIAL GUESS DONE (   7.6 sec)
                      ------------------
--------------
SCF ITERATIONS
--------------
ITER       Energy         Delta-E        Max-DP      RMS-DP      [F,P]     Damp
               ***  Starting incremental Fock matrix formation  ***
  0  -1269.9556861842   0.000000000000 0.05003068  0.00044321  0.3250724 0.7000
  1  -1270.2305350116  -0.274848827415 0.04602352  0.00035719  0.1876621 0.7000
                               ***Turning on DIIS***
  2  -1270.4008311188  -0.170296107235 0.02580770  0.00023728  0.1106800 0.7000
  3  -1272.4909893785  -2.090158259707 0.06313062  0.00050683  0.0836172 0.0000
  4  -1270.7148455505   1.776143828033 0.01774174  0.00009968  0.0073516 0.0000
  5  -1270.7828719281  -0.068026377639 0.00522516  0.00004946  0.0046056 0.0000
  6  -1270.7534187025   0.029453225658 0.00170450  0.00002435  0.0037018 0.0000
                      *** Initiating the SOSCF procedure ***
                           *** Shutting down DIIS ***
                      *** Re-Reading the Fockian *** 
                      *** Removing any level shift *** 
ITER      Energy       Delta-E        Grad      Rot      Max-DP    RMS-DP
  7  -1270.76967779  -0.0162590850  0.000960  0.000960  0.001207  0.000013
               *** Restarting incremental Fock matrix formation ***
  8  -1270.77018023  -0.0005024396  0.000462  0.001158  0.000623  0.000007
  9  -1270.77019417  -0.0000139421  0.000196  0.001174  0.000762  0.000008
 10  -1270.77019965  -0.0000054810  0.000054  0.000108  0.000124  0.000001
 11  -1270.77019999  -0.0000003405  0.000039  0.000065  0.000058  0.000001
 12  -1270.77020009  -0.0000001021  0.000010  0.000039  0.000041  0.000000
 13  -1270.77020011  -0.0000000144  0.000007  0.000032  0.000016  0.000000
                  ***Gradient check signals convergence***
              ***Rediagonalizing the Fockian in SOSCF/NRSCF***

               *****************************************************
               *                     SUCCESS                       *
               *           SCF CONVERGED AFTER  14 CYCLES          *
               *****************************************************


----------------
TOTAL SCF ENERGY
----------------

Total Energy       :        -1270.77020012 Eh          -34579.41513 eV

Components:
Nuclear Repulsion  :         1689.61936289 Eh           45976.88028 eV
Electronic Energy  :        -2960.38956301 Eh          -80556.29541 eV
One Electron Energy:        -5100.34694565 Eh         -138787.49621 eV
Two Electron Energy:         2139.95738264 Eh           58231.20080 eV

Virial components:
Potential Energy   :        -2539.59334600 Eh          -69105.84822 eV
Kinetic Energy     :         1268.82314588 Eh           34526.43309 eV
Virial Ratio       :            2.00153454


---------------
SCF CONVERGENCE
---------------

  Last Energy change         ...   -1.1363e-08  Tolerance :   1.0000e-08
  Last MAX-Density change    ...    2.8371e-06  Tolerance :   1.0000e-07
  Last RMS-Density change    ...    4.7648e-08  Tolerance :   5.0000e-09
  Last Orbital Gradient      ...    2.0586e-06  Tolerance :   1.0000e-05
  Last Orbital Rotation      ...    5.7282e-06  Tolerance :   1.0000e-05

             **** THE GBW FILE WAS UPDATED (qm_input.vacu.gbw) ****
             **** DENSITY qm_input.vacu.scfp WAS UPDATED ****
             **** ENERGY FILE WAS UPDATED (qm_input.vacu.en.tmp) ****
             **** THE GBW FILE WAS UPDATED (qm_input.vacu.gbw) ****
             **** DENSITY qm_input.vacu.scfp WAS UPDATED ****
----------------
ORBITAL ENERGIES
----------------

  NO   OCC          E(Eh)            E(eV) 
   0   2.0000     -91.891890     -2500.5055 
   1   2.0000     -20.614547      -560.9503 
   2   2.0000     -20.588256      -560.2349 
   3   2.0000     -20.539520      -558.9087 
   4   2.0000     -15.635446      -425.4621 
   5   2.0000     -15.613691      -424.8701 
   6   2.0000     -11.408640      -310.4449 
   7   2.0000     -11.389748      -309.9308 
   8   2.0000     -11.338986      -308.5495 
   9   2.0000     -11.320158      -308.0371 
  10   2.0000     -11.299467      -307.4741 
  11   2.0000     -11.298090      -307.4367 
  12   2.0000     -11.271579      -306.7153 
  13   2.0000     -11.265889      -306.5604 
  14   2.0000     -11.252176      -306.1873 
  15   2.0000     -11.247583      -306.0623 
  16   2.0000     -11.238295      -305.8096 
  17   2.0000     -11.236797      -305.7688 
  18   2.0000     -11.232329      -305.6472 
  19   2.0000     -11.221508      -305.3528 
  20   2.0000      -8.896217      -242.0784 
  21   2.0000      -6.577676      -178.9877 
  22   2.0000      -6.575803      -178.9367 
  23   2.0000      -6.575201      -178.9203 
  24   2.0000      -1.451007       -39.4839 
  25   2.0000      -1.415250       -38.5109 
  26   2.0000      -1.346844       -36.6495 
  27   2.0000      -1.321578       -35.9620 
  28   2.0000      -1.238503       -33.7014 
  29   2.0000      -1.157241       -31.4901 
  30   2.0000      -1.121473       -30.5168 
  31   2.0000      -1.057126       -28.7659 
  32   2.0000      -1.047643       -28.5078 
  33   2.0000      -1.015748       -27.6399 
  34   2.0000      -0.997826       -27.1522 
  35   2.0000      -0.979845       -26.6629 
  36   2.0000      -0.928629       -25.2693 
  37   2.0000      -0.896800       -24.4032 
  38   2.0000      -0.853089       -23.2137 
  39   2.0000      -0.843962       -22.9654 
  40   2.0000      -0.824042       -22.4233 
  41   2.0000      -0.808846       -22.0098 
  42   2.0000      -0.760934       -20.7061 
  43   2.0000      -0.740477       -20.1494 
  44   2.0000      -0.726843       -19.7784 
  45   2.0000      -0.701778       -19.0964 
  46   2.0000      -0.686636       -18.6843 
  47   2.0000      -0.674140       -18.3443 
  48   2.0000      -0.669543       -18.2192 
  49   2.0000      -0.655625       -17.8405 
  50   2.0000      -0.652750       -17.7622 
  51   2.0000      -0.643796       -17.5186 
  52   2.0000      -0.633598       -17.2411 
  53   2.0000      -0.612128       -16.6568 
  54   2.0000      -0.607856       -16.5406 
  55   2.0000      -0.601430       -16.3657 
  56   2.0000      -0.598262       -16.2795 
  57   2.0000      -0.580932       -15.8080 
  58   2.0000      -0.578287       -15.7360 
  59   2.0000      -0.563845       -15.3430 
  60   2.0000      -0.558474       -15.1969 
  61   2.0000      -0.546104       -14.8603 
  62   2.0000      -0.531877       -14.4731 
  63   2.0000      -0.525731       -14.3059 
  64   2.0000      -0.516814       -14.0632 
  65   2.0000      -0.511735       -13.9250 
  66   2.0000      -0.502740       -13.6803 
  67   2.0000      -0.494103       -13.4452 
  68   2.0000      -0.479000       -13.0342 
  69   2.0000      -0.458217       -12.4687 
  70   2.0000      -0.453792       -12.3483 
  71   2.0000      -0.441977       -12.0268 
  72   2.0000      -0.360345        -9.8055 
  73   2.0000      -0.346241        -9.4217 
  74   2.0000      -0.329113        -8.9556 
  75   2.0000      -0.326129        -8.8744 
  76   2.0000      -0.309887        -8.4324 
  77   0.0000       0.067791         1.8447 
  78   0.0000       0.107075         2.9137 
  79   0.0000       0.119191         3.2434 
  80   0.0000       0.128453         3.4954 
  81   0.0000       0.131338         3.5739 
  82   0.0000       0.143920         3.9163 
  83   0.0000       0.147328         4.0090 
  84   0.0000       0.155941         4.2434 
  85   0.0000       0.160362         4.3637 
  86   0.0000       0.168363         4.5814 
  87   0.0000       0.181352         4.9348 
  88   0.0000       0.186108         5.0642 
  89   0.0000       0.189257         5.1500 
  90   0.0000       0.200978         5.4689 
  91   0.0000       0.205808         5.6003 
  92   0.0000       0.214384         5.8337 
  93   0.0000       0.220007         5.9867 
  94   0.0000       0.224372         6.1055 
  95   0.0000       0.233853         6.3635 
  96   0.0000       0.241196         6.5633 
  97   0.0000       0.246012         6.6943 
  98   0.0000       0.256449         6.9783 
  99   0.0000       0.268340         7.3019 
 100   0.0000       0.290241         7.8979 
 101   0.0000       0.301190         8.1958 
 102   0.0000       0.311842         8.4857 
 103   0.0000       0.312547         8.5048 
 104   0.0000       0.317593         8.6421 
 105   0.0000       0.328484         8.9385 
 106   0.0000       0.337505         9.1840 
 107   0.0000       0.355503         9.6737 
 108   0.0000       0.360929         9.8214 
 109   0.0000       0.362805         9.8724 
 110   0.0000       0.369971        10.0674 
 111   0.0000       0.374931        10.2024 
 112   0.0000       0.380054        10.3418 
 113   0.0000       0.387179        10.5357 
 114   0.0000       0.390847        10.6355 
 115   0.0000       0.396005        10.7758 
 116   0.0000       0.403659        10.9841 
 117   0.0000       0.421289        11.4639 
 118   0.0000       0.424981        11.5643 
 119   0.0000       0.433903        11.8071 
 120   0.0000       0.444010        12.0821 
 121   0.0000       0.445231        12.1154 
 122   0.0000       0.455765        12.4020 
 123   0.0000       0.458136        12.4665 
 124   0.0000       0.465584        12.6692 
 125   0.0000       0.468060        12.7366 
 126   0.0000       0.473247        12.8777 
 127   0.0000       0.477612        12.9965 
 128   0.0000       0.486074        13.2267 
 129   0.0000       0.488385        13.2896 
 130   0.0000       0.493973        13.4417 
 131   0.0000       0.503052        13.6887 
 132   0.0000       0.512518        13.9463 
 133   0.0000       0.513553        13.9745 
 134   0.0000       0.521551        14.1921 
 135   0.0000       0.530708        14.4413 
 136   0.0000       0.532924        14.5016 
 137   0.0000       0.536940        14.6109 
 138   0.0000       0.545055        14.8317 
 139   0.0000       0.549035        14.9400 
 140   0.0000       0.552317        15.0293 
 141   0.0000       0.555982        15.1290 
 142   0.0000       0.564799        15.3689 
 143   0.0000       0.568700        15.4751 
 144   0.0000       0.575591        15.6626 
 145   0.0000       0.577924        15.7261 
 146   0.0000       0.582645        15.8546 
 147   0.0000       0.587618        15.9899 
 148   0.0000       0.589104        16.0303 
 149   0.0000       0.594079        16.1657 
 150   0.0000       0.599163        16.3040 
 151   0.0000       0.605455        16.4753 
 152   0.0000       0.611493        16.6396 
 153   0.0000       0.616806        16.7841 
 154   0.0000       0.620284        16.8788 
 155   0.0000       0.623043        16.9539 
 156   0.0000       0.626392        17.0450 
 157   0.0000       0.632443        17.2096 
 158   0.0000       0.638106        17.3637 
 159   0.0000       0.640092        17.4178 
 160   0.0000       0.642054        17.4712 
 161   0.0000       0.645660        17.5693 
 162   0.0000       0.650612        17.7041 
 163   0.0000       0.658578        17.9208 
 164   0.0000       0.662901        18.0385 
 165   0.0000       0.663562        18.0564 
 166   0.0000       0.675256        18.3746 
 167   0.0000       0.681440        18.5429 
 168   0.0000       0.683858        18.6087 
 169   0.0000       0.692117        18.8335 
 170   0.0000       0.696439        18.9511 
 171   0.0000       0.703547        19.1445 
 172   0.0000       0.714400        19.4398 
 173   0.0000       0.724691        19.7198 
 174   0.0000       0.728203        19.8154 
 175   0.0000       0.730451        19.8766 
 176   0.0000       0.735829        20.0229 
 177   0.0000       0.738844        20.1050 
 178   0.0000       0.750238        20.4150 
 179   0.0000       0.758591        20.6423 
 180   0.0000       0.762272        20.7425 
 181   0.0000       0.768325        20.9072 
 182   0.0000       0.781534        21.2666 
 183   0.0000       0.783718        21.3261 
 184   0.0000       0.790766        21.5178 
 185   0.0000       0.802733        21.8435 
 186   0.0000       0.811523        22.0827 
 187   0.0000       0.818690        22.2777 
 188   0.0000       0.822402        22.3787 
 189   0.0000       0.830314        22.5940 
 190   0.0000       0.834390        22.7049 
 191   0.0000       0.841251        22.8916 
 192   0.0000       0.844583        22.9823 
 193   0.0000       0.853502        23.2250 
 194   0.0000       0.862239        23.4627 
 195   0.0000       0.871465        23.7138 
 196   0.0000       0.876771        23.8582 
 197   0.0000       0.891072        24.2473 
 198   0.0000       0.898982        24.4625 
 199   0.0000       0.906943        24.6792 
 200   0.0000       0.914470        24.8840 
 201   0.0000       0.915077        24.9005 
 202   0.0000       0.924375        25.1535 
 203   0.0000       0.928951        25.2780 
 204   0.0000       0.936974        25.4963 
 205   0.0000       0.943284        25.6681 
 206   0.0000       0.945159        25.7191 
 207   0.0000       0.948971        25.8228 
 208   0.0000       0.960286        26.1307 
 209   0.0000       0.966118        26.2894 
 210   0.0000       0.973522        26.4909 
 211   0.0000       0.981693        26.7132 
 212   0.0000       1.002582        27.2816 
 213   0.0000       1.003631        27.3102 
 214   0.0000       1.008440        27.4410 
 215   0.0000       1.016531        27.6612 
 216   0.0000       1.025537        27.9063 
 217   0.0000       1.029942        28.0261 
 218   0.0000       1.037547        28.2331 
 219   0.0000       1.045346        28.4453 
 220   0.0000       1.054609        28.6974 
 221   0.0000       1.058147        28.7936 
 222   0.0000       1.061793        28.8929 
 223   0.0000       1.072033        29.1715 
 224   0.0000       1.078620        29.3507 
 225   0.0000       1.087689        29.5975 
 226   0.0000       1.096118        29.8269 
 227   0.0000       1.101460        29.9723 
 228   0.0000       1.109426        30.1890 
 229   0.0000       1.118995        30.4494 
 230   0.0000       1.126237        30.6465 
 231   0.0000       1.140236        31.0274 
 232   0.0000       1.143481        31.1157 
 233   0.0000       1.146015        31.1846 
 234   0.0000       1.154484        31.4151 
 235   0.0000       1.162446        31.6318 
 236   0.0000       1.165835        31.7240 
 237   0.0000       1.170814        31.8595 
 238   0.0000       1.179189        32.0874 
 239   0.0000       1.187917        32.3249 
 240   0.0000       1.192985        32.4628 
 241   0.0000       1.197766        32.5929 
 242   0.0000       1.199993        32.6535 
 243   0.0000       1.205413        32.8010 
 244   0.0000       1.215995        33.0889 
 245   0.0000       1.225911        33.3587 
 246   0.0000       1.230000        33.4700 
 247   0.0000       1.236100        33.6360 
 248   0.0000       1.246080        33.9076 
 249   0.0000       1.251284        34.0492 
 250   0.0000       1.254596        34.1393 
 251   0.0000       1.268966        34.5303 
 252   0.0000       1.276084        34.7240 
 253   0.0000       1.279518        34.8174 
 254   0.0000       1.291365        35.1398 
 255   0.0000       1.300214        35.3806 
 256   0.0000       1.305329        35.5198 
 257   0.0000       1.320310        35.9275 
 258   0.0000       1.322201        35.9789 
 259   0.0000       1.334966        36.3263 
 260   0.0000       1.341828        36.5130 
 261   0.0000       1.347460        36.6663 
 262   0.0000       1.349616        36.7249 
 263   0.0000       1.361978        37.0613 
 264   0.0000       1.373853        37.3844 
 265   0.0000       1.377760        37.4907 
 266   0.0000       1.380642        37.5692 
 267   0.0000       1.390010        37.8241 
 268   0.0000       1.397433        38.0261 
 269   0.0000       1.411166        38.3998 
 270   0.0000       1.415025        38.5048 
 271   0.0000       1.426115        38.8066 
 272   0.0000       1.440144        39.1883 
 273   0.0000       1.445345        39.3298 
 274   0.0000       1.450654        39.4743 
 275   0.0000       1.460177        39.7334 
 276   0.0000       1.467974        39.9456 
 277   0.0000       1.475727        40.1566 
 278   0.0000       1.478983        40.2452 
 279   0.0000       1.489762        40.5385 
 280   0.0000       1.493755        40.6472 
 281   0.0000       1.502707        40.8907 
 282   0.0000       1.507594        41.0237 
 283   0.0000       1.512016        41.1440 
 284   0.0000       1.521790        41.4100 
 285   0.0000       1.523473        41.4558 
 286   0.0000       1.531917        41.6856 
 287   0.0000       1.533956        41.7411 
 288   0.0000       1.544552        42.0294 
 289   0.0000       1.553172        42.2640 
 290   0.0000       1.562459        42.5167 
 291   0.0000       1.567665        42.6583 
 292   0.0000       1.569198        42.7001 
 293   0.0000       1.571832        42.7717 
 294   0.0000       1.582401        43.0593 
 295   0.0000       1.589291        43.2468 
 296   0.0000       1.594447        43.3871 
 297   0.0000       1.598798        43.5055 
 298   0.0000       1.611908        43.8623 
 299   0.0000       1.624045        44.1925 
 300   0.0000       1.631458        44.3942 
 301   0.0000       1.639159        44.6038 
 302   0.0000       1.647368        44.8272 
 303   0.0000       1.652432        44.9650 
 304   0.0000       1.658915        45.1414 
 305   0.0000       1.670885        45.4671 
 306   0.0000       1.674743        45.5721 
 307   0.0000       1.688258        45.9398 
 308   0.0000       1.690413        45.9985 
 309   0.0000       1.705337        46.4046 
 310   0.0000       1.715044        46.6687 
 311   0.0000       1.719631        46.7935 
 312   0.0000       1.725191        46.9448 
 313   0.0000       1.743552        47.4445 
 314   0.0000       1.751778        47.6683 
 315   0.0000       1.757111        47.8134 
 316   0.0000       1.765139        48.0319 
 317   0.0000       1.781748        48.4838 
 318   0.0000       1.789856        48.7044 
 319   0.0000       1.796475        48.8846 
 320   0.0000       1.803082        49.0643 
 321   0.0000       1.816670        49.4341 
 322   0.0000       1.817984        49.4699 
 323   0.0000       1.830582        49.8127 
 324   0.0000       1.836585        49.9760 
 325   0.0000       1.852172        50.4002 
 326   0.0000       1.869723        50.8778 
 327   0.0000       1.878761        51.1237 
 328   0.0000       1.886591        51.3367 
 329   0.0000       1.901780        51.7501 
 330   0.0000       1.914057        52.0841 
 331   0.0000       1.917534        52.1787 
 332   0.0000       1.932088        52.5748 
 333   0.0000       1.942248        52.8513 
 334   0.0000       1.965844        53.4933 
 335   0.0000       1.969078        53.5813 
 336   0.0000       1.981381        53.9161 
 337   0.0000       1.996320        54.3226 
 338   0.0000       2.004938        54.5572 
 339   0.0000       2.010156        54.6991 
 340   0.0000       2.031776        55.2874 
 341   0.0000       2.037710        55.4489 
 342   0.0000       2.053469        55.8777 
 343   0.0000       2.064118        56.1675 
 344   0.0000       2.082590        56.6702 
 345   0.0000       2.094713        57.0000 
 346   0.0000       2.110826        57.4385 
 347   0.0000       2.112546        57.4853 
 348   0.0000       2.142106        58.2897 
 349   0.0000       2.150036        58.5054 
 350   0.0000       2.158603        58.7386 
 351   0.0000       2.185446        59.4690 
 352   0.0000       2.195173        59.7337 
 353   0.0000       2.212917        60.2165 
 354   0.0000       2.233987        60.7899 
 355   0.0000       2.240406        60.9646 
 356   0.0000       2.261695        61.5438 
 357   0.0000       2.276528        61.9475 
 358   0.0000       2.285296        62.1861 
 359   0.0000       2.287990        62.2594 
 360   0.0000       2.312221        62.9187 
 361   0.0000       2.321672        63.1759 
 362   0.0000       2.334796        63.5330 
 363   0.0000       2.354987        64.0825 
 364   0.0000       2.361378        64.2564 
 365   0.0000       2.371191        64.5234 
 366   0.0000       2.380013        64.7634 
 367   0.0000       2.392297        65.0977 
 368   0.0000       2.410102        65.5822 
 369   0.0000       2.417545        65.7847 
 370   0.0000       2.432214        66.1839 
 371   0.0000       2.438912        66.3662 
 372   0.0000       2.450820        66.6902 
 373   0.0000       2.484533        67.6076 
 374   0.0000       2.491751        67.8040 
 375   0.0000       2.494496        67.8787 
 376   0.0000       2.507161        68.2233 
 377   0.0000       2.522583        68.6430 
 378   0.0000       2.525012        68.7091 
 379   0.0000       2.534997        68.9808 
 380   0.0000       2.558999        69.6339 
 381   0.0000       2.571843        69.9834 
 382   0.0000       2.591687        70.5234 
 383   0.0000       2.612988        71.1030 
 384   0.0000       2.615716        71.1772 
 385   0.0000       2.621293        71.3290 
 386   0.0000       2.630331        71.5749 
 387   0.0000       2.632002        71.6204 
 388   0.0000       2.643438        71.9316 
 389   0.0000       2.661239        72.4160 
 390   0.0000       2.668622        72.6169 
 391   0.0000       2.680273        72.9339 
 392   0.0000       2.700549        73.4857 
 393   0.0000       2.704199        73.5850 
 394   0.0000       2.711379        73.7804 
 395   0.0000       2.734270        74.4033 
 396   0.0000       2.739671        74.5502 
 397   0.0000       2.744779        74.6892 
 398   0.0000       2.749620        74.8210 
 399   0.0000       2.758125        75.0524 
 400   0.0000       2.764872        75.2360 
 401   0.0000       2.777460        75.5785 
 402   0.0000       2.788670        75.8836 
 403   0.0000       2.800683        76.2105 
 404   0.0000       2.817050        76.6558 
 405   0.0000       2.823180        76.8226 
 406   0.0000       2.836796        77.1931 
 407   0.0000       2.847582        77.4866 
 408   0.0000       2.852887        77.6310 
 409   0.0000       2.854306        77.6696 
 410   0.0000       2.864120        77.9367 
 411   0.0000       2.871214        78.1297 
 412   0.0000       2.885657        78.5227 
 413   0.0000       2.888706        78.6057 
 414   0.0000       2.913270        79.2741 
 415   0.0000       2.926555        79.6356 
 416   0.0000       2.932918        79.8088 
 417   0.0000       2.934301        79.8464 
 418   0.0000       2.945328        80.1465 
 419   0.0000       2.954916        80.4073 
 420   0.0000       2.964013        80.6549 
 421   0.0000       2.965711        80.7011 
 422   0.0000       2.972110        80.8752 
 423   0.0000       2.979864        81.0862 
 424   0.0000       2.995368        81.5081 
 425   0.0000       2.997844        81.5755 
 426   0.0000       3.008306        81.8602 
 427   0.0000       3.015064        82.0441 
 428   0.0000       3.018143        82.1278 
 429   0.0000       3.039316        82.7040 
 430   0.0000       3.047920        82.9381 
 431   0.0000       3.053181        83.0813 
 432   0.0000       3.061516        83.3081 
 433   0.0000       3.065305        83.4112 
 434   0.0000       3.077143        83.7333 
 435   0.0000       3.083415        83.9040 
 436   0.0000       3.088143        84.0326 
 437   0.0000       3.097636        84.2910 
 438   0.0000       3.100879        84.3792 
 439   0.0000       3.110188        84.6325 
 440   0.0000       3.112710        84.7011 
 441   0.0000       3.123992        85.0081 
 442   0.0000       3.124923        85.0335 
 443   0.0000       3.135640        85.3251 
 444   0.0000       3.141811        85.4930 
 445   0.0000       3.155910        85.8767 
 446   0.0000       3.166001        86.1513 
 447   0.0000       3.174108        86.3719 
 448   0.0000       3.177228        86.4568 
 449   0.0000       3.178727        86.4975 
 450   0.0000       3.192489        86.8721 
 451   0.0000       3.204592        87.2014 
 452   0.0000       3.213405        87.4412 
 453   0.0000       3.216853        87.5350 
 454   0.0000       3.226842        87.8068 
 455   0.0000       3.228128        87.8418 
 456   0.0000       3.233726        87.9942 
 457   0.0000       3.242756        88.2399 
 458   0.0000       3.246683        88.3467 
 459   0.0000       3.257832        88.6501 
 460   0.0000       3.260729        88.7289 
 461   0.0000       3.270134        88.9849 
 462   0.0000       3.277484        89.1849 
 463   0.0000       3.285820        89.4117 
 464   0.0000       3.289749        89.5186 
 465   0.0000       3.302162        89.8564 
 466   0.0000       3.305529        89.9480 
 467   0.0000       3.311452        90.1092 
 468   0.0000       3.318685        90.3060 
 469   0.0000       3.329671        90.6050 
 470   0.0000       3.336169        90.7818 
 471   0.0000       3.340077        90.8881 
 472   0.0000       3.342804        90.9623 
 473   0.0000       3.355140        91.2980 
 474   0.0000       3.356793        91.3430 
 475   0.0000       3.365615        91.5830 
 476   0.0000       3.373877        91.8078 
 477   0.0000       3.377864        91.9164 
 478   0.0000       3.384417        92.0947 
 479   0.0000       3.390080        92.2488 
 480   0.0000       3.395604        92.3991 
 481   0.0000       3.403590        92.6164 
 482   0.0000       3.406605        92.6984 
 483   0.0000       3.411882        92.8420 
 484   0.0000       3.414287        92.9075 
 485   0.0000       3.422797        93.1390 
 486   0.0000       3.423779        93.1658 
 487   0.0000       3.426101        93.2289 
 488   0.0000       3.428402        93.2916 
 489   0.0000       3.433169        93.4213 
 490   0.0000       3.441925        93.6595 
 491   0.0000       3.450890        93.9035 
 492   0.0000       3.453004        93.9610 
 493   0.0000       3.459976        94.1507 
 494   0.0000       3.465968        94.3138 
 495   0.0000       3.469566        94.4117 
 496   0.0000       3.477058        94.6156 
 497   0.0000       3.482807        94.7720 
 498   0.0000       3.489795        94.9622 
 499   0.0000       3.494549        95.0915 
 500   0.0000       3.502189        95.2994 
 501   0.0000       3.516154        95.6794 
 502   0.0000       3.520185        95.7891 
 503   0.0000       3.536455        96.2318 
 504   0.0000       3.544151        96.4413 
 505   0.0000       3.550318        96.6091 
 506   0.0000       3.555246        96.7432 
 507   0.0000       3.565792        97.0301 
 508   0.0000       3.573062        97.2280 
 509   0.0000       3.576950        97.3338 
 510   0.0000       3.582560        97.4864 
 511   0.0000       3.588691        97.6532 
 512   0.0000       3.595491        97.8383 
 513   0.0000       3.603412        98.0538 
 514   0.0000       3.608020        98.1792 
 515   0.0000       3.612296        98.2956 
 516   0.0000       3.624892        98.6383 
 517   0.0000       3.626980        98.6952 
 518   0.0000       3.636677        98.9590 
 519   0.0000       3.649057        99.2959 
 520   0.0000       3.651315        99.3573 
 521   0.0000       3.653773        99.4242 
 522   0.0000       3.662840        99.6710 
 523   0.0000       3.666680        99.7754 
 524   0.0000       3.671455        99.9054 
 525   0.0000       3.679753       100.1312 
 526   0.0000       3.682053       100.1938 
 527   0.0000       3.686821       100.3235 
 528   0.0000       3.689223       100.3889 
 529   0.0000       3.699619       100.6717 
 530   0.0000       3.705746       100.8385 
 531   0.0000       3.709262       100.9342 
 532   0.0000       3.721567       101.2690 
 533   0.0000       3.730268       101.5057 
 534   0.0000       3.734687       101.6260 
 535   0.0000       3.737955       101.7149 
 536   0.0000       3.743318       101.8609 
 537   0.0000       3.750666       102.0608 
 538   0.0000       3.759108       102.2905 
 539   0.0000       3.769133       102.5633 
 540   0.0000       3.774660       102.7137 
 541   0.0000       3.784554       102.9830 
 542   0.0000       3.792235       103.1920 
 543   0.0000       3.794491       103.2533 
 544   0.0000       3.802284       103.4654 
 545   0.0000       3.814269       103.7915 
 546   0.0000       3.820142       103.9514 
 547   0.0000       3.831217       104.2527 
 548   0.0000       3.831921       104.2719 
 549   0.0000       3.842394       104.5569 
 550   0.0000       3.843585       104.5893 
 551   0.0000       3.856970       104.9535 
 552   0.0000       3.858738       105.0016 
 553   0.0000       3.863890       105.1418 
 554   0.0000       3.876775       105.4924 
 555   0.0000       3.899658       106.1151 
 556   0.0000       3.907348       106.3243 
 557   0.0000       3.924139       106.7813 
 558   0.0000       3.932826       107.0176 
 559   0.0000       3.934713       107.0690 
 560   0.0000       3.938488       107.1717 
 561   0.0000       3.946619       107.3930 
 562   0.0000       3.960613       107.7738 
 563   0.0000       3.970399       108.0401 
 564   0.0000       3.972040       108.0847 
 565   0.0000       3.985626       108.4544 
 566   0.0000       3.988708       108.5383 
 567   0.0000       3.992633       108.6451 
 568   0.0000       4.012607       109.1886 
 569   0.0000       4.019874       109.3863 
 570   0.0000       4.028869       109.6311 
 571   0.0000       4.031681       109.7076 
 572   0.0000       4.038257       109.8865 
 573   0.0000       4.045697       110.0890 
 574   0.0000       4.055530       110.3566 
 575   0.0000       4.077552       110.9558 
 576   0.0000       4.084991       111.1583 
 577   0.0000       4.089519       111.2815 
 578   0.0000       4.095162       111.4350 
 579   0.0000       4.104646       111.6931 
 580   0.0000       4.111079       111.8681 
 581   0.0000       4.118112       112.0595 
 582   0.0000       4.124044       112.2210 
 583   0.0000       4.129119       112.3590 
 584   0.0000       4.137574       112.5891 
 585   0.0000       4.147738       112.8657 
 586   0.0000       4.155519       113.0774 
 587   0.0000       4.161948       113.2524 
 588   0.0000       4.164217       113.3141 
 589   0.0000       4.173037       113.5541 
 590   0.0000       4.180964       113.7698 
 591   0.0000       4.185939       113.9052 
 592   0.0000       4.192284       114.0779 
 593   0.0000       4.200206       114.2934 
 594   0.0000       4.203073       114.3714 
 595   0.0000       4.209747       114.5530 
 596   0.0000       4.211393       114.5978 
 597   0.0000       4.227534       115.0370 
 598   0.0000       4.238649       115.3395 
 599   0.0000       4.240146       115.3802 
 600   0.0000       4.257956       115.8649 
 601   0.0000       4.263508       116.0160 
 602   0.0000       4.266355       116.0934 
 603   0.0000       4.274445       116.3136 
 604   0.0000       4.281884       116.5160 
 605   0.0000       4.287021       116.6558 
 606   0.0000       4.290196       116.7422 
 607   0.0000       4.302134       117.0670 
 608   0.0000       4.311778       117.3294 
 609   0.0000       4.322166       117.6121 
 610   0.0000       4.330441       117.8373 
 611   0.0000       4.337835       118.0385 
 612   0.0000       4.341253       118.1315 
 613   0.0000       4.349043       118.3435 
 614   0.0000       4.355057       118.5071 
 615   0.0000       4.367087       118.8345 
 616   0.0000       4.373648       119.0130 
 617   0.0000       4.376739       119.0971 
 618   0.0000       4.386863       119.3726 
 619   0.0000       4.403732       119.8316 
 620   0.0000       4.410511       120.0161 
 621   0.0000       4.415936       120.1637 
 622   0.0000       4.418195       120.2252 
 623   0.0000       4.429381       120.5296 
 624   0.0000       4.438071       120.7660 
 625   0.0000       4.446796       121.0035 
 626   0.0000       4.450946       121.1164 
 627   0.0000       4.466327       121.5349 
 628   0.0000       4.469877       121.6315 
 629   0.0000       4.476963       121.8244 
 630   0.0000       4.487850       122.1206 
 631   0.0000       4.499589       122.4400 
 632   0.0000       4.505321       122.5960 
 633   0.0000       4.512298       122.7859 
 634   0.0000       4.526410       123.1699 
 635   0.0000       4.548588       123.7734 
 636   0.0000       4.556076       123.9771 
 637   0.0000       4.562840       124.1612 
 638   0.0000       4.568239       124.3081 
 639   0.0000       4.574244       124.4715 
 640   0.0000       4.578180       124.5786 
 641   0.0000       4.589477       124.8860 
 642   0.0000       4.591878       124.9514 
 643   0.0000       4.599706       125.1644 
 644   0.0000       4.602770       125.2477 
 645   0.0000       4.613014       125.5265 
 646   0.0000       4.625395       125.8634 
 647   0.0000       4.632342       126.0524 
 648   0.0000       4.638698       126.2254 
 649   0.0000       4.655279       126.6766 
 650   0.0000       4.665653       126.9589 
 651   0.0000       4.670369       127.0872 
 652   0.0000       4.679801       127.3439 
 653   0.0000       4.683661       127.4489 
 654   0.0000       4.713012       128.2476 
 655   0.0000       4.717870       128.3798 
 656   0.0000       4.721349       128.4744 
 657   0.0000       4.732474       128.7772 
 658   0.0000       4.738743       128.9478 
 659   0.0000       4.755548       129.4050 
 660   0.0000       4.761363       129.5633 
 661   0.0000       4.771877       129.8494 
 662   0.0000       4.772804       129.8746 
 663   0.0000       4.780776       130.0915 
 664   0.0000       4.799068       130.5893 
 665   0.0000       4.819872       131.1554 
 666   0.0000       4.832712       131.5048 
 667   0.0000       4.844440       131.8239 
 668   0.0000       4.850420       131.9866 
 669   0.0000       4.867616       132.4546 
 670   0.0000       4.885632       132.9448 
 671   0.0000       4.920415       133.8913 
 672   0.0000       4.939897       134.4214 
 673   0.0000       4.955844       134.8554 
 674   0.0000       4.966569       135.1472 
 675   0.0000       4.986566       135.6914 
 676   0.0000       5.004696       136.1847 
 677   0.0000       5.011209       136.3619 
 678   0.0000       5.022961       136.6817 
 679   0.0000       5.048077       137.3651 
 680   0.0000       5.058773       137.6562 
 681   0.0000       5.075823       138.1202 
 682   0.0000       5.085861       138.3933 
 683   0.0000       5.093648       138.6052 
 684   0.0000       5.099241       138.7574 
 685   0.0000       5.111883       139.1014 
 686   0.0000       5.121306       139.3578 
 687   0.0000       5.127487       139.5260 
 688   0.0000       5.155013       140.2750 
 689   0.0000       5.160736       140.4308 
 690   0.0000       5.167905       140.6258 
 691   0.0000       5.172175       140.7420 
 692   0.0000       5.183631       141.0538 
 693   0.0000       5.199649       141.4897 
 694   0.0000       5.208624       141.7339 
 695   0.0000       5.211383       141.8089 
 696   0.0000       5.230023       142.3162 
 697   0.0000       5.233621       142.4141 
 698   0.0000       5.239238       142.5669 
 699   0.0000       5.251406       142.8980 
 700   0.0000       5.264176       143.2455 
 701   0.0000       5.278749       143.6421 
 702   0.0000       5.298610       144.1825 
 703   0.0000       5.318636       144.7274 
 704   0.0000       5.323183       144.8512 
 705   0.0000       5.326001       144.9279 
 706   0.0000       5.350951       145.6068 
 707   0.0000       5.366356       146.0260 
 708   0.0000       5.374000       146.2340 
 709   0.0000       5.389141       146.6460 
 710   0.0000       5.399283       146.9220 
 711   0.0000       5.414267       147.3297 
 712   0.0000       5.436810       147.9431 
 713   0.0000       5.465814       148.7324 
 714   0.0000       5.470700       148.8653 
 715   0.0000       5.476780       149.0308 
 716   0.0000       5.494888       149.5235 
 717   0.0000       5.513306       150.0247 
 718   0.0000       5.517576       150.1409 
 719   0.0000       5.525899       150.3674 
 720   0.0000       5.532975       150.5599 
 721   0.0000       5.552847       151.1006 
 722   0.0000       5.577583       151.7737 
 723   0.0000       5.583045       151.9224 
 724   0.0000       5.592997       152.1932 
 725   0.0000       5.612693       152.7291 
 726   0.0000       5.615569       152.8074 
 727   0.0000       5.633469       153.2945 
 728   0.0000       5.635523       153.3504 
 729   0.0000       5.654814       153.8753 
 730   0.0000       5.663357       154.1078 
 731   0.0000       5.672282       154.3507 
 732   0.0000       5.681074       154.5899 
 733   0.0000       5.684367       154.6795 
 734   0.0000       5.700844       155.1279 
 735   0.0000       5.705773       155.2620 
 736   0.0000       5.727937       155.8651 
 737   0.0000       5.739536       156.1807 
 738   0.0000       5.753369       156.5571 
 739   0.0000       5.760886       156.7617 
 740   0.0000       5.774446       157.1307 
 741   0.0000       5.796200       157.7226 
 742   0.0000       5.825772       158.5273 
 743   0.0000       5.831151       158.6737 
 744   0.0000       5.846178       159.0826 
 745   0.0000       5.857791       159.3986 
 746   0.0000       5.868318       159.6850 
 747   0.0000       5.879928       160.0010 
 748   0.0000       5.912130       160.8772 
 749   0.0000       5.915460       160.9679 
 750   0.0000       5.930233       161.3698 
 751   0.0000       5.938271       161.5886 
 752   0.0000       5.967809       162.3923 
 753   0.0000       5.980333       162.7331 
 754   0.0000       6.002187       163.3278 
 755   0.0000       6.010352       163.5500 
 756   0.0000       6.018055       163.7596 
 757   0.0000       6.023647       163.9118 
 758   0.0000       6.063890       165.0068 
 759   0.0000       6.084667       165.5722 
 760   0.0000       6.123588       166.6313 
 761   0.0000       6.157971       167.5669 
 762   0.0000       6.193048       168.5214 
 763   0.0000       6.199651       168.7011 
 764   0.0000       6.226660       169.4360 
 765   0.0000       6.269447       170.6003 
 766   0.0000       6.292726       171.2338 
 767   0.0000       6.315660       171.8578 
 768   0.0000       6.338734       172.4857 
 769   0.0000       6.342361       172.5844 
 770   0.0000       6.351286       172.8273 
 771   0.0000       6.364380       173.1836 
 772   0.0000       6.417101       174.6182 
 773   0.0000       6.445882       175.4014 
 774   0.0000       6.457222       175.7099 
 775   0.0000       6.463768       175.8881 
 776   0.0000       6.470159       176.0620 
 777   0.0000       6.491863       176.6526 
 778   0.0000       6.562646       178.5787 
 779   0.0000       6.576417       178.9534 
 780   0.0000       6.590467       179.3357 
 781   0.0000       6.605404       179.7422 
 782   0.0000       6.648949       180.9271 
 783   0.0000       6.700145       182.3202 
 784   0.0000       6.825164       185.7222 
 785   0.0000       6.879103       187.1899 
 786   0.0000       6.892502       187.5545 
 787   0.0000       6.910767       188.0515 
 788   0.0000       6.935931       188.7363 
 789   0.0000       7.018247       190.9762 
 790   0.0000       7.051470       191.8803 
 791   0.0000       7.059218       192.0911 
 792   0.0000       7.085012       192.7930 
 793   0.0000       7.139742       194.2823 
 794   0.0000       7.198222       195.8736 
 795   0.0000       7.231695       196.7844 
 796   0.0000       7.279991       198.0986 
 797   0.0000       7.302891       198.7218 
 798   0.0000       7.322977       199.2683 
 799   0.0000       7.327751       199.3982 
 800   0.0000       7.343135       199.8169 
 801   0.0000       7.480365       203.5511 
 802   0.0000       7.553102       205.5304 
 803   0.0000       7.616840       207.2648 
 804   0.0000       7.654336       208.2851 
 805   0.0000       7.762835       211.2375 
 806   0.0000       7.807601       212.4556 
 807   0.0000       7.976463       217.0506 
 808   0.0000       7.990580       217.4347 
 809   0.0000       9.291471       252.8338 
 810   0.0000       9.601694       261.2754 
 811   0.0000      10.633072       289.3406 
 812   0.0000      10.988244       299.0053 
 813   0.0000      11.923172       324.4460 
 814   0.0000      12.588568       342.5523 
 815   0.0000      12.652125       344.2818 
 816   0.0000      12.979412       353.1878 
 817   0.0000      13.045136       354.9762 
 818   0.0000      13.144121       357.6697 
 819   0.0000      13.200966       359.2165 
 820   0.0000      13.359423       363.5284 
 821   0.0000      13.610876       370.3708 
 822   0.0000      13.776233       374.8704 
 823   0.0000      14.100140       383.6843 
 824   0.0000      14.221842       386.9960 
 825   0.0000      14.441946       392.9853 
 826   0.0000      14.872832       404.7103 
 827   0.0000      16.042335       436.5341 

                    ********************************
                    * MULLIKEN POPULATION ANALYSIS *
                    ********************************

-----------------------
MULLIKEN ATOMIC CHARGES
-----------------------
   0 C :   -0.287400
   1 C :    0.051300
   2 O :   -0.333154
   3 C :    0.473971
   4 O :   -0.488072
   5 C :   -0.271311
   6 C :    0.213587
   7 C :   -0.300630
   8 N :   -0.097947
   9 C :    0.213273
  10 S :   -0.447641
  11 N :   -0.237888
  12 C :    0.074804
  13 C :    0.057684
  14 C :   -0.228355
  15 C :   -0.108328
  16 C :   -0.238668
  17 C :    0.329570
  18 O :   -0.368568
  19 C :   -0.268300
  20 H :    0.097614
  21 H :    0.081666
  22 H :    0.123295
  23 H :    0.101673
  24 H :    0.105360
  25 H :    0.087729
  26 H :    0.142669
  27 H :    0.129623
  28 H :    0.206549
  29 H :    0.194402
  30 H :    0.149746
  31 H :    0.155839
  32 H :    0.161559
  33 H :    0.164064
  34 H :    0.236074
  35 H :    0.124213
Sum of atomic charges:   -0.0000000

--------------------------------
MULLIKEN REDUCED ORBITAL CHARGES
--------------------------------
  0 C s       :     3.262738  s :     3.262738
      pz      :     1.012363  p :     2.944059
      px      :     0.908682
      py      :     1.023014
      dz2     :     0.014744  d :     0.075756
      dxz     :     0.014058
      dyz     :     0.007386
      dx2y2   :     0.022834
      dxy     :     0.016733
      f0      :     0.000672  f :     0.004846
      f+1     :     0.000963
      f-1     :     0.000345
      f+2     :     0.000318
      f-2     :     0.000227
      f+3     :     0.000879
      f-3     :     0.001443
  1 C s       :     3.153085  s :     3.153085
      pz      :     0.714266  p :     2.634140
      px      :     0.899779
      py      :     1.020095
      dz2     :     0.034396  d :     0.149935
      dxz     :     0.041868
      dyz     :     0.027375
      dx2y2   :     0.026831
      dxy     :     0.019465
      f0      :     0.002899  f :     0.011541
      f+1     :     0.002669
      f-1     :     0.001429
      f+2     :     0.001294
      f-2     :     0.001156
      f+3     :     0.000815
      f-3     :     0.001278
  2 O s       :     3.714913  s :     3.714913
      pz      :     1.367042  p :     4.580469
      px      :     1.677233
      py      :     1.536194
      dz2     :     0.008357  d :     0.035468
      dxz     :     0.004856
      dyz     :     0.010082
      dx2y2   :     0.005701
      dxy     :     0.006472
      f0      :     0.000379  f :     0.002304
      f+1     :     0.000465
      f-1     :     0.000284
      f+2     :     0.000332
      f-2     :     0.000377
      f+3     :     0.000276
      f-3     :     0.000190
  3 C s       :     3.061164  s :     3.061164
      pz      :     0.779381  p :     2.152602
[...]
 15 C s       :     2.705741  s :     2.705741
      pz      :     0.904889  p :     2.788092
      px      :     0.949007
      py      :     0.934196
      dz2     :     0.090081  d :     0.416301
      dxz     :     0.062171
      dyz     :     0.076767
      dx2y2   :     0.104862
      dxy     :     0.082420
      f0      :     0.004927  f :     0.041460
      f+1     :     0.005452
      f-1     :     0.005894
      f+2     :     0.007407
      f-2     :     0.005078
      f+3     :     0.005591
      f-3     :     0.007112
 16 C s       :     2.697761  s :     2.697761
      pz      :     0.928053  p :     2.850867
      px      :     0.963968
      py      :     0.958845
      dz2     :     0.041523  d :     0.387063
      dxz     :     0.071871
      dyz     :     0.075636
      dx2y2   :     0.093069
      dxy     :     0.104964
      f0      :     0.003489  f :     0.041953
      f+1     :     0.005358
      f-1     :     0.005127
      f+2     :     0.006739
      f-2     :     0.005711
      f+3     :     0.007204
      f-3     :     0.008325
 17 C s       :     2.688765  s :     2.688765
      pz      :     0.910540  p :     2.686568
      px      :     0.963486
      py      :     0.812543
      dz2     :     0.131330  d :     0.742500
      dxz     :     0.135240
      dyz     :     0.143129
      dx2y2   :     0.180327
      dxy     :     0.152474
      f0      :     0.009274  f :     0.109545
      f+1     :     0.012682
      f-1     :     0.016587
      f+2     :     0.019714
      f-2     :     0.014011
      f+3     :     0.015483
      f-3     :     0.021794
 18 O s       :     3.161691  s :     3.161691
      pz      :     1.553290  p :     4.350647
      px      :     1.384686
      py      :     1.412670
      dz2     :     0.009395  d :     0.078483
      dxz     :     0.014667
      dyz     :     0.017310
      dx2y2   :     0.018191
      dxy     :     0.018919
      f0      :     0.000359  f :     0.004912
      f+1     :     0.000310
      f-1     :     0.000746
      f+2     :     0.001152
      f-2     :     0.000911
      f+3     :     0.000598
      f-3     :     0.000837
 19 C s       :     2.691227  s :     2.691227
      pz      :     0.954142  p :     2.859567
      px      :     0.948434
      py      :     0.956991
      dz2     :     0.076327  d :     0.400054
      dxz     :     0.060349
      dyz     :     0.079718
      dx2y2   :     0.086435
      dxy     :     0.097225
      f0      :     0.004630  f :     0.042883
      f+1     :     0.005109
      f-1     :     0.006344
      f+2     :     0.007919
      f-2     :     0.005877
      f+3     :     0.005247
      f-3     :     0.007756
 20 H s       :     0.837961  s :     0.837961
      pz      :     0.066780  p :     0.150695
      px      :     0.043678
      py      :     0.040237
      dz2     :     0.008809  d :     0.027857
      dxz     :     0.008258
      dyz     :     0.007753
      dx2y2   :     0.001786
      dxy     :     0.001252
 21 H s       :     0.848931  s :     0.848931
      pz      :     0.052302  p :     0.151968
      px      :     0.052174
      py      :     0.047491
      dz2     :     0.007251  d :     0.027851
      dxz     :     0.005320
      dyz     :     0.004122
      dx2y2   :     0.006334
      dxy     :     0.004825
 22 H s       :     0.841761  s :     0.841761
      pz      :     0.041135  p :     0.150902
      px      :     0.037036
      py      :     0.072730
      dz2     :     0.003405  d :     0.027304
      dxz     :     0.000514
      dyz     :     0.008343
      dx2y2   :     0.006703
      dxy     :     0.008339
 23 H s       :     0.842651  s :     0.842651
      pz      :     0.047344  p :     0.149141
      px      :     0.049652
      py      :     0.052145
      dz2     :     0.005704  d :     0.027689
      dxz     :     0.006181
      dyz     :     0.005863
      dx2y2   :     0.006467
      dxy     :     0.003473
 24 H s       :     0.848802  s :     0.848802
      pz      :     0.031378  p :     0.143760
      px      :     0.039176
      py      :     0.073205
      dz2     :     0.003353  d :     0.027526
      dxz     :     0.001069
      dyz     :     0.007731
      dx2y2   :     0.006458
      dxy     :     0.008915
 25 H s       :     0.838884  s :     0.838884
      pz      :     0.057703  p :     0.152175
      px      :     0.052598
      py      :     0.041874
      dz2     :     0.008266  d :     0.028345
      dxz     :     0.005974
      dyz     :     0.006293
      dx2y2   :     0.004677
      dxy     :     0.003134
 26 H s       :     0.817046  s :     0.817046
      pz      :     0.072358  p :     0.155928
      px      :     0.043575
      py      :     0.039995
      dz2     :     0.008689  d :     0.028064
      dxz     :     0.008199
      dyz     :     0.007654
      dx2y2   :     0.002303
      dxy     :     0.001218
 27 H s       :     0.820439  s :     0.820439
      pz      :     0.041852  p :     0.151719
      px      :     0.071245
      py      :     0.038622
      dz2     :     0.002609  d :     0.027992
      dxz     :     0.009176
      dyz     :     0.000863
      dx2y2   :     0.007662
      dxy     :     0.007682
 28 H s       :     0.736741  s :     0.736741
      pz      :     0.084777  p :     0.249382
      px      :     0.088962
      py      :     0.075643
      dz2     :     0.013487  d :     0.060584
      dxz     :     0.008338
      dyz     :     0.014412
      dx2y2   :     0.011226
      dxy     :     0.013121
 29 H s       :     0.752485  s :     0.752485
      pz      :     0.069456  p :     0.257536
      px      :     0.078915
      py      :     0.109165
      dz2     :     0.008848  d :     0.061286
      dxz     :     0.003714
      dyz     :     0.017041
      dx2y2   :     0.012990
      dxy     :     0.018693
 30 H s       :     0.834759  s :     0.834759
      pz      :     0.028979  p :     0.147227
      px      :     0.076228
      py      :     0.042021
      dz2     :     0.002957  d :     0.028079
      dxz     :     0.007017
      dyz     :     0.000812
      dx2y2   :     0.009175
      dxy     :     0.008119
 31 H s       :     0.844301  s :     0.844301
      pz      :     0.049243  p :     0.159542
      px      :     0.044291
      py      :     0.066008
      dz2     :     0.004767  d :     0.027851
      dxz     :     0.003732
      dyz     :     0.006326
      dx2y2   :     0.006568
      dxy     :     0.006457
 32 H s       :     0.841172  s :     0.841172
      pz      :     0.037981  p :     0.152083
      px      :     0.075402
      py      :     0.038700
      dz2     :     0.003068  d :     0.026771
      dxz     :     0.007367
      dyz     :     0.000815
      dx2y2   :     0.007763
      dxy     :     0.007758
 33 H s       :     0.839521  s :     0.839521
      pz      :     0.058246  p :     0.155016
      px      :     0.045819
      py      :     0.050952
      dz2     :     0.006214  d :     0.027451
      dxz     :     0.005300
      dyz     :     0.005809
      dx2y2   :     0.005042
      dxy     :     0.005085
 34 H s       :     0.710952  s :     0.710952
      pz      :     0.117090  p :     0.343698
      px      :     0.142915
      py      :     0.083693
      dz2     :     0.016730  d :     0.097523
      dxz     :     0.024734
      dyz     :     0.011118
      dx2y2   :     0.024909
      dxy     :     0.020032
 35 H s       :     0.847285  s :     0.847285
      pz      :     0.044102  p :     0.158084
      px      :     0.071229
      py      :     0.042753
      dz2     :     0.003129  d :     0.028128
      dxz     :     0.007485
      dyz     :     0.001915
      dx2y2   :     0.007901
      dxy     :     0.007699


                      *****************************
                      * MAYER POPULATION ANALYSIS *
                      *****************************

  NA   - Mulliken gross atomic population
  ZA   - Total nuclear charge
  QA   - Mulliken gross atomic charge
  VA   - Mayer's total valence
  BVA  - Mayer's bonded valence
  FA   - Mayer's free valence

  ATOM       NA         ZA         QA         VA         BVA        FA
  0 C      6.2874     6.0000    -0.2874     3.8657     3.8657     0.0000
  1 C      5.9487     6.0000     0.0513     3.8581     3.8581    -0.0000
  2 O      8.3332     8.0000    -0.3332     2.1001     2.1001    -0.0000
  3 C      5.5260     6.0000     0.4740     4.1754     4.1754     0.0000
  4 O      8.4881     8.0000    -0.4881     2.0089     2.0089     0.0000
  5 C      6.2713     6.0000    -0.2713     3.6718     3.6718     0.0000
  6 C      5.7864     6.0000     0.2136     3.8330     3.8330    -0.0000
  7 C      6.3006     6.0000    -0.3006     3.8929     3.8929    -0.0000
  8 N      7.0979     7.0000    -0.0979     3.3303     3.3303     0.0000
  9 C      5.7867     6.0000     0.2133     4.1343     4.1343     0.0000
 10 S     16.4476    16.0000    -0.4476     1.7278     1.7278    -0.0000
 11 N      7.2379     7.0000    -0.2379     3.2197     3.2197    -0.0000
 12 C      5.9252     6.0000     0.0748     3.9530     3.9530    -0.0000
 13 C      5.9423     6.0000     0.0577     3.7041     3.7041     0.0000
 14 C      6.2284     6.0000    -0.2284     3.8694     3.8694    -0.0000
 15 C      6.1083     6.0000    -0.1083     3.8051     3.8051     0.0000
 16 C      6.2387     6.0000    -0.2387     3.8171     3.8171     0.0000
 17 C      5.6704     6.0000     0.3296     3.8550     3.8550     0.0000
 18 O      8.3686     8.0000    -0.3686     2.0969     2.0969     0.0000
 19 C      6.2683     6.0000    -0.2683     3.8473     3.8473    -0.0000
 20 H      0.9024     1.0000     0.0976     0.9805     0.9805    -0.0000
 21 H      0.9183     1.0000     0.0817     0.9832     0.9832     0.0000
 22 H      0.8767     1.0000     0.1233     0.9906     0.9906    -0.0000
 23 H      0.8983     1.0000     0.1017     0.9841     0.9841    -0.0000
 24 H      0.8946     1.0000     0.1054     0.9755     0.9755     0.0000
 25 H      0.9123     1.0000     0.0877     0.9858     0.9858     0.0000
 26 H      0.8573     1.0000     0.1427     0.9898     0.9898    -0.0000
 27 H      0.8704     1.0000     0.1296     0.9764     0.9764     0.0000
 28 H      0.7935     1.0000     0.2065     1.0198     1.0198     0.0000
 29 H      0.8056     1.0000     0.1944     1.0171     1.0171     0.0000
 30 H      0.8503     1.0000     0.1497     0.9933     0.9933    -0.0000
 31 H      0.8442     1.0000     0.1558     0.9832     0.9832    -0.0000
 32 H      0.8384     1.0000     0.1616     0.9750     0.9750     0.0000
 33 H      0.8359     1.0000     0.1641     0.9860     0.9860    -0.0000
 34 H      0.7639     1.0000     0.2361     1.0154     1.0154     0.0000
 35 H      0.8758     1.0000     0.1242     0.9954     0.9954    -0.0000

  Mayer bond orders larger than 0.100000
B(  0-C ,  1-C ) :   0.9684 B(  0-C , 20-H ) :   0.9735 B(  0-C , 21-H ) :   0.9783 
B(  0-C , 22-H ) :   0.9722 B(  1-C ,  2-O ) :   0.8867 B(  1-C , 23-H ) :   0.9756 
B(  1-C , 24-H ) :   0.9860 B(  2-O ,  3-C ) :   1.1977 B(  3-C ,  4-O ) :   1.8723 
B(  3-C ,  5-C ) :   1.0707 B(  5-C ,  6-C ) :   1.6447 B(  5-C , 12-C ) :   0.9607 
B(  6-C ,  7-C ) :   0.9588 B(  6-C ,  8-N ) :   1.1515 B(  7-C , 25-H ) :   0.9951 
B(  7-C , 26-H ) :   0.9551 B(  7-C , 27-H ) :   0.9583 B(  8-N ,  9-C ) :   1.2290 
B(  8-N , 28-H ) :   0.9347 B(  9-C , 10-S ) :   1.5770 B(  9-C , 11-N ) :   1.2711 
B( 11-N , 12-C ) :   0.9899 B( 11-N , 29-H ) :   0.9543 B( 12-C , 13-C ) :   0.9463 
B( 12-C , 30-H ) :   0.9928 B( 13-C , 14-C ) :   1.3845 B( 13-C , 19-C ) :   1.3269 
B( 14-C , 15-C ) :   1.3975 B( 14-C , 31-H ) :   0.9677 B( 15-C , 16-C ) :   1.3667 
B( 15-C , 32-H ) :   0.9737 B( 16-C , 17-C ) :   1.3517 B( 16-C , 33-H ) :   0.9653 
B( 17-C , 18-O ) :   1.0838 B( 17-C , 19-C ) :   1.3717 B( 18-O , 34-H ) :   0.9817 
B( 19-C , 35-H ) :   0.9737 

-------
TIMINGS
-------

Total SCF time: 0 days 2 hours 1 min 58 sec 

Total time                  ....    7318.782 sec
Sum of individual times     ....    7315.305 sec  (100.0%)

Fock matrix formation       ....    7302.116 sec  ( 99.8%)
Diagonalization             ....       1.773 sec  (  0.0%)
Density matrix formation    ....       0.256 sec  (  0.0%)
Population analysis         ....       0.213 sec  (  0.0%)
Initial guess               ....       6.148 sec  (  0.1%)
Orbital Transformation      ....       0.000 sec  (  0.0%)
Orbital Orthonormalization  ....       0.000 sec  (  0.0%)
DIIS solution               ....       1.694 sec  (  0.0%)
SOSCF solution              ....       1.637 sec  (  0.0%)

Maximum memory used throughout the entire SCF-calculation: 724.7 MB

------------------------------------------------------------------------------
                                ORCA  MP2 
------------------------------------------------------------------------------

Freezing NCore=48 chemical core electrons

-------------
RI-MP2 ENERGY
-------------
Dimension of the basis                    ...  828
Memory devoted to MP2                     ...  256 MB   
Data format for buffers                   ... DOUBLE
Compression type for matrix containers    ... UNCOMPRESSED
Overall scaling of the MP2 energy         ...   1.000e+00
Calculating two index integrals           ... done (    0.065 sec)
Cholesky decomposition of V**-1           ... done (    0.641 sec)

-----------------
RI-TRANSFORMATION (AUX index driven)
-----------------

Dimension of the orbital-basis         ... 828
Dimension of the aux-basis             ... 2141
Transformation of internal/external MOs...   24-  76 to   77- 827
Number Format for Storage              ... Double (8 Byte)
Integral mode                          ... Direct

First Phase: integral generation and transformation of MO indices
  Aux angular momentum 0               ... done (    5.612 sec)
  Aux angular momentum 1               ... done (    9.418 sec)
  Aux angular momentum 2               ... done (   11.587 sec)
  Aux angular momentum 3               ... done (    9.179 sec)
  Aux angular momentum 4               ... done (    3.191 sec)
Closing buffer VIA ( 0.63 GB; CompressionRatio= 1.00)
  Phase 1 completed in    39.179 sec
Second Phase: sorting and transformation of aux index

IA-Transformation
Memory available                       ... 157 MB 
Max. # MO pairs treated in a batch     ... 11    
# of internal orbitals                 ... 53
# batches for internal orbitals        ... 5
Closing buffer IAV ( 0.63 GB; CompressionRatio= 1.00)
(ia|v) transformation done in    18.993 sec

  Phase 2 completed in    19.017 sec
RI-Integral transformation completed in    58.207 sec
Opening buffers                              ... done

Starting loop over batches of integrals:

Operator 0  - window                       ... ( 24- 76)x( 77-827)
Operator 0  - Memory available             ...   256 MB
Operator 0  - Memory needed per MO         ...  12.3 MB
Operator 0  - Number of orbitals per batch ... 13
Operator 0  - Number of batches            ... 5

OPERATOR  0   PASS   0:  MOs    24 ...   36
  Reading integrals       ... ok
  Internal MO  26
  Internal MO  29
  Internal MO  32
  Internal MO  35
OPERATOR  0   PASS   1:  MOs    37 ...   49
  Reading integrals       ... ok
  Internal MO  38
  Internal MO  41
  Internal MO  44
  Internal MO  47
OPERATOR  0   PASS   2:  MOs    50 ...   62
  Reading integrals       ... ok
  Internal MO  50
  Internal MO  53
  Internal MO  56
  Internal MO  59
  Internal MO  62
OPERATOR  0   PASS   3:  MOs    63 ...   75
  Reading integrals       ... ok
  Internal MO  65
  Internal MO  68
  Internal MO  71
  Internal MO  74
OPERATOR  0   PASS   4:  MOs    76 ...   76
  Reading integrals       ... ok
Time spent in pair loops =    99.766 sec
Deleting buffer (Ka|jb)[aa] ...done

-----------------------------------------------
 RI-MP2 CORRELATION ENERGY:     -3.540603992 Eh
-----------------------------------------------


-------
TIMINGS
-------

Total time                :  158.795 sec
Integral trafo            :   58.235 sec ( 36.7%)
I/O of integrals          :    1.043 sec (  0.7%)
K(i,j) Operators          :   70.188 sec ( 44.2%)
T(i,j) pair energies      :   10.359 sec (  6.5%)
V-calculation             :    0.065 sec (  0.0%)
V**(-1/2)                 :    0.641 sec (  0.4%)
Gamma(ia|P)               :    0.000 sec (  0.0%)
Gamma-Trafo               :    0.000 sec (  0.0%)
D(virtual)                :    0.000 sec (  0.0%)
D(internal)               :    0.000 sec (  0.0%)
W(virtual)                :    0.000 sec (  0.0%)
W(internal)               :    0.000 sec (  0.0%)
L(virtual)                :    0.000 sec (  0.0%)
L(internal)               :    0.000 sec (  0.0%)
G(D)                      :    0.000 sec (  0.0%)
G(Z)                      :    0.000 sec (  0.0%)
Z-Vector Solution         :    0.000 sec (  0.0%)
3-Index Derivative        :    0.000 sec (  0.0%)
2-Index Derivative        :    0.000 sec (  0.0%)
Separable Gradient        :    0.000 sec (  0.0%)


---------------------------------------
MP2 TOTAL ENERGY:    -1274.310804110 Eh
---------------------------------------

Maximum memory used throughout the entire MP2-calculation: 303.5 MB

-------------------------   --------------------
FINAL SINGLE POINT ENERGY     -1274.310804110455
-------------------------   --------------------


                            ***************************************
                            *     ORCA property calculations      *
                            ***************************************


  WARNING: The energy has been calculated at the MP2 level but the densities
           used in the property calculations are still SCF densities
           MP2 response densities have not been calculated 
           use %mp2 Density relaxed end
           or  %mp2 Density unrelaxed end

                                    ---------------------
                                    Active property flags
                                    ---------------------
   (+) Dipole Moment


------------------------------------------------------------------------------
                       ORCA ELECTRIC PROPERTIES CALCULATION
------------------------------------------------------------------------------

Dipole Moment Calculation                       ... on
Quadrupole Moment Calculation                   ... off
Polarizability Calculation                      ... off
GBWName                                         ... qm_input.vacu.gbw
Electron density file                           ... qm_input.vacu.scfp
The origin for moment calculation is the CENTER OF MASS  = (-1.475765, 18.916038  9.313845)

-------------
DIPOLE MOMENT
-------------
                                X             Y             Z
Electronic contribution:     -9.41116      -5.16803      11.81833
Nuclear contribution   :     10.72387       5.04161     -12.69580
                        -----------------------------------------
Total Dipole Moment    :      1.31270      -0.12642      -0.87747
                        -----------------------------------------
Magnitude (a.u.)       :      1.58402
Magnitude (Debye)      :      4.02627



--------------------
Rotational spectrum 
--------------------
 
Rotational constants in cm-1:     0.011813     0.008446     0.005607 
Rotational constants in MHz :   354.131575   253.208212   168.083771 

 Dipole components along the rotational axes: 
x,y,z [a.u.] :    -1.197667     0.798176    -0.661540 
x,y,z [Debye]:    -3.044228     2.028803    -1.681501 

 

Timings for individual modules:

Sum of individual times         ...     7480.392 sec (= 124.673 min)
GTO integral calculation        ...        2.102 sec (=   0.035 min)   0.0 %
SCF iterations                  ...     7318.985 sec (= 121.983 min)  97.8 %
MP2 module                      ...      159.305 sec (=   2.655 min)   2.1 %
                             ****ORCA TERMINATED NORMALLY****
TOTAL RUN TIME: 0 days 2 hours 4 minutes 41 seconds 345 msec
