
                                        *****************
                                        * O   R   C   A *
                                        *****************

                                            #,                                       
                                            ###                                      
                                            ####                                     
                                            #####                                    
                                            ######                                   
                                           ########,                                 
                                     ,,################,,,,,                         
                               ,,#################################,,                 
                          ,,##########################################,,             
                       ,#########################################, ''#####,          
                    ,#############################################,,   '####,        
                  ,##################################################,,,,####,       
                ,###########''''           ''''###############################       
              ,#####''   ,,,,##########,,,,          '''####'''          '####       
            ,##' ,,,,###########################,,,                        '##       
           ' ,,###''''                  '''############,,,                           
         ,,##''                                '''############,,,,        ,,,,,,###''
      ,#''                                            '''#######################'''  
     '                                                          ''''####''''         
             ,#######,   #######,   ,#######,      ##                                
            ,#'     '#,  ##    ##  ,#'     '#,    #''#        ######   ,####,        
            ##       ##  ##   ,#'  ##            #'  '#       #        #'  '#        
            ##       ##  #######   ##           ,######,      #####,   #    #        
            '#,     ,#'  ##    ##  '#,     ,#' ,#      #,         ##   #,  ,#        
             '#######'   ##     ##  '#######'  #'      '#     #####' # '####'        



                  #######################################################
                  #                        -***-                        #
                  #          Department of theory and spectroscopy      #
                  #    Directorship and core code : Frank Neese         #
                  #        Max Planck Institute fuer Kohlenforschung    #
                  #                Kaiser Wilhelm Platz 1               #
                  #                 D-45470 Muelheim/Ruhr               #
                  #                      Germany                        #
                  #                                                     #
                  #                  All rights reserved                #
                  #                        -***-                        #
                  #######################################################


                         Program Version 5.0.0 -  RELEASE  -
                                (SVN: $Rev: 19529$)
                ($Date: 2021-06-28 11:36:33 +0200 (Mo, 28 Jun 2021) $)


 With contributions from (in alphabetic order):
   Daniel Aravena         : Magnetic Suceptibility
   Michael Atanasov       : Ab Initio Ligand Field Theory (pilot matlab implementation)
   Alexander A. Auer      : GIAO ZORA, VPT2 properties, NMR spectrum
   Ute Becker             : Parallelization
   Giovanni Bistoni       : ED, misc. LED, open-shell LED, HFLD
   Martin Brehm           : Molecular dynamics
   Dmytro Bykov           : SCF Hessian
   Vijay G. Chilkuri      : MRCI spin determinant printing, contributions to CSF-ICE
   Dipayan Datta          : RHF DLPNO-CCSD density
   Achintya Kumar Dutta   : EOM-CC, STEOM-CC
   Dmitry Ganyushin       : Spin-Orbit,Spin-Spin,Magnetic field MRCI
   Miquel Garcia          : C-PCM Hessian, Gaussian charge scheme
   Yang Guo               : DLPNO-NEVPT2, F12-NEVPT2, CIM, IAO-localization
   Andreas Hansen         : Spin unrestricted coupled pair/coupled cluster methods
   Benjamin Helmich-Paris : MC-RPA, TRAH-SCF, COSX integrals
   Lee Huntington         : MR-EOM, pCC
   Robert Izsak           : Overlap fitted RIJCOSX, COSX-SCS-MP3, EOM
   Marcus Kettner         : VPT2
   Christian Kollmar      : KDIIS, OOCD, Brueckner-CCSD(T), CCSD density, CASPT2, CASPT2-K
   Simone Kossmann        : Meta GGA functionals, TD-DFT gradient, OOMP2, MP2 Hessian
   Martin Krupicka        : Initial AUTO-CI
   Lucas Lang             : DCDCAS
   Marvin Lechner         : AUTO-CI (C++ implementation), FIC-MRCC
   Dagmar Lenk            : GEPOL surface, SMD
   Dimitrios Liakos       : Extrapolation schemes; Compound Job, initial MDCI parallelization
   Dimitrios Manganas     : Further ROCIS development; embedding schemes
   Dimitrios Pantazis     : SARC Basis sets
   Anastasios Papadopoulos: AUTO-CI, single reference methods and gradients
   Taras Petrenko         : DFT Hessian,TD-DFT gradient, ASA, ECA, R-Raman, ABS, FL, XAS/XES, NRVS
   Peter Pinski           : DLPNO-MP2, DLPNO-MP2 Gradient
   Christoph Reimann      : Effective Core Potentials
   Marius Retegan         : Local ZFS, SOC
   Christoph Riplinger    : Optimizer, TS searches, QM/MM, DLPNO-CCSD(T), (RO)-DLPNO pert. Triples
   Tobias Risthaus        : Range-separated hybrids, TD-DFT gradient, RPA, STAB
   Michael Roemelt        : Original ROCIS implementation
   Masaaki Saitow         : Open-shell DLPNO-CCSD energy and density
   Barbara Sandhoefer     : DKH picture change effects
   Avijit Sen             : IP-ROCIS
   Kantharuban Sivalingam : CASSCF convergence, NEVPT2, FIC-MRCI
   Bernardo de Souza      : ESD, SOC TD-DFT
   Georgi Stoychev        : AutoAux, RI-MP2 NMR
   Willem Van den Heuvel  : Paramagnetic NMR
   Boris Wezisla          : Elementary symmetry handling
   Frank Wennmohs         : Technical directorship


 We gratefully acknowledge several colleagues who have allowed us to
 interface, adapt or use parts of their codes:
   Stefan Grimme, W. Hujo, H. Kruse, P. Pracht,  : VdW corrections, initial TS optimization,
                  C. Bannwarth, S. Ehlert          DFT functionals, gCP, sTDA/sTD-DF
   Ed Valeev, F. Pavosevic, A. Kumar             : LibInt (2-el integral package), F12 methods
   Garnet Chan, S. Sharma, J. Yang, R. Olivares  : DMRG
   Ulf Ekstrom                                   : XCFun DFT Library
   Mihaly Kallay                                 : mrcc  (arbitrary order and MRCC methods)
   Jiri Pittner, Ondrej Demel                    : Mk-CCSD
   Frank Weinhold                                : gennbo (NPA and NBO analysis)
   Christopher J. Cramer and Donald G. Truhlar   : smd solvation model
   Lars Goerigk                                  : TD-DFT with DH, B97 family of functionals
   V. Asgeirsson, H. Jonsson                     : NEB implementation
   FAccTs GmbH                                   : IRC, NEB, NEB-TS, DLPNO-Multilevel, CI-OPT
                                                   MM, QMMM, 2- and 3-layer-ONIOM, Crystal-QMMM,
                                                   LR-CPCM, SF, NACMEs, symmetry and pop. for TD-DFT,
                                                   nearIR, NL-DFT gradient (VV10), updates on ESD,
                                                   ML-optimized integration grids
   S Lehtola, MJT Oliveira, MAL Marques          : LibXC Library
   Liviu Ungur et al                             : ANISO software


 Your calculation uses the libint2 library for the computation of 2-el integrals
 For citations please refer to: http://libint.valeyev.net

 Your ORCA version has been built with support for libXC version: 5.1.0
 For citations please refer to: https://tddft.org/programs/libxc/

 This ORCA versions uses:
   CBLAS   interface :  Fast vector & matrix operations
   LAPACKE interface :  Fast linear algebra routines
   SCALAPACK package :  Parallel linear algebra routines
   Shared memory     :  Shared parallel matrices
   BLAS/LAPACK       :  OpenBLAS 0.3.15  USE64BITINT DYNAMIC_ARCH NO_AFFINITY SkylakeX SINGLE_THREADED
        Core in use  :  SkylakeX
   Copyright (c) 2011-2014, The OpenBLAS Project


================================================================================

----- Orbital basis set information -----
Your calculation utilizes the basis: cc-pVTZ 
       H, B-Ne : Obtained from the ccRepo (grant-hill.group.shef.ac.uk/ccrepo) Feb. 2017
                 T. H. Dunning, Jr., J. Chem. Phys. 90, 1007 (1989)
            He : Obtained from the ccRepo (grant-hill.group.shef.ac.uk/ccrepo) Feb. 2017
                 D. E. Woon, T. H. Dunning, Jr., J. Chem. Phys. 100, 2975 (1994)
  Li-Be, Na-Mg : Obtained from the ccRepo (grant-hill.group.shef.ac.uk/ccrepo) Feb. 2017
                 B. P. Prascher, D. E. Woon, K. A. Peterson, T. H. Dunning, Jr., A. K. Wilson, Theor. Chem. Acc. 128, 69 (2011)
         Al-Ar : Obtained from the ccRepo (grant-hill.group.shef.ac.uk/ccrepo) Feb. 2017
                 D. E. Woon, T. H. Dunning, Jr., J. Chem. Phys. 98, 1358 (1993)
            Ca : Obtained from the Peterson Research Group Website (tyr0.chem.wsu.edu/~kipeters) Feb. 2017
                 J. Koput, K. A. Peterson, J. Phys. Chem. 106, 9595 (2002)
         Sc-Zn : Obtained from the ccRepo (grant-hill.group.shef.ac.uk/ccrepo) Feb. 2017
                 N. B. Balabanov, K. A. Peterson, J. Chem. Phys. 123, 064107 (2005)
                 N. B. Balabanov, K. A. Peterson, J. Chem. Phys. 125, 074110 (2006)
         Ga-Kr : Obtained from the ccRepo (grant-hill.group.shef.ac.uk/ccrepo) Feb. 2017
                 A. K. Wilson, D. E. Woon, K. A. Peterson, T. H. Dunning, Jr., J. Chem. Phys. 110, 7667 (1999)
             Y : Obtained from the ccRepo (grant-hill.group.shef.ac.uk/ccrepo) Feb. 2017
                 K. A. Peterson, D. Figgen, M. Dolg, H. Stoll, J. Chem. Phys. 126, 124101 (2007)
        Ag, Au : Obtained from the Peterson Research Group Website (tyr0.chem.wsu.edu/~kipeters) Feb. 2017
                 K. A. Peterson, C. Puzzarini, Theor. Chem. Acc. 114, 283 (2005)

----- AuxC basis set information -----
Your calculation utilizes the auxiliary basis: cc-pVTZ/C 
  Obtained from the EMSL Basis Set Exchange (bse.pnl.gov) Feb. 2017
  H-He, B-F, Al-Ar, Ga-Kr : F. Weigend, A. Kohn, C. Hattig, J. Chem. Phys. 116, 3175 (2002)
             Li-Be, Na-Mg : C. Haettig, Phys. Chem. Chem. Phys. 7, 59 (2005)
                       Ne : C. Haettig, Phys. Chem. Chem. Phys. 7, 59 (2005)
                            F. Weigend, A. Kohn, C. Hattig, J. Chem. Phys. 116, 3175 (2002)
                    Sc-Zn : J. G. Hill, J. A. Platts, J. Chem. Phys. 128, 044104 (2008)

================================================================================
                                        WARNINGS
                       Please study these warnings very carefully!
================================================================================


WARNING: No MP2 level density has been requested!
         To caclulate MP2 level properties use
         %mp2 Density relaxed end
         or
         %mp2 Density unrelaxed end

WARNING: Post HF methods need fully converged wavefunctions
  ===> : Setting SCFConvForced true
         You can overwrite this default with %scf ConvForced false 


INFO   : the flag for use of the SHARK integral package has been found!

================================================================================
                                       INPUT FILE
================================================================================
NAME = qm_input.solv
|  1> ! RI-MP2 cc-pVTZ cc-pVTZ/c TightSCF KeepDens NoKeepInts
|  2> 
|  3> %pointcharges "srfp_output"
|  4> 
|  5> *xyz  0  1
|  6>     C    -0.7785737   -3.2163939    1.2367283
|  7>     C    -1.1313878   -2.5179166    2.5635013
|  8>     O    -0.5365901   -1.2141253    2.5224669
|  9>     C    -0.8508706   -0.4267225    3.5974990
| 10>     O    -1.4997267   -0.7508297    4.5460915
| 11>     C    -0.2660725    0.9398277    3.3695091
| 12>     C     0.0006420    1.4970636    2.2121888
| 13>     C    -0.2906921    1.0488113    0.8031135
| 14>     N     0.7820407    2.6125986    2.1500297
| 15>     C     1.3399550    3.1516641    3.2746033
| 16>     S     2.3207121    4.4935802    3.3504658
| 17>     N     0.8780198    2.7313427    4.4758020
| 18>     C    -0.0383816    1.6358664    4.6791328
| 19>     C    -1.4074418    2.1066651    5.3169394
| 20>     C    -1.4570496    2.6382009    6.6071720
| 21>     C    -2.6276117    3.2182622    7.1042715
| 22>     C    -3.8063355    3.0594295    6.4153150
| 23>     C    -3.8265670    2.6041550    5.0983496
| 24>     O    -4.9593566    2.4747271    4.4142265
| 25>     C    -2.6510438    2.1278824    4.5682211
| 26>     H     0.2520658   -3.1008468    0.8794730
| 27>     H    -1.5007940   -2.8364058    0.5037905
| 28>     H    -0.9429013   -4.2932704    1.3652709
| 29>     H    -2.2234120   -2.5738337    2.6503776
| 30>     H    -0.6596399   -3.0500751    3.3986366
| 31>     H    -1.3711239    0.8623448    0.7701432
| 32>     H     0.3205985    0.1600670    0.6039946
| 33>     H    -0.0806741    1.8612774    0.0967279
| 34>     H     1.1496950    2.8969493    1.2500588
| 35>     H     1.1673039    3.2308726    5.3081187
| 36>     H     0.4586527    0.9512043    5.3772619
| 37>     H    -0.4733127    2.6524553    7.0670141
| 38>     H    -2.6256790    3.7205621    8.0671251
| 39>     H    -4.7263661    3.3291330    6.9254125
| 40>     H    -5.5626906    3.0922677    4.8629590
| 41>     H    -2.7429030    1.6222361    3.6115166
| 42> *
| 43> 
| 44>                          ****END OF INPUT****
================================================================================

                       ****************************
                       * Single Point Calculation *
                       ****************************

---------------------------------
CARTESIAN COORDINATES (ANGSTROEM)
---------------------------------
  C     -0.778574   -3.216394    1.236728
  C     -1.131388   -2.517917    2.563501
  O     -0.536590   -1.214125    2.522467
  C     -0.850871   -0.426723    3.597499
  O     -1.499727   -0.750830    4.546092
  C     -0.266072    0.939828    3.369509
  C      0.000642    1.497064    2.212189
  C     -0.290692    1.048811    0.803114
  N      0.782041    2.612599    2.150030
  C      1.339955    3.151664    3.274603
  S      2.320712    4.493580    3.350466
  N      0.878020    2.731343    4.475802
  C     -0.038382    1.635866    4.679133
  C     -1.407442    2.106665    5.316939
  C     -1.457050    2.638201    6.607172
  C     -2.627612    3.218262    7.104272
  C     -3.806335    3.059429    6.415315
  C     -3.826567    2.604155    5.098350
  O     -4.959357    2.474727    4.414226
  C     -2.651044    2.127882    4.568221
  H      0.252066   -3.100847    0.879473
  H     -1.500794   -2.836406    0.503791
  H     -0.942901   -4.293270    1.365271
  H     -2.223412   -2.573834    2.650378
  H     -0.659640   -3.050075    3.398637
  H     -1.371124    0.862345    0.770143
  H      0.320599    0.160067    0.603995
  H     -0.080674    1.861277    0.096728
  H      1.149695    2.896949    1.250059
  H      1.167304    3.230873    5.308119
  H      0.458653    0.951204    5.377262
  H     -0.473313    2.652455    7.067014
  H     -2.625679    3.720562    8.067125
  H     -4.726366    3.329133    6.925413
  H     -5.562691    3.092268    4.862959
  H     -2.742903    1.622236    3.611517

----------------------------
CARTESIAN COORDINATES (A.U.)
----------------------------
  NO LB      ZA    FRAG     MASS         X           Y           Z
   0 C     6.0000    0    12.011   -1.471291   -6.078104    2.337078
   1 C     6.0000    0    12.011   -2.138013   -4.758173    4.844315
   2 O     8.0000    0    15.999   -1.014008   -2.294364    4.766772
   3 C     6.0000    0    12.011   -1.607912   -0.806389    6.798288
   4 O     8.0000    0    15.999   -2.834073   -1.418863    8.590868
   5 C     6.0000    0    12.011   -0.502804    1.776017    6.367449
   6 C     6.0000    0    12.011    0.001213    2.829040    4.180431
   7 C     6.0000    0    12.011   -0.549328    1.981966    1.517665
   8 N     7.0000    0    14.007    1.477843    4.937096    4.062967
   9 C     6.0000    0    12.011    2.532148    5.955782    6.188103
  10 S    16.0000    0    32.060    4.385510    8.491636    6.331463
  11 N     7.0000    0    14.007    1.659217    5.161490    8.458040
  12 C     6.0000    0    12.011   -0.072531    3.091339    8.842280
  13 C     6.0000    0    12.011   -2.659680    3.981020   10.047559
  14 C     6.0000    0    12.011   -2.753425    4.985477   12.485746
  15 C     6.0000    0    12.011   -4.965466    6.081634   13.425128
  16 C     6.0000    0    12.011   -7.192932    5.781484   12.123188
  17 C     6.0000    0    12.011   -7.231164    4.921140    9.634484
  18 O     8.0000    0    15.999   -9.371826    4.676556    8.341679
  19 C     6.0000    0    12.011   -5.009747    4.021115    8.632687
  20 H     1.0000    0     1.008    0.476335   -5.859751    1.661963
  21 H     1.0000    0     1.008   -2.836090   -5.360030    0.952026
  22 H     1.0000    0     1.008   -1.781825   -8.113105    2.579988
  23 H     1.0000    0     1.008   -4.201640   -4.863841    5.008488
  24 H     1.0000    0     1.008   -1.246539   -5.763807    6.422492
  25 H     1.0000    0     1.008   -2.591049    1.629596    1.455360
  26 H     1.0000    0     1.008    0.605843    0.302483    1.141384
  27 H     1.0000    0     1.008   -0.152452    3.517305    0.182789
  28 H     1.0000    0     1.008    2.172609    5.474441    2.362269
  29 H     1.0000    0     1.008    2.205885    6.105464   10.030891
  30 H     1.0000    0     1.008    0.866728    1.797516   10.161552
  31 H     1.0000    0     1.008   -0.894431    5.012414   13.354721
  32 H     1.0000    0     1.008   -4.961814    7.030843   15.244657
  33 H     1.0000    0     1.008   -8.931538    6.291150   13.087133
  34 H     1.0000    0     1.008  -10.511962    5.843539    9.189661
  35 H     1.0000    0     1.008   -5.183335    3.065582    6.824777

--------------------------------
INTERNAL COORDINATES (ANGSTROEM)
--------------------------------
 C      0   0   0     0.000000000000     0.00000000     0.00000000
 C      1   0   0     1.540348960886     0.00000000     0.00000000
 O      2   1   0     1.433645660498   107.01963226     0.00000000
 C      3   2   1     1.369112638959   113.91089837   175.19212883
 O      4   3   2     1.194105291277   126.32722118     3.50753956
 C      4   3   2     1.503804395986   108.31953157   184.87798663
 C      6   4   3     1.311883664641   126.78399605    26.01267133
 C      7   6   4     1.507082905267   131.23697446     6.47801833
 N      7   6   4     1.363402368452   120.28344037   193.90301814
 C      9   7   6     1.366208535053   121.28896298     2.13987909
 S     10   9   7     1.663844472163   126.61753344   179.40077592
 N     10   9   7     1.353858384462   117.93602392   346.24595898
 C     12  10   9     1.442637606612   125.27777333     8.35426680
 C     13  12  10     1.582015962672   112.36844913   243.16545927
 C     14  13  12     1.396313504413   121.10194495   294.85685580
 C     15  14  13     1.397782048323   121.08719825   171.31384437
 C     16  15  14     1.374510342692   119.46848840    11.47305697
 C     17  16  15     1.393586039231   121.59288954   345.26914564
 O     18  17  16     1.329657202109   122.03186158   181.47860464
 C     18  17  16     1.374673273822   117.72376009     9.48222404
 H      1   2   3     1.096904854879   116.61413825    42.91752821
 H      1   2   3     1.096900604678   105.52431675   278.69875718
 H      1   2   3     1.096900066728   108.05463271   162.62006659
 H      2   1   3     1.096900664126   105.85084204   126.07252936
 H      2   1   3     1.096900049951   109.71209889   244.79876375
 H      8   7   6     1.096900027694   105.60905968    54.23405262
 H      8   7   6     1.096900617544   107.63678816   292.17008134
 H      8   7   6     1.096899876862   110.16884345   169.64359685
 H      9   7   6     1.012903068287   118.56968276   165.94884395
 H     12  10   9     1.012900044726   118.58776412   190.23017658
 H     13  12  10     1.096899962084   106.01215695   124.50931936
 H     15  14  13     1.086000107400   111.35054077   358.94862699
 H     16  15  14     1.085999990747   120.38169139   186.44580732
 H     17  16  15     1.085999881379   117.54019675   166.97168262
 H     19  18  17     0.973000084666   103.25026010    23.67443943
 H     20  18  17     1.086001746614   115.38568134   169.52687252

---------------------------
INTERNAL COORDINATES (A.U.)
---------------------------
 C      0   0   0     0.000000000000     0.00000000     0.00000000
 C      1   0   0     2.910837686745     0.00000000     0.00000000
 O      2   1   0     2.709197671426   107.01963226     0.00000000
 C      3   2   1     2.587247934124   113.91089837   175.19212883
 O      4   3   2     2.256531975579   126.32722118     3.50753956
 C      4   3   2     2.841778467400   108.31953157   184.87798663
 C      6   4   3     2.479100845736   126.78399605    26.01267133
 C      7   6   4     2.847973952069   131.23697446     6.47801833
 N      7   6   4     2.576457086713   120.28344037   193.90301814
 C      9   7   6     2.581759973076   121.28896298     2.13987909
 S     10   9   7     3.144210381826   126.61753344   179.40077592
 N     10   9   7     2.558421570747   117.93602392   346.24595898
 C     12  10   9     2.726189986993   125.27777333     8.35426680
 C     13  12  10     2.989576908942   112.36844913   243.16545927
 C     14  13  12     2.638650120436   121.10194495   294.85685580
 C     15  14  13     2.641425266242   121.08719825   171.31384437
 C     16  15  14     2.597448115931   119.46848840    11.47305697
 C     17  16  15     2.633495958203   121.59288954   345.26914564
 O     18  17  16     2.512687963982   122.03186158   181.47860464
 C     18  17  16     2.597756011145   117.72376009     9.48222404
 H      1   2   3     2.072849770690   116.61413825    42.91752821
 H      1   2   3     2.072841738974   105.52431675   278.69875718
 H      1   2   3     2.072840722397   108.05463271   162.62006659
 H      2   1   3     2.072841851314   105.85084204   126.07252936
 H      2   1   3     2.072840690692   109.71209889   244.79876375
 H      8   7   6     2.072840648633   105.60905968    54.23405262
 H      8   7   6     2.072841763287   107.63678816   292.17008134
 H      8   7   6     2.072840363602   110.16884345   169.64359685
 H      9   7   6     1.914109399271   118.56968276   165.94884395
 H     12  10   9     1.914103685569   118.58776412   190.23017658
 H     13  12  10     2.072840524647   106.01215695   124.50931936
 H     15  14  13     2.052242784396   111.35054077   358.94862699
 H     16  15  14     2.052242563953   120.38169139   186.44580732
 H     17  16  15     2.052242357277   117.54019675   166.97168262
 H     19  18  17     1.838703688301   103.25026010    23.67443943
 H     20  18  17     2.052245882061   115.38568134   169.52687252

---------------------
BASIS SET INFORMATION
---------------------
There are 5 groups of distinct atoms

 Group   1 Type C   : 18s5p2d1f contracted to 4s3p2d1f pattern {8811/311/11/1}
 Group   2 Type O   : 18s5p2d1f contracted to 4s3p2d1f pattern {8811/311/11/1}
 Group   3 Type N   : 18s5p2d1f contracted to 4s3p2d1f pattern {8811/311/11/1}
 Group   4 Type S   : 41s16p2d1f contracted to 5s4p2d1f pattern {13131311/7711/11/1}
 Group   5 Type H   : 5s2p1d contracted to 3s2p1d pattern {311/11/1}

Atom   0C    basis set group =>   1
Atom   1C    basis set group =>   1
Atom   2O    basis set group =>   2
Atom   3C    basis set group =>   1
Atom   4O    basis set group =>   2
Atom   5C    basis set group =>   1
Atom   6C    basis set group =>   1
Atom   7C    basis set group =>   1
Atom   8N    basis set group =>   3
Atom   9C    basis set group =>   1
Atom  10S    basis set group =>   4
Atom  11N    basis set group =>   3
Atom  12C    basis set group =>   1
Atom  13C    basis set group =>   1
Atom  14C    basis set group =>   1
Atom  15C    basis set group =>   1
Atom  16C    basis set group =>   1
Atom  17C    basis set group =>   1
Atom  18O    basis set group =>   2
Atom  19C    basis set group =>   1
Atom  20H    basis set group =>   5
Atom  21H    basis set group =>   5
Atom  22H    basis set group =>   5
Atom  23H    basis set group =>   5
Atom  24H    basis set group =>   5
Atom  25H    basis set group =>   5
Atom  26H    basis set group =>   5
Atom  27H    basis set group =>   5
Atom  28H    basis set group =>   5
Atom  29H    basis set group =>   5
Atom  30H    basis set group =>   5
Atom  31H    basis set group =>   5
Atom  32H    basis set group =>   5
Atom  33H    basis set group =>   5
Atom  34H    basis set group =>   5
Atom  35H    basis set group =>   5
---------------------------------
AUXILIARY/C BASIS SET INFORMATION
---------------------------------
There are 5 groups of distinct atoms

 Group   1 Type C   : 8s6p5d3f1g contracted to 8s6p5d3f1g pattern {11111111/111111/11111/111/1}
 Group   2 Type O   : 8s6p5d3f1g contracted to 8s6p5d3f1g pattern {11111111/111111/11111/111/1}
 Group   3 Type N   : 8s6p5d3f1g contracted to 8s6p5d3f1g pattern {11111111/111111/11111/111/1}
 Group   4 Type S   : 10s8p7d5f2g contracted to 10s8p7d5f2g pattern {1111111111/11111111/1111111/11111/11}
 Group   5 Type H   : 4s3p2d1f contracted to 4s3p2d1f pattern {1111/111/11/1}

Atom   0C    basis set group =>   1
Atom   1C    basis set group =>   1
Atom   2O    basis set group =>   2
Atom   3C    basis set group =>   1
Atom   4O    basis set group =>   2
Atom   5C    basis set group =>   1
Atom   6C    basis set group =>   1
Atom   7C    basis set group =>   1
Atom   8N    basis set group =>   3
Atom   9C    basis set group =>   1
Atom  10S    basis set group =>   4
Atom  11N    basis set group =>   3
Atom  12C    basis set group =>   1
Atom  13C    basis set group =>   1
Atom  14C    basis set group =>   1
Atom  15C    basis set group =>   1
Atom  16C    basis set group =>   1
Atom  17C    basis set group =>   1
Atom  18O    basis set group =>   2
Atom  19C    basis set group =>   1
Atom  20H    basis set group =>   5
Atom  21H    basis set group =>   5
Atom  22H    basis set group =>   5
Atom  23H    basis set group =>   5
Atom  24H    basis set group =>   5
Atom  25H    basis set group =>   5
Atom  26H    basis set group =>   5
Atom  27H    basis set group =>   5
Atom  28H    basis set group =>   5
Atom  29H    basis set group =>   5
Atom  30H    basis set group =>   5
Atom  31H    basis set group =>   5
Atom  32H    basis set group =>   5
Atom  33H    basis set group =>   5
Atom  34H    basis set group =>   5
Atom  35H    basis set group =>   5
------------------------------------------------------------------------------
                           ORCA GTO INTEGRAL CALCULATION
------------------------------------------------------------------------------
------------------------------------------------------------------------------
                   ___                                                        
                  /   \      - P O W E R E D   B Y -                         
                 /     \                                                     
                 |  |  |   _    _      __       _____    __    __             
                 |  |  |  | |  | |    /  \     |  _  \  |  |  /  |          
                  \  \/   | |  | |   /    \    | | | |  |  | /  /          
                 / \  \   | |__| |  /  /\  \   | |_| |  |  |/  /          
                |  |  |   |  __  | /  /__\  \  |    /   |      \           
                |  |  |   | |  | | |   __   |  |    \   |  |\   \          
                \     /   | |  | | |  |  |  |  | |\  \  |  | \   \       
                 \___/    |_|  |_| |__|  |__|  |_| \__\ |__|  \__/        
                                                                              
                      - O R C A' S   B I G   F R I E N D -                    
                                      &                                       
                       - I N T E G R A L  F E E D E R -                       
                                                                              
 v1 FN, 2020, v2 2021                                                         
------------------------------------------------------------------------------


Reading SHARK input file qm_input.solv.SHARKINP.tmp ... ok
----------------------
SHARK INTEGRAL PACKAGE
----------------------

Number of atoms                             ...     36
Number of basis functions                   ...    828
Number of shells                            ...    298
Maximum angular momentum                    ...      3
Integral batch strategy                     ... SHARK/LIBINT Hybrid
RI-J (if used) integral strategy            ... SPLIT-RIJ (Revised 2003 algorithm where possible)
Printlevel                                  ...      1
Contraction scheme used                     ... SEGMENTED contraction
Coulomb Range Separation                    ... NOT USED
Exchange Range Separation                   ... NOT USED
Finite Nucleus Model                        ... NOT USED
Auxiliary Coulomb fitting basis             ... NOT available
Auxiliary J/K fitting basis                 ... NOT available
Auxiliary Correlation fitting basis         ... AVAILABLE
   # of basis functions in Aux-C            ...   2141
   # of shells in Aux-C                     ...    629
   Maximum angular momentum in Aux-C        ...      4
Auxiliary 'external' fitting basis          ... NOT available
Integral threshold                          ...     2.500000e-11
Primitive cut-off                           ...     2.500000e-12
Primitive pair pre-selection threshold      ...     2.500000e-12

Calculating pre-screening integrals         ... done (  0.6 sec) Dimension = 298
Organizing shell pair data                  ... done (  0.4 sec)
Shell pair information
Total number of shell pairs                 ...     44551
Shell pairs after pre-screening             ...     32035
Total number of primitive shell pairs       ...    234348
Primitive shell pairs kept                  ...     93048
          la=0 lb=0:   6403 shell pairs
          la=1 lb=0:   8942 shell pairs
          la=1 lb=1:   3165 shell pairs
          la=2 lb=0:   5086 shell pairs
          la=2 lb=1:   3497 shell pairs
          la=2 lb=2:    980 shell pairs
          la=3 lb=0:   1855 shell pairs
          la=3 lb=1:   1262 shell pairs
          la=3 lb=2:    704 shell pairs
          la=3 lb=3:    141 shell pairs

Reading point charge file                   ... ok (43143 point charges)
Calculating one electron integrals          ... done (217.0 sec)
Calculating RI/C V-Matrix + Cholesky decomp.... done (  0.3 sec)
Calculating Nuclear repulsion               ... (+Point charges) done (  0.0 sec) ENN=   1643.879308158982 Eh

SHARK setup successfully completed in 218.5 seconds

Maximum memory used throughout the entire GTOINT-calculation: 476.9 MB
ENUC WAS=  0.000000000
ENUC IS =  0.000000000
-------------------------------------------------------------------------------
                                 ORCA SCF
-------------------------------------------------------------------------------

------------
SCF SETTINGS
------------
Hamiltonian:
 Ab initio Hamiltonian  Method          .... Hartree-Fock(GTOs)


General Settings:
 Integral files         IntName         .... qm_input.solv
 Hartree-Fock type      HFTyp           .... RHF
 Total Charge           Charge          ....    0
 Multiplicity           Mult            ....    1
 Number of Electrons    NEL             ....  154
 Basis Dimension        Dim             ....  828
 Nuclear Repulsion      ENuc            ....   1643.8793081590 Eh

Convergence Acceleration:
 DIIS                   CNVDIIS         .... on
   Start iteration      DIISMaxIt       ....    12
   Startup error        DIISStart       ....  0.200000
   # of expansion vecs  DIISMaxEq       ....     5
   Bias factor          DIISBfac        ....   1.050
   Max. coefficient     DIISMaxC        ....  10.000
 Trust-Rad. Augm. Hess. CNVTRAH         .... auto
   Auto Start mean grad. ratio tolernc. ....  1.125000
   Auto Start start iteration           ....    20
   Auto Start num. interpolation iter.  ....    10
   Max. Number of Micro iterations      ....    16
   Max. Number of Macro iterations      .... Maxiter - #DIIS iter
   Number of Davidson start vectors     ....     2
   Converg. threshold I  (grad. norm)   ....   1.000e-05
   Converg. threshold II (energy diff.) ....   1.000e-08
   Grad. Scal. Fac. for Micro threshold ....   0.100
   Minimum threshold for Micro iter.    ....   0.010
   NR start threshold (gradient norm)   ....   0.001
   Initial trust radius                 ....   0.400
   Minimum AH scaling param. (alpha)    ....   1.000
   Maximum AH scaling param. (alpha)    .... 1000.000
   Orbital update algorithm             .... Taylor
   White noise on init. David. guess    .... on
   Maximum white noise                  ....   0.010
   Quad. conv. algorithm                .... NR
 SOSCF                  CNVSOSCF        .... on
   Start iteration      SOSCFMaxIt      ....   150
   Startup grad/error   SOSCFStart      ....  0.003300
 Level Shifting         CNVShift        .... on
   Level shift para.    LevelShift      ....    0.2500
   Turn off err/grad.   ShiftErr        ....    0.0010
 Zerner damping         CNVZerner       .... off
 Static damping         CNVDamp         .... on
   Fraction old density DampFac         ....    0.7000
   Max. Damping (<1)    DampMax         ....    0.9800
   Min. Damping (>=0)   DampMin         ....    0.0000
   Turn off err/grad.   DampErr         ....    0.1000
 Fernandez-Rico         CNVRico         .... off

SCF Procedure:
 Maximum # iterations   MaxIter         ....   125
 SCF integral mode      SCFMode         .... Direct
   Integral package                     .... SHARK and LIBINT hybrid scheme
 Reset frequency        DirectResetFreq ....    20
 Integral Threshold     Thresh          ....  2.500e-11 Eh
 Primitive CutOff       TCut            ....  2.500e-12 Eh

Convergence Tolerance:
 Convergence Check Mode ConvCheckMode   .... Total+1el-Energy
 Convergence forced     ConvForced      .... 1
 Energy Change          TolE            ....  1.000e-08 Eh
 1-El. energy change                    ....  1.000e-05 Eh
 Orbital Gradient       TolG            ....  1.000e-05
 Orbital Rotation angle TolX            ....  1.000e-05
 DIIS Error             TolErr          ....  5.000e-07


Diagonalization of the overlap matrix:
Smallest eigenvalue                        ... 4.344e-05
Time for diagonalization                   ...    0.131 sec
Threshold for overlap eigenvalues          ... 1.000e-08
Number of eigenvalues below threshold      ... 0
Time for construction of square roots      ...    0.058 sec
Total time needed                          ...    0.191 sec

Time for model grid setup =    1.375 sec

------------------------------
INITIAL GUESS: MODEL POTENTIAL
------------------------------
Loading Hartree-Fock densities                     ... done
Calculating cut-offs                               ... done
Initializing the effective Hamiltonian             ... done
Setting up the integral package (SHARK)            ... done
Starting the Coulomb interaction                   ... done (   4.1 sec)
Reading the grid                                   ... done
Mapping shells                                     ... done
Starting the XC term evaluation                    ... done (   1.4 sec)
Transforming the Hamiltonian                       ... done (   0.0 sec)
Diagonalizing the Hamiltonian                      ... done (   0.1 sec)
Back transforming the eigenvectors                 ... done (   0.0 sec)
Now organizing SCF variables                       ... done
                      ------------------
                      INITIAL GUESS DONE (   7.0 sec)
                      ------------------
--------------
SCF ITERATIONS
--------------
ITER       Energy         Delta-E        Max-DP      RMS-DP      [F,P]     Damp
               ***  Starting incremental Fock matrix formation  ***
  0  -1270.0368163297   0.000000000000 0.04770271  0.00048408  0.3546805 0.7000
  1  -1270.3350429893  -0.298226659612 0.03681484  0.00039739  0.2061686 0.7000
                               ***Turning on DIIS***
  2  -1270.5196434974  -0.184600508107 0.02584745  0.00026098  0.1101690 0.7000
  3  -1272.6968503216  -2.177206824148 0.06466770  0.00053612  0.0839962 0.0000
  4  -1270.8613905342   1.835459787402 0.01004114  0.00011723  0.0067853 0.0000
  5  -1270.9233419099  -0.061951375696 0.00440316  0.00005710  0.0046194 0.0000
  6  -1270.9014510530   0.021890856814 0.00324679  0.00002865  0.0034342 0.0000
                      *** Initiating the SOSCF procedure ***
                           *** Shutting down DIIS ***
                      *** Re-Reading the Fockian *** 
                      *** Removing any level shift *** 
ITER      Energy       Delta-E        Grad      Rot      Max-DP    RMS-DP
  7  -1270.91676635  -0.0153152942  0.001412  0.001412  0.001877  0.000015
               *** Restarting incremental Fock matrix formation ***
  8  -1270.91795964  -0.0011932956  0.000638  0.001290  0.000827  0.000008
  9  -1270.91797227  -0.0000126241  0.000264  0.001312  0.000885  0.000009
 10  -1270.91797674  -0.0000044771  0.000060  0.000079  0.000186  0.000002
 11  -1270.91797724  -0.0000004932  0.000031  0.000076  0.000071  0.000001
 12  -1270.91797729  -0.0000000575  0.000013  0.000048  0.000026  0.000000
 13  -1270.91797730  -0.0000000095  0.000007  0.000037  0.000016  0.000000
                  ***Gradient check signals convergence***
              ***Rediagonalizing the Fockian in SOSCF/NRSCF***

               *****************************************************
               *                     SUCCESS                       *
               *           SCF CONVERGED AFTER  14 CYCLES          *
               *****************************************************


----------------
TOTAL SCF ENERGY
----------------

Total Energy       :        -1270.91797731 Eh          -34583.43635 eV

Components:
Nuclear Repulsion  :         1643.87930816 Eh           44732.23012 eV
Electronic Energy  :        -2914.79728547 Eh          -79315.66647 eV
One Electron Energy:        -5056.71090002 Eh         -137600.09904 eV
Two Electron Energy:         2141.91361455 Eh           58284.43258 eV

Virial components:
Potential Energy   :        -2540.61180644 Eh          -69133.56194 eV
Kinetic Energy     :         1269.69382913 Eh           34550.12558 eV
Virial Ratio       :            2.00096413


---------------
SCF CONVERGENCE
---------------

  Last Energy change         ...   -5.7439e-09  Tolerance :   1.0000e-08
  Last MAX-Density change    ...    3.4124e-06  Tolerance :   1.0000e-07
  Last RMS-Density change    ...    3.2816e-08  Tolerance :   5.0000e-09
  Last Orbital Gradient      ...    1.4828e-06  Tolerance :   1.0000e-05
  Last Orbital Rotation      ...    5.3321e-06  Tolerance :   1.0000e-05

             **** THE GBW FILE WAS UPDATED (qm_input.solv.gbw) ****
             **** DENSITY qm_input.solv.scfp WAS UPDATED ****
             **** ENERGY FILE WAS UPDATED (qm_input.solv.en.tmp) ****
             **** THE GBW FILE WAS UPDATED (qm_input.solv.gbw) ****
             **** DENSITY qm_input.solv.scfp WAS UPDATED ****
----------------
ORBITAL ENERGIES
----------------

  NO   OCC          E(Eh)            E(eV) 
   0   2.0000     -91.604496     -2492.6851 
   1   2.0000     -20.296158      -552.2865 
   2   2.0000     -20.277633      -551.7824 
   3   2.0000     -20.260901      -551.3271 
   4   2.0000     -15.316103      -416.7723 
   5   2.0000     -15.303054      -416.4173 
   6   2.0000     -11.093436      -301.8677 
   7   2.0000     -11.090681      -301.7928 
   8   2.0000     -11.004078      -299.4362 
   9   2.0000     -10.991801      -299.1021 
  10   2.0000     -10.988235      -299.0051 
  11   2.0000     -10.969574      -298.4973 
  12   2.0000     -10.949620      -297.9543 
  13   2.0000     -10.930392      -297.4311 
  14   2.0000     -10.929734      -297.4132 
  15   2.0000     -10.923101      -297.2327 
  16   2.0000     -10.919528      -297.1355 
  17   2.0000     -10.919367      -297.1311 
  18   2.0000     -10.917553      -297.0817 
  19   2.0000     -10.898591      -296.5657 
  20   2.0000      -8.611261      -234.3243 
  21   2.0000      -6.293281      -171.2489 
  22   2.0000      -6.291231      -171.1931 
  23   2.0000      -6.290851      -171.1828 
  24   2.0000      -1.162122       -31.6230 
  25   2.0000      -1.110806       -30.2266 
  26   2.0000      -1.074804       -29.2469 
  27   2.0000      -1.045650       -28.4536 
  28   2.0000      -0.942145       -25.6371 
  29   2.0000      -0.845300       -23.0018 
  30   2.0000      -0.816858       -22.2278 
  31   2.0000      -0.726607       -19.7720 
  32   2.0000      -0.717139       -19.5143 
  33   2.0000      -0.701731       -19.0951 
  34   2.0000      -0.685188       -18.6449 
  35   2.0000      -0.684759       -18.6332 
  36   2.0000      -0.610711       -16.6183 
  37   2.0000      -0.570168       -15.5151 
  38   2.0000      -0.542015       -14.7490 
  39   2.0000      -0.526629       -14.3303 
  40   2.0000      -0.509167       -13.8551 
  41   2.0000      -0.500314       -13.6142 
  42   2.0000      -0.454210       -12.3597 
  43   2.0000      -0.441529       -12.0146 
  44   2.0000      -0.417477       -11.3601 
  45   2.0000      -0.396402       -10.7866 
  46   2.0000      -0.379575       -10.3288 
  47   2.0000      -0.372786       -10.1440 
  48   2.0000      -0.367181        -9.9915 
  49   2.0000      -0.356126        -9.6907 
  50   2.0000      -0.344452        -9.3730 
  51   2.0000      -0.333693        -9.0803 
  52   2.0000      -0.322665        -8.7802 
  53   2.0000      -0.304944        -8.2979 
  54   2.0000      -0.293337        -7.9821 
  55   2.0000      -0.283794        -7.7224 
  56   2.0000      -0.279297        -7.6001 
  57   2.0000      -0.262965        -7.1556 
  58   2.0000      -0.255207        -6.9445 
  59   2.0000      -0.250164        -6.8073 
  60   2.0000      -0.245955        -6.6928 
  61   2.0000      -0.228706        -6.2234 
  62   2.0000      -0.219272        -5.9667 
  63   2.0000      -0.208370        -5.6700 
  64   2.0000      -0.207396        -5.6435 
  65   2.0000      -0.203731        -5.5438 
  66   2.0000      -0.187957        -5.1146 
  67   2.0000      -0.182783        -4.9738 
  68   2.0000      -0.171663        -4.6712 
  69   2.0000      -0.157773        -4.2932 
  70   2.0000      -0.152860        -4.1595 
  71   2.0000      -0.147808        -4.0221 
  72   2.0000      -0.052067        -1.4168 
  73   2.0000      -0.049624        -1.3503 
  74   2.0000      -0.031507        -0.8574 
  75   2.0000      -0.025075        -0.6823 
  76   2.0000      -0.010648        -0.2897 
  77   0.0000       0.386722        10.5232 
  78   0.0000       0.426361        11.6019 
  79   0.0000       0.449324        12.2267 
  80   0.0000       0.457367        12.4456 
  81   0.0000       0.463656        12.6167 
  82   0.0000       0.481778        13.1098 
  83   0.0000       0.489402        13.3173 
  84   0.0000       0.492504        13.4017 
  85   0.0000       0.497318        13.5327 
  86   0.0000       0.504376        13.7248 
  87   0.0000       0.522120        14.2076 
  88   0.0000       0.523598        14.2478 
  89   0.0000       0.531626        14.4663 
  90   0.0000       0.537059        14.6141 
  91   0.0000       0.542738        14.7686 
  92   0.0000       0.551308        15.0018 
  93   0.0000       0.558950        15.2098 
  94   0.0000       0.563318        15.3287 
  95   0.0000       0.567585        15.4448 
  96   0.0000       0.575261        15.6537 
  97   0.0000       0.587714        15.9925 
  98   0.0000       0.600696        16.3458 
  99   0.0000       0.606750        16.5105 
 100   0.0000       0.615739        16.7551 
 101   0.0000       0.620840        16.8939 
 102   0.0000       0.632445        17.2097 
 103   0.0000       0.646140        17.5824 
 104   0.0000       0.650436        17.6993 
 105   0.0000       0.654992        17.8232 
 106   0.0000       0.657737        17.8979 
 107   0.0000       0.668391        18.1879 
 108   0.0000       0.672037        18.2871 
 109   0.0000       0.690009        18.7761 
 110   0.0000       0.694936        18.9102 
 111   0.0000       0.699620        19.0376 
 112   0.0000       0.701726        19.0949 
 113   0.0000       0.716712        19.5027 
 114   0.0000       0.726303        19.7637 
 115   0.0000       0.728025        19.8106 
 116   0.0000       0.732175        19.9235 
 117   0.0000       0.734509        19.9870 
 118   0.0000       0.743480        20.2311 
 119   0.0000       0.747729        20.3467 
 120   0.0000       0.755465        20.5572 
 121   0.0000       0.761892        20.7321 
 122   0.0000       0.766673        20.8622 
 123   0.0000       0.770374        20.9629 
 124   0.0000       0.778573        21.1861 
 125   0.0000       0.788288        21.4504 
 126   0.0000       0.793768        21.5995 
 127   0.0000       0.794565        21.6212 
 128   0.0000       0.803957        21.8768 
 129   0.0000       0.805983        21.9319 
 130   0.0000       0.813154        22.1270 
 131   0.0000       0.821202        22.3461 
 132   0.0000       0.825262        22.4565 
 133   0.0000       0.829173        22.5629 
 134   0.0000       0.835702        22.7406 
 135   0.0000       0.841418        22.8962 
 136   0.0000       0.844584        22.9823 
 137   0.0000       0.849095        23.1051 
 138   0.0000       0.856336        23.3021 
 139   0.0000       0.866005        23.5652 
 140   0.0000       0.869283        23.6544 
 141   0.0000       0.876980        23.8638 
 142   0.0000       0.886043        24.1105 
 143   0.0000       0.892471        24.2854 
 144   0.0000       0.892894        24.2969 
 145   0.0000       0.899806        24.4850 
 146   0.0000       0.902232        24.5510 
 147   0.0000       0.904427        24.6107 
 148   0.0000       0.908503        24.7216 
 149   0.0000       0.915181        24.9033 
 150   0.0000       0.921711        25.0810 
 151   0.0000       0.928768        25.2731 
 152   0.0000       0.930494        25.3200 
 153   0.0000       0.933338        25.3974 
 154   0.0000       0.937142        25.5009 
 155   0.0000       0.941683        25.6245 
 156   0.0000       0.947007        25.7694 
 157   0.0000       0.951613        25.8947 
 158   0.0000       0.956784        26.0354 
 159   0.0000       0.957224        26.0474 
 160   0.0000       0.963999        26.2317 
 161   0.0000       0.971537        26.4369 
 162   0.0000       0.979473        26.6528 
 163   0.0000       0.984615        26.7927 
 164   0.0000       0.987916        26.8826 
 165   0.0000       0.991909        26.9912 
 166   0.0000       0.999955        27.2102 
 167   0.0000       1.002930        27.2911 
 168   0.0000       1.004386        27.3307 
 169   0.0000       1.006775        27.3957 
 170   0.0000       1.011456        27.5231 
 171   0.0000       1.024564        27.8798 
 172   0.0000       1.028298        27.9814 
 173   0.0000       1.035697        28.1828 
 174   0.0000       1.037754        28.2387 
 175   0.0000       1.045987        28.4627 
 176   0.0000       1.056127        28.7387 
 177   0.0000       1.060001        28.8441 
 178   0.0000       1.065969        29.0065 
 179   0.0000       1.075122        29.2556 
 180   0.0000       1.086706        29.5708 
 181   0.0000       1.088745        29.6262 
 182   0.0000       1.101402        29.9707 
 183   0.0000       1.103569        30.0296 
 184   0.0000       1.116533        30.3824 
 185   0.0000       1.123356        30.5681 
 186   0.0000       1.132250        30.8101 
 187   0.0000       1.137327        30.9482 
 188   0.0000       1.142112        31.0785 
 189   0.0000       1.154167        31.4065 
 190   0.0000       1.155091        31.4316 
 191   0.0000       1.161919        31.6174 
 192   0.0000       1.165517        31.7153 
 193   0.0000       1.174419        31.9576 
 194   0.0000       1.177788        32.0492 
 195   0.0000       1.187658        32.3178 
 196   0.0000       1.197447        32.5842 
 197   0.0000       1.200078        32.6558 
 198   0.0000       1.214880        33.0586 
 199   0.0000       1.220967        33.2242 
 200   0.0000       1.227178        33.3932 
 201   0.0000       1.229293        33.4508 
 202   0.0000       1.238473        33.7006 
 203   0.0000       1.249430        33.9987 
 204   0.0000       1.251906        34.0661 
 205   0.0000       1.260696        34.3053 
 206   0.0000       1.275444        34.7066 
 207   0.0000       1.280581        34.8464 
 208   0.0000       1.288042        35.0494 
 209   0.0000       1.296359        35.2757 
 210   0.0000       1.301605        35.4185 
 211   0.0000       1.309963        35.6459 
 212   0.0000       1.317228        35.8436 
 213   0.0000       1.320948        35.9448 
 214   0.0000       1.326962        36.1085 
 215   0.0000       1.331557        36.2335 
 216   0.0000       1.341755        36.5110 
 217   0.0000       1.345890        36.6235 
 218   0.0000       1.349235        36.7145 
 219   0.0000       1.355504        36.8851 
 220   0.0000       1.360933        37.0329 
 221   0.0000       1.371952        37.3327 
 222   0.0000       1.380655        37.5695 
 223   0.0000       1.383217        37.6393 
 224   0.0000       1.399084        38.0710 
 225   0.0000       1.403547        38.1925 
 226   0.0000       1.409362        38.3507 
 227   0.0000       1.420635        38.6574 
 228   0.0000       1.421079        38.6695 
 229   0.0000       1.435288        39.0562 
 230   0.0000       1.442739        39.2589 
 231   0.0000       1.453187        39.5432 
 232   0.0000       1.464382        39.8479 
 233   0.0000       1.466963        39.9181 
 234   0.0000       1.474808        40.1316 
 235   0.0000       1.488603        40.5069 
 236   0.0000       1.493782        40.6479 
 237   0.0000       1.494063        40.6555 
 238   0.0000       1.497887        40.7596 
 239   0.0000       1.507050        41.0089 
 240   0.0000       1.521559        41.4037 
 241   0.0000       1.525004        41.4975 
 242   0.0000       1.529430        41.6179 
 243   0.0000       1.531328        41.6696 
 244   0.0000       1.540849        41.9286 
 245   0.0000       1.543448        41.9994 
 246   0.0000       1.551185        42.2099 
 247   0.0000       1.562765        42.5250 
 248   0.0000       1.572693        42.7951 
 249   0.0000       1.583323        43.0844 
 250   0.0000       1.586708        43.1765 
 251   0.0000       1.591371        43.3034 
 252   0.0000       1.600606        43.5547 
 253   0.0000       1.610694        43.8292 
 254   0.0000       1.616790        43.9951 
 255   0.0000       1.618083        44.0303 
 256   0.0000       1.627908        44.2976 
 257   0.0000       1.636171        44.5225 
 258   0.0000       1.638868        44.5959 
 259   0.0000       1.653535        44.9950 
 260   0.0000       1.661378        45.2084 
 261   0.0000       1.677662        45.6515 
 262   0.0000       1.680868        45.7387 
 263   0.0000       1.684823        45.8464 
 264   0.0000       1.693947        46.0947 
 265   0.0000       1.699853        46.2553 
 266   0.0000       1.709011        46.5046 
 267   0.0000       1.717298        46.7300 
 268   0.0000       1.721152        46.8349 
 269   0.0000       1.729891        47.0727 
 270   0.0000       1.731776        47.1240 
 271   0.0000       1.753173        47.7063 
 272   0.0000       1.758382        47.8480 
 273   0.0000       1.766841        48.0782 
 274   0.0000       1.779512        48.4230 
 275   0.0000       1.795127        48.8479 
 276   0.0000       1.796904        48.8962 
 277   0.0000       1.805416        49.1279 
 278   0.0000       1.810316        49.2612 
 279   0.0000       1.814453        49.3738 
 280   0.0000       1.817532        49.4576 
 281   0.0000       1.825653        49.6785 
 282   0.0000       1.832474        49.8641 
 283   0.0000       1.836720        49.9797 
 284   0.0000       1.848704        50.3058 
 285   0.0000       1.853435        50.4345 
 286   0.0000       1.858379        50.5691 
 287   0.0000       1.862430        50.6793 
 288   0.0000       1.868209        50.8366 
 289   0.0000       1.868960        50.8570 
 290   0.0000       1.878640        51.1204 
 291   0.0000       1.887481        51.3610 
 292   0.0000       1.904029        51.8113 
 293   0.0000       1.910799        51.9955 
 294   0.0000       1.916594        52.1532 
 295   0.0000       1.922580        52.3161 
 296   0.0000       1.923364        52.3374 
 297   0.0000       1.935467        52.6667 
 298   0.0000       1.945072        52.9281 
 299   0.0000       1.949952        53.0609 
 300   0.0000       1.956231        53.2318 
 301   0.0000       1.966805        53.5195 
 302   0.0000       1.970465        53.6191 
 303   0.0000       1.973534        53.7026 
 304   0.0000       1.983794        53.9818 
 305   0.0000       1.992458        54.2175 
 306   0.0000       1.993429        54.2440 
 307   0.0000       2.005696        54.5778 
 308   0.0000       2.010201        54.7004 
 309   0.0000       2.019175        54.9445 
 310   0.0000       2.032994        55.3206 
 311   0.0000       2.042002        55.5657 
 312   0.0000       2.050801        55.8051 
 313   0.0000       2.057737        55.9939 
 314   0.0000       2.069555        56.3154 
 315   0.0000       2.071738        56.3749 
 316   0.0000       2.090424        56.8833 
 317   0.0000       2.109645        57.4063 
 318   0.0000       2.113133        57.5013 
 319   0.0000       2.125971        57.8506 
 320   0.0000       2.133370        58.0519 
 321   0.0000       2.139000        58.2052 
 322   0.0000       2.156840        58.6906 
 323   0.0000       2.162893        58.8553 
 324   0.0000       2.175071        59.1867 
 325   0.0000       2.192819        59.6696 
 326   0.0000       2.200252        59.8719 
 327   0.0000       2.207600        60.0719 
 328   0.0000       2.215896        60.2976 
 329   0.0000       2.224007        60.5183 
 330   0.0000       2.233862        60.7865 
 331   0.0000       2.243434        61.0469 
 332   0.0000       2.257520        61.4302 
 333   0.0000       2.266595        61.6772 
 334   0.0000       2.270096        61.7725 
 335   0.0000       2.281385        62.0796 
 336   0.0000       2.291764        62.3621 
 337   0.0000       2.295945        62.4758 
 338   0.0000       2.306024        62.7501 
 339   0.0000       2.307729        62.7965 
 340   0.0000       2.320801        63.1522 
 341   0.0000       2.332704        63.4761 
 342   0.0000       2.343833        63.7790 
 343   0.0000       2.374312        64.6083 
 344   0.0000       2.394287        65.1519 
 345   0.0000       2.402482        65.3749 
 346   0.0000       2.419216        65.8302 
 347   0.0000       2.437960        66.3403 
 348   0.0000       2.461753        66.9877 
 349   0.0000       2.477401        67.4135 
 350   0.0000       2.490447        67.7685 
 351   0.0000       2.514106        68.4123 
 352   0.0000       2.525704        68.7279 
 353   0.0000       2.536934        69.0335 
 354   0.0000       2.557991        69.6065 
 355   0.0000       2.561460        69.7009 
 356   0.0000       2.572497        70.0012 
 357   0.0000       2.579553        70.1932 
 358   0.0000       2.592300        70.5401 
 359   0.0000       2.600009        70.7499 
 360   0.0000       2.613806        71.1253 
 361   0.0000       2.620626        71.3109 
 362   0.0000       2.636693        71.7481 
 363   0.0000       2.650316        72.1188 
 364   0.0000       2.654565        72.2344 
 365   0.0000       2.672606        72.7253 
 366   0.0000       2.689680        73.1899 
 367   0.0000       2.694053        73.3089 
 368   0.0000       2.719265        73.9950 
 369   0.0000       2.730630        74.3042 
 370   0.0000       2.743459        74.6533 
 371   0.0000       2.766926        75.2919 
 372   0.0000       2.778768        75.6141 
 373   0.0000       2.782984        75.7288 
 374   0.0000       2.814794        76.5945 
 375   0.0000       2.818355        76.6913 
 376   0.0000       2.825767        76.8930 
 377   0.0000       2.838177        77.2307 
 378   0.0000       2.843089        77.3644 
 379   0.0000       2.855657        77.7064 
 380   0.0000       2.868601        78.0586 
 381   0.0000       2.894420        78.7612 
 382   0.0000       2.911656        79.2302 
 383   0.0000       2.917001        79.3756 
 384   0.0000       2.929189        79.7073 
 385   0.0000       2.936036        79.8936 
 386   0.0000       2.944456        80.1227 
 387   0.0000       2.952078        80.3301 
 388   0.0000       2.981894        81.1415 
 389   0.0000       2.990043        81.3632 
 390   0.0000       2.996559        81.5405 
 391   0.0000       3.018589        82.1400 
 392   0.0000       3.022123        82.2362 
 393   0.0000       3.029066        82.4251 
 394   0.0000       3.039666        82.7135 
 395   0.0000       3.046285        82.8936 
 396   0.0000       3.055952        83.1567 
 397   0.0000       3.066544        83.4449 
 398   0.0000       3.078819        83.7789 
 399   0.0000       3.089270        84.0633 
 400   0.0000       3.096618        84.2633 
 401   0.0000       3.102910        84.4345 
 402   0.0000       3.118646        84.8627 
 403   0.0000       3.119393        84.8830 
 404   0.0000       3.135668        85.3259 
 405   0.0000       3.146656        85.6249 
 406   0.0000       3.155374        85.8621 
 407   0.0000       3.159286        85.9686 
 408   0.0000       3.165600        86.1404 
 409   0.0000       3.185999        86.6955 
 410   0.0000       3.190892        86.8286 
 411   0.0000       3.192284        86.8665 
 412   0.0000       3.204415        87.1966 
 413   0.0000       3.213410        87.4413 
 414   0.0000       3.220169        87.6253 
 415   0.0000       3.235122        88.0321 
 416   0.0000       3.243018        88.2470 
 417   0.0000       3.247955        88.3813 
 418   0.0000       3.256342        88.6096 
 419   0.0000       3.266030        88.8732 
 420   0.0000       3.277258        89.1787 
 421   0.0000       3.282263        89.3149 
 422   0.0000       3.298166        89.7477 
 423   0.0000       3.309726        90.0622 
 424   0.0000       3.318049        90.2887 
 425   0.0000       3.329100        90.5894 
 426   0.0000       3.343251        90.9745 
 427   0.0000       3.351270        91.1927 
 428   0.0000       3.357553        91.3636 
 429   0.0000       3.365119        91.5695 
 430   0.0000       3.378234        91.9264 
 431   0.0000       3.379469        91.9600 
 432   0.0000       3.386878        92.1616 
 433   0.0000       3.397196        92.4424 
 434   0.0000       3.401704        92.5651 
 435   0.0000       3.408780        92.7576 
 436   0.0000       3.416430        92.9658 
 437   0.0000       3.419974        93.0622 
 438   0.0000       3.427591        93.2695 
 439   0.0000       3.434167        93.4484 
 440   0.0000       3.441483        93.6475 
 441   0.0000       3.447351        93.8072 
 442   0.0000       3.452476        93.9466 
 443   0.0000       3.460584        94.1673 
 444   0.0000       3.464967        94.2865 
 445   0.0000       3.466213        94.3204 
 446   0.0000       3.478024        94.6418 
 447   0.0000       3.491066        94.9967 
 448   0.0000       3.501454        95.2794 
 449   0.0000       3.507648        95.4480 
 450   0.0000       3.513565        95.6090 
 451   0.0000       3.518160        95.7340 
 452   0.0000       3.532530        96.1250 
 453   0.0000       3.536301        96.2276 
 454   0.0000       3.543555        96.4250 
 455   0.0000       3.549680        96.5917 
 456   0.0000       3.552665        96.6729 
 457   0.0000       3.566173        97.0405 
 458   0.0000       3.577114        97.3382 
 459   0.0000       3.583956        97.5244 
 460   0.0000       3.588631        97.6516 
 461   0.0000       3.594994        97.8248 
 462   0.0000       3.600038        97.9620 
 463   0.0000       3.609490        98.2192 
 464   0.0000       3.613204        98.3203 
 465   0.0000       3.624319        98.6227 
 466   0.0000       3.629578        98.7658 
 467   0.0000       3.633882        98.8829 
 468   0.0000       3.641080        99.0788 
 469   0.0000       3.649105        99.2972 
 470   0.0000       3.653265        99.4104 
 471   0.0000       3.664846        99.7255 
 472   0.0000       3.666305        99.7652 
 473   0.0000       3.676163       100.0335 
 474   0.0000       3.683520       100.2337 
 475   0.0000       3.686367       100.3111 
 476   0.0000       3.695596       100.5623 
 477   0.0000       3.701048       100.7106 
 478   0.0000       3.705048       100.8195 
 479   0.0000       3.710204       100.9598 
 480   0.0000       3.717576       101.1604 
 481   0.0000       3.725509       101.3763 
 482   0.0000       3.727103       101.4196 
 483   0.0000       3.731450       101.5379 
 484   0.0000       3.734127       101.6108 
 485   0.0000       3.738722       101.7358 
 486   0.0000       3.741117       101.8010 
 487   0.0000       3.753336       102.1335 
 488   0.0000       3.759582       102.3034 
 489   0.0000       3.765197       102.4562 
 490   0.0000       3.773285       102.6763 
 491   0.0000       3.778641       102.8220 
 492   0.0000       3.785014       102.9955 
 493   0.0000       3.786775       103.0434 
 494   0.0000       3.797289       103.3295 
 495   0.0000       3.801993       103.4575 
 496   0.0000       3.806955       103.5925 
 497   0.0000       3.814828       103.8067 
 498   0.0000       3.823267       104.0364 
 499   0.0000       3.825367       104.0935 
 500   0.0000       3.831056       104.2483 
 501   0.0000       3.837770       104.4310 
 502   0.0000       3.845145       104.6317 
 503   0.0000       3.849870       104.7603 
 504   0.0000       3.858639       104.9989 
 505   0.0000       3.868745       105.2739 
 506   0.0000       3.875363       105.4540 
 507   0.0000       3.882859       105.6580 
 508   0.0000       3.896454       106.0279 
 509   0.0000       3.902942       106.2044 
 510   0.0000       3.906834       106.3104 
 511   0.0000       3.911357       106.4334 
 512   0.0000       3.924603       106.7939 
 513   0.0000       3.931544       106.9828 
 514   0.0000       3.936936       107.1295 
 515   0.0000       3.941406       107.2511 
 516   0.0000       3.956325       107.6571 
 517   0.0000       3.962752       107.8320 
 518   0.0000       3.967984       107.9743 
 519   0.0000       3.971085       108.0587 
 520   0.0000       3.971836       108.0791 
 521   0.0000       3.977785       108.2410 
 522   0.0000       3.979730       108.2940 
 523   0.0000       3.987700       108.5108 
 524   0.0000       3.993956       108.6811 
 525   0.0000       3.995064       108.7112 
 526   0.0000       4.005050       108.9830 
 527   0.0000       4.017161       109.3125 
 528   0.0000       4.026732       109.5729 
 529   0.0000       4.032913       109.7412 
 530   0.0000       4.039746       109.9271 
 531   0.0000       4.047588       110.1405 
 532   0.0000       4.049270       110.1862 
 533   0.0000       4.058012       110.4241 
 534   0.0000       4.060512       110.4921 
 535   0.0000       4.071658       110.7954 
 536   0.0000       4.077831       110.9634 
 537   0.0000       4.085508       111.1723 
 538   0.0000       4.093304       111.3845 
 539   0.0000       4.096104       111.4607 
 540   0.0000       4.105333       111.7118 
 541   0.0000       4.119388       112.0942 
 542   0.0000       4.123306       112.2009 
 543   0.0000       4.126389       112.2847 
 544   0.0000       4.140501       112.6687 
 545   0.0000       4.143386       112.7473 
 546   0.0000       4.148458       112.8853 
 547   0.0000       4.153175       113.0136 
 548   0.0000       4.157362       113.1276 
 549   0.0000       4.169098       113.4469 
 550   0.0000       4.181341       113.7801 
 551   0.0000       4.185561       113.8949 
 552   0.0000       4.192353       114.0797 
 553   0.0000       4.199095       114.2632 
 554   0.0000       4.209370       114.5428 
 555   0.0000       4.215913       114.7208 
 556   0.0000       4.233414       115.1970 
 557   0.0000       4.239020       115.3496 
 558   0.0000       4.258669       115.8843 
 559   0.0000       4.264325       116.0382 
 560   0.0000       4.277896       116.4075 
 561   0.0000       4.281163       116.4964 
 562   0.0000       4.291376       116.7743 
 563   0.0000       4.302126       117.0668 
 564   0.0000       4.315123       117.4205 
 565   0.0000       4.326309       117.7249 
 566   0.0000       4.335395       117.9721 
 567   0.0000       4.337834       118.0385 
 568   0.0000       4.346324       118.2695 
 569   0.0000       4.351756       118.4173 
 570   0.0000       4.356405       118.5438 
 571   0.0000       4.379158       119.1629 
 572   0.0000       4.386184       119.3541 
 573   0.0000       4.390248       119.4647 
 574   0.0000       4.394707       119.5861 
 575   0.0000       4.401181       119.7622 
 576   0.0000       4.414201       120.1165 
 577   0.0000       4.418523       120.2341 
 578   0.0000       4.431245       120.5803 
 579   0.0000       4.436690       120.7285 
 580   0.0000       4.451513       121.1318 
 581   0.0000       4.455508       121.2405 
 582   0.0000       4.462004       121.4173 
 583   0.0000       4.466689       121.5448 
 584   0.0000       4.469527       121.6220 
 585   0.0000       4.473500       121.7301 
 586   0.0000       4.485140       122.0469 
 587   0.0000       4.490487       122.1924 
 588   0.0000       4.493468       122.2735 
 589   0.0000       4.504493       122.5735 
 590   0.0000       4.517021       122.9144 
 591   0.0000       4.519347       122.9777 
 592   0.0000       4.526330       123.1677 
 593   0.0000       4.535134       123.4073 
 594   0.0000       4.545933       123.7011 
 595   0.0000       4.548162       123.7618 
 596   0.0000       4.563529       124.1799 
 597   0.0000       4.569399       124.3397 
 598   0.0000       4.579599       124.6172 
 599   0.0000       4.589208       124.8787 
 600   0.0000       4.592710       124.9740 
 601   0.0000       4.605162       125.3128 
 602   0.0000       4.607964       125.3891 
 603   0.0000       4.611110       125.4747 
 604   0.0000       4.623485       125.8114 
 605   0.0000       4.633474       126.0832 
 606   0.0000       4.638826       126.2289 
 607   0.0000       4.644484       126.3828 
 608   0.0000       4.652709       126.6066 
 609   0.0000       4.664845       126.9369 
 610   0.0000       4.672893       127.1559 
 611   0.0000       4.677673       127.2859 
 612   0.0000       4.681351       127.3860 
 613   0.0000       4.686093       127.5151 
 614   0.0000       4.688854       127.5902 
 615   0.0000       4.696935       127.8101 
 616   0.0000       4.705183       128.0345 
 617   0.0000       4.710486       128.1788 
 618   0.0000       4.713573       128.2628 
 619   0.0000       4.719508       128.4243 
 620   0.0000       4.733153       128.7956 
 621   0.0000       4.742864       129.0599 
 622   0.0000       4.745639       129.1354 
 623   0.0000       4.761518       129.5675 
 624   0.0000       4.767570       129.7322 
 625   0.0000       4.773999       129.9071 
 626   0.0000       4.786271       130.2410 
 627   0.0000       4.799256       130.5944 
 628   0.0000       4.802269       130.6764 
 629   0.0000       4.821766       131.2069 
 630   0.0000       4.824790       131.2892 
 631   0.0000       4.827413       131.3606 
 632   0.0000       4.841592       131.7464 
 633   0.0000       4.851668       132.0206 
 634   0.0000       4.858519       132.2070 
 635   0.0000       4.872892       132.5981 
 636   0.0000       4.876290       132.6906 
 637   0.0000       4.887674       133.0004 
 638   0.0000       4.898076       133.2834 
 639   0.0000       4.899189       133.3137 
 640   0.0000       4.915759       133.7646 
 641   0.0000       4.920931       133.9053 
 642   0.0000       4.930622       134.1690 
 643   0.0000       4.940456       134.4367 
 644   0.0000       4.948230       134.6482 
 645   0.0000       4.951078       134.7257 
 646   0.0000       4.965268       135.1118 
 647   0.0000       4.974788       135.3709 
 648   0.0000       4.981047       135.5412 
 649   0.0000       4.983691       135.6131 
 650   0.0000       4.987736       135.7232 
 651   0.0000       5.003203       136.1441 
 652   0.0000       5.009291       136.3097 
 653   0.0000       5.020033       136.6020 
 654   0.0000       5.028241       136.8254 
 655   0.0000       5.046406       137.3197 
 656   0.0000       5.057908       137.6327 
 657   0.0000       5.065844       137.8486 
 658   0.0000       5.072998       138.0433 
 659   0.0000       5.083674       138.3338 
 660   0.0000       5.094424       138.6263 
 661   0.0000       5.110815       139.0723 
 662   0.0000       5.131557       139.6368 
 663   0.0000       5.136154       139.7619 
 664   0.0000       5.143052       139.9496 
 665   0.0000       5.169580       140.6714 
 666   0.0000       5.179587       140.9437 
 667   0.0000       5.190006       141.2272 
 668   0.0000       5.213250       141.8597 
 669   0.0000       5.255876       143.0197 
 670   0.0000       5.264394       143.2514 
 671   0.0000       5.266347       143.3046 
 672   0.0000       5.294677       144.0755 
 673   0.0000       5.298706       144.1851 
 674   0.0000       5.316182       144.6607 
 675   0.0000       5.334298       145.1536 
 676   0.0000       5.353611       145.6792 
 677   0.0000       5.364063       145.9636 
 678   0.0000       5.368858       146.0940 
 679   0.0000       5.377307       146.3240 
 680   0.0000       5.385418       146.5447 
 681   0.0000       5.393898       146.7754 
 682   0.0000       5.400342       146.9508 
 683   0.0000       5.414775       147.3435 
 684   0.0000       5.428397       147.7142 
 685   0.0000       5.443602       148.1280 
 686   0.0000       5.468208       148.7975 
 687   0.0000       5.479949       149.1170 
 688   0.0000       5.482833       149.1955 
 689   0.0000       5.493919       149.4971 
 690   0.0000       5.495637       149.5439 
 691   0.0000       5.502479       149.7301 
 692   0.0000       5.517411       150.1364 
 693   0.0000       5.526236       150.3765 
 694   0.0000       5.535790       150.6365 
 695   0.0000       5.546657       150.9322 
 696   0.0000       5.552364       151.0875 
 697   0.0000       5.553617       151.1216 
 698   0.0000       5.578006       151.7853 
 699   0.0000       5.585212       151.9813 
 700   0.0000       5.607533       152.5887 
 701   0.0000       5.638919       153.4428 
 702   0.0000       5.649058       153.7187 
 703   0.0000       5.657587       153.9508 
 704   0.0000       5.666219       154.1857 
 705   0.0000       5.677406       154.4901 
 706   0.0000       5.691274       154.8674 
 707   0.0000       5.694297       154.9497 
 708   0.0000       5.709966       155.3761 
 709   0.0000       5.731651       155.9662 
 710   0.0000       5.746586       156.3726 
 711   0.0000       5.772694       157.0830 
 712   0.0000       5.778537       157.2420 
 713   0.0000       5.785516       157.4319 
 714   0.0000       5.790254       157.5608 
 715   0.0000       5.807009       158.0168 
 716   0.0000       5.837935       158.8583 
 717   0.0000       5.843967       159.0224 
 718   0.0000       5.854310       159.3039 
 719   0.0000       5.865242       159.6014 
 720   0.0000       5.876376       159.9043 
 721   0.0000       5.879308       159.9841 
 722   0.0000       5.897699       160.4845 
 723   0.0000       5.908943       160.7905 
 724   0.0000       5.919344       161.0735 
 725   0.0000       5.929565       161.3517 
 726   0.0000       5.941985       161.6896 
 727   0.0000       5.949634       161.8978 
 728   0.0000       5.955517       162.0578 
 729   0.0000       5.969173       162.4295 
 730   0.0000       5.977391       162.6531 
 731   0.0000       5.992091       163.0531 
 732   0.0000       6.004780       163.3984 
 733   0.0000       6.011772       163.5886 
 734   0.0000       6.021514       163.8537 
 735   0.0000       6.031206       164.1175 
 736   0.0000       6.055362       164.7748 
 737   0.0000       6.064341       165.0191 
 738   0.0000       6.072110       165.2305 
 739   0.0000       6.075354       165.3188 
 740   0.0000       6.096178       165.8854 
 741   0.0000       6.113874       166.3670 
 742   0.0000       6.121332       166.5699 
 743   0.0000       6.127020       166.7247 
 744   0.0000       6.147293       167.2764 
 745   0.0000       6.170147       167.8982 
 746   0.0000       6.194649       168.5650 
 747   0.0000       6.205922       168.8717 
 748   0.0000       6.229638       169.5171 
 749   0.0000       6.247579       170.0053 
 750   0.0000       6.268130       170.5645 
 751   0.0000       6.303885       171.5374 
 752   0.0000       6.323920       172.0826 
 753   0.0000       6.331584       172.2912 
 754   0.0000       6.350987       172.8191 
 755   0.0000       6.383330       173.6993 
 756   0.0000       6.392474       173.9481 
 757   0.0000       6.408431       174.3823 
 758   0.0000       6.414884       174.5579 
 759   0.0000       6.430305       174.9775 
 760   0.0000       6.461157       175.8170 
 761   0.0000       6.504951       177.0087 
 762   0.0000       6.519161       177.3954 
 763   0.0000       6.520010       177.4185 
 764   0.0000       6.571297       178.8141 
 765   0.0000       6.593884       179.4287 
 766   0.0000       6.616090       180.0330 
 767   0.0000       6.636641       180.5922 
 768   0.0000       6.676076       181.6653 
 769   0.0000       6.691484       182.0845 
 770   0.0000       6.695007       182.1804 
 771   0.0000       6.700536       182.3308 
 772   0.0000       6.737555       183.3382 
 773   0.0000       6.771372       184.2584 
 774   0.0000       6.806539       185.2153 
 775   0.0000       6.814732       185.4383 
 776   0.0000       6.861604       186.7137 
 777   0.0000       6.929149       188.5517 
 778   0.0000       6.941554       188.8893 
 779   0.0000       6.978269       189.8883 
 780   0.0000       6.995223       190.3497 
 781   0.0000       7.025249       191.1668 
 782   0.0000       7.080699       192.6756 
 783   0.0000       7.111772       193.5211 
 784   0.0000       7.138220       194.2408 
 785   0.0000       7.162019       194.8885 
 786   0.0000       7.214486       196.3161 
 787   0.0000       7.242456       197.0773 
 788   0.0000       7.251266       197.3170 
 789   0.0000       7.332675       199.5322 
 790   0.0000       7.398073       201.3118 
 791   0.0000       7.412264       201.6980 
 792   0.0000       7.471935       203.3217 
 793   0.0000       7.491123       203.8438 
 794   0.0000       7.536354       205.0746 
 795   0.0000       7.560611       205.7347 
 796   0.0000       7.586529       206.4400 
 797   0.0000       7.627017       207.5417 
 798   0.0000       7.659352       208.4216 
 799   0.0000       7.679791       208.9777 
 800   0.0000       7.761782       211.2088 
 801   0.0000       7.788870       211.9459 
 802   0.0000       7.880525       214.4400 
 803   0.0000       7.890722       214.7175 
 804   0.0000       8.006255       217.8613 
 805   0.0000       8.146715       221.6834 
 806   0.0000       8.150530       221.7872 
 807   0.0000       8.283904       225.4165 
 808   0.0000       8.295903       225.7430 
 809   0.0000       9.703130       264.0356 
 810   0.0000      10.304816       280.4083 
 811   0.0000      11.384722       309.7940 
 812   0.0000      11.586837       315.2939 
 813   0.0000      12.244046       333.1774 
 814   0.0000      12.592611       342.6624 
 815   0.0000      13.481775       366.8578 
 816   0.0000      13.510532       367.6403 
 817   0.0000      13.608556       370.3076 
 818   0.0000      13.722821       373.4169 
 819   0.0000      13.967434       380.0732 
 820   0.0000      14.147044       384.9606 
 821   0.0000      14.199803       386.3963 
 822   0.0000      14.386716       391.4825 
 823   0.0000      14.589332       396.9959 
 824   0.0000      14.710791       400.3010 
 825   0.0000      15.365972       418.1294 
 826   0.0000      15.840987       431.0552 
 827   0.0000      16.190023       440.5529 

                    ********************************
                    * MULLIKEN POPULATION ANALYSIS *
                    ********************************

-----------------------
MULLIKEN ATOMIC CHARGES
-----------------------
   0 C :   -0.280555
   1 C :    0.034237
   2 O :   -0.320611
   3 C :    0.496124
   4 O :   -0.526802
   5 C :   -0.203791
   6 C :    0.167658
   7 C :   -0.281965
   8 N :   -0.131102
   9 C :    0.354823
  10 S :   -0.738790
  11 N :   -0.197318
  12 C :    0.073759
  13 C :   -0.037755
  14 C :   -0.204643
  15 C :   -0.192329
  16 C :   -0.252783
  17 C :    0.307771
  18 O :   -0.432564
  19 C :   -0.284350
  20 H :    0.101283
  21 H :    0.102046
  22 H :    0.109101
  23 H :    0.105468
  24 H :    0.097009
  25 H :    0.127033
  26 H :    0.140482
  27 H :    0.121815
  28 H :    0.253587
  29 H :    0.259932
  30 H :    0.172697
  31 H :    0.188381
  32 H :    0.195990
  33 H :    0.183268
  34 H :    0.329557
  35 H :    0.163335
Sum of atomic charges:    0.0000000

--------------------------------
MULLIKEN REDUCED ORBITAL CHARGES
--------------------------------
  0 C s       :     3.264201  s :     3.264201
      pz      :     0.928610  p :     2.939323
      px      :     1.010874
      py      :     0.999838
      dz2     :     0.017019  d :     0.072578
      dxz     :     0.022406
      dyz     :     0.011351
      dx2y2   :     0.016831
      dxy     :     0.004971
      f0      :     0.000618  f :     0.004454
      f+1     :     0.000495
      f-1     :     0.001118
      f+2     :     0.000817
      f-2     :     0.000478
      f+3     :     0.000363
      f-3     :     0.000565
  1 C s       :     3.173032  s :     3.173032
      pz      :     0.994760  p :     2.634855
      px      :     0.964579
      py      :     0.675517
      dz2     :     0.029408  d :     0.146281
      dxz     :     0.019476
      dyz     :     0.034068
      dx2y2   :     0.037895
      dxy     :     0.025434
      f0      :     0.001422  f :     0.011595
      f+1     :     0.001257
      f-1     :     0.001841
      f+2     :     0.001004
      f-2     :     0.001174
      f+3     :     0.002380
      f-3     :     0.002516
  2 O s       :     3.722246  s :     3.722246
      pz      :     1.524695  p :     4.558214
      px      :     1.698763
      py      :     1.334756
      dz2     :     0.009062  d :     0.037970
      dxz     :     0.004441
      dyz     :     0.010722
      dx2y2   :     0.004922
      dxy     :     0.008822
      f0      :     0.000210  f :     0.002181
      f+1     :     0.000186
      f-1     :     0.000554
      f+2     :     0.000314
      f-2     :     0.000295
[...]
 15 C s       :     2.697843  s :     2.697843
      pz      :     0.941551  p :     2.803406
      px      :     1.000659
      py      :     0.861197
      dz2     :     0.087769  d :     0.427947
      dxz     :     0.105606
      dyz     :     0.048621
      dx2y2   :     0.085475
      dxy     :     0.100476
      f0      :     0.003366  f :     0.043650
      f+1     :     0.011671
      f-1     :     0.002896
      f+2     :     0.005248
      f-2     :     0.007430
      f+3     :     0.007426
      f-3     :     0.005612
 16 C s       :     2.694542  s :     2.694542
      pz      :     0.973257  p :     2.845549
      px      :     0.984882
      py      :     0.887410
      dz2     :     0.109626  d :     0.406853
      dxz     :     0.126873
      dyz     :     0.063463
      dx2y2   :     0.057408
      dxy     :     0.049482
      f0      :     0.007675  f :     0.043310
      f+1     :     0.012483
      f-1     :     0.004914
      f+2     :     0.005065
      f-2     :     0.005733
      f+3     :     0.003679
      f-3     :     0.003762
 17 C s       :     2.688811  s :     2.688811
      pz      :     0.965395  p :     2.700131
      px      :     0.889059
      py      :     0.845678
      dz2     :     0.166616  d :     0.745856
      dxz     :     0.221771
      dyz     :     0.093448
      dx2y2   :     0.114853
      dxy     :     0.149167
      f0      :     0.010703  f :     0.107722
      f+1     :     0.034567
      f-1     :     0.005719
      f+2     :     0.013031
      f-2     :     0.017187
      f+3     :     0.012071
      f-3     :     0.014444
 18 O s       :     3.165234  s :     3.165234
      pz      :     1.561359  p :     4.367229
      px      :     1.264458
      py      :     1.541412
      dz2     :     0.011220  d :     0.076369
      dxz     :     0.024120
      dyz     :     0.006569
      dx2y2   :     0.014765
      dxy     :     0.019695
      f0      :     0.000440  f :     0.005617
      f+1     :     0.001173
      f-1     :     0.000128
      f+2     :     0.001249
      f-2     :     0.001170
      f+3     :     0.000699
      f-3     :     0.000757
 19 C s       :     2.700771  s :     2.700771
      pz      :     0.953667  p :     2.862348
      px      :     0.988277
      py      :     0.920404
      dz2     :     0.083595  d :     0.389906
      dxz     :     0.105193
      dyz     :     0.044546
      dx2y2   :     0.077343
      dxy     :     0.079230
      f0      :     0.003371  f :     0.040287
      f+1     :     0.010979
      f-1     :     0.002800
      f+2     :     0.005696
      f-2     :     0.006196
      f+3     :     0.005977
      f-3     :     0.005268
 20 H s       :     0.851042  s :     0.851042
      pz      :     0.041193  p :     0.149733
      px      :     0.069217
      py      :     0.039323
      dz2     :     0.003400  d :     0.027160
      dxz     :     0.008206
      dyz     :     0.001069
      dx2y2   :     0.006619
      dxy     :     0.007866
 21 H s       :     0.844935  s :     0.844935
      pz      :     0.056404  p :     0.152506
      px      :     0.052685
      py      :     0.043417
      dz2     :     0.007383  d :     0.027776
      dxz     :     0.006346
      dyz     :     0.004720
      dx2y2   :     0.005424
      dxy     :     0.003902
 22 H s       :     0.839560  s :     0.839560
      pz      :     0.039145  p :     0.151512
      px      :     0.040573
      py      :     0.071794
      dz2     :     0.002419  d :     0.027652
      dxz     :     0.000359
      dyz     :     0.008895
      dx2y2   :     0.007211
      dxy     :     0.008767
 23 H s       :     0.848631  s :     0.848631
      pz      :     0.040879  p :     0.146280
      px      :     0.081266
      py      :     0.024135
      dz2     :     0.002864  d :     0.027156
      dxz     :     0.010125
      dyz     :     0.000117
      dx2y2   :     0.007746
      dxy     :     0.006303
 24 H s       :     0.855975  s :     0.855975
      pz      :     0.064994  p :     0.146914
      px      :     0.043164
      py      :     0.038757
      dz2     :     0.008821  d :     0.027446
      dxz     :     0.005379
      dyz     :     0.006388
      dx2y2   :     0.003532
      dxy     :     0.003326
 25 H s       :     0.827487  s :     0.827487
      pz      :     0.037618  p :     0.151262
      px      :     0.073114
      py      :     0.040529
      dz2     :     0.002531  d :     0.027818
      dxz     :     0.008499
      dyz     :     0.000545
      dx2y2   :     0.007150
      dxy     :     0.009093
 26 H s       :     0.826486  s :     0.826486
      pz      :     0.039002  p :     0.153127
      px      :     0.048734
      py      :     0.065391
      dz2     :     0.003077  d :     0.027664
      dxz     :     0.002345
      dyz     :     0.006524
      dx2y2   :     0.008827
      dxy     :     0.006891
 27 H s       :     0.830865  s :     0.830865
      pz      :     0.049691  p :     0.148517
      px      :     0.040963
      py      :     0.057863
      dz2     :     0.007147  d :     0.027768
      dxz     :     0.003741
      dyz     :     0.006955
      dx2y2   :     0.004562
      dxy     :     0.005363
 28 H s       :     0.705938  s :     0.705938
      pz      :     0.107632  p :     0.248624
      px      :     0.075736
      py      :     0.065255
      dz2     :     0.017056  d :     0.060220
      dxz     :     0.018155
      dyz     :     0.017007
      dx2y2   :     0.004896
      dxy     :     0.003106
 29 H s       :     0.722454  s :     0.722454
      pz      :     0.094861  p :     0.249560
      px      :     0.073715
      py      :     0.080984
      dz2     :     0.015702  d :     0.060680
      dxz     :     0.015679
      dyz     :     0.016660
      dx2y2   :     0.007108
      dxy     :     0.005532
 30 H s       :     0.823444  s :     0.823444
      pz      :     0.054334  p :     0.149451
      px      :     0.042750
      py      :     0.052368
      dz2     :     0.007193  d :     0.028513
      dxz     :     0.004814
      dyz     :     0.006435
      dx2y2   :     0.004632
      dxy     :     0.005439
 31 H s       :     0.833342  s :     0.833342
      pz      :     0.045488  p :     0.158537
      px      :     0.071442
      py      :     0.041607
      dz2     :     0.004947  d :     0.028017
      dxz     :     0.008228
      dyz     :     0.001633
      dx2y2   :     0.006395
      dxy     :     0.006813
 32 H s       :     0.829329  s :     0.829329
      pz      :     0.072841  p :     0.151110
      px      :     0.032050
      py      :     0.046218
      dz2     :     0.008661  d :     0.026720
      dxz     :     0.006836
      dyz     :     0.007506
      dx2y2   :     0.001757
      dxy     :     0.001960
 33 H s       :     0.828829  s :     0.828829
      pz      :     0.043585  p :     0.156179
      px      :     0.065742
      py      :     0.046852
      dz2     :     0.004864  d :     0.027624
      dxz     :     0.007805
      dyz     :     0.002333
      dx2y2   :     0.006177
      dxy     :     0.006445
 34 H s       :     0.660750  s :     0.660750
      pz      :     0.112016  p :     0.341391
      px      :     0.099204
      py      :     0.130172
      dz2     :     0.017175  d :     0.099275
      dxz     :     0.018496
      dyz     :     0.017220
      dx2y2   :     0.026866
      dxy     :     0.019518
 35 H s       :     0.839526  s :     0.839526
      pz      :     0.074767  p :     0.163380
      px      :     0.035663
      py      :     0.052950
      dz2     :     0.009026  d :     0.028564
      dxz     :     0.007381
      dyz     :     0.007948
      dx2y2   :     0.002142
      dxy     :     0.002067


                      *****************************
                      * MAYER POPULATION ANALYSIS *
                      *****************************

  NA   - Mulliken gross atomic population
  ZA   - Total nuclear charge
  QA   - Mulliken gross atomic charge
  VA   - Mayer's total valence
  BVA  - Mayer's bonded valence
  FA   - Mayer's free valence

  ATOM       NA         ZA         QA         VA         BVA        FA
  0 C      6.2806     6.0000    -0.2806     3.8889     3.8889    -0.0000
  1 C      5.9658     6.0000     0.0342     3.8414     3.8414     0.0000
  2 O      8.3206     8.0000    -0.3206     2.1092     2.1092     0.0000
  3 C      5.5039     6.0000     0.4961     4.2516     4.2516    -0.0000
  4 O      8.5268     8.0000    -0.5268     2.0159     2.0159    -0.0000
  5 C      6.2038     6.0000    -0.2038     3.5916     3.5916    -0.0000
  6 C      5.8323     6.0000     0.1677     3.8289     3.8289    -0.0000
  7 C      6.2820     6.0000    -0.2820     3.8729     3.8729     0.0000
  8 N      7.1311     7.0000    -0.1311     3.4077     3.4077     0.0000
  9 C      5.6452     6.0000     0.3548     4.0338     4.0338     0.0000
 10 S     16.7388    16.0000    -0.7388     1.3826     1.3826    -0.0000
 11 N      7.1973     7.0000    -0.1973     3.3515     3.3515     0.0000
 12 C      5.9262     6.0000     0.0738     3.9485     3.9485     0.0000
 13 C      6.0378     6.0000    -0.0378     3.7032     3.7032     0.0000
 14 C      6.2046     6.0000    -0.2046     3.8058     3.8058     0.0000
 15 C      6.1923     6.0000    -0.1923     3.7365     3.7365    -0.0000
 16 C      6.2528     6.0000    -0.2528     3.7324     3.7324     0.0000
 17 C      5.6922     6.0000     0.3078     3.9269     3.9269    -0.0000
 18 O      8.4326     8.0000    -0.4326     2.0586     2.0586    -0.0000
 19 C      6.2843     6.0000    -0.2843     3.7519     3.7519     0.0000
 20 H      0.8987     1.0000     0.1013     0.9851     0.9851    -0.0000
 21 H      0.8980     1.0000     0.1020     0.9821     0.9821    -0.0000
 22 H      0.8909     1.0000     0.1091     0.9813     0.9813    -0.0000
 23 H      0.8945     1.0000     0.1055     0.9800     0.9800     0.0000
 24 H      0.9030     1.0000     0.0970     0.9813     0.9813    -0.0000
 25 H      0.8730     1.0000     0.1270     0.9799     0.9799     0.0000
 26 H      0.8595     1.0000     0.1405     0.9799     0.9799    -0.0000
 27 H      0.8782     1.0000     0.1218     0.9862     0.9862     0.0000
 28 H      0.7464     1.0000     0.2536     0.9691     0.9691     0.0000
 29 H      0.7401     1.0000     0.2599     0.9619     0.9619    -0.0000
 30 H      0.8273     1.0000     0.1727     0.9845     0.9845     0.0000
 31 H      0.8116     1.0000     0.1884     0.9694     0.9694     0.0000
 32 H      0.8040     1.0000     0.1960     0.9639     0.9639    -0.0000
 33 H      0.8167     1.0000     0.1833     0.9701     0.9701     0.0000
 34 H      0.6704     1.0000     0.3296     0.9302     0.9302     0.0000
 35 H      0.8367     1.0000     0.1633     0.9932     0.9932    -0.0000

  Mayer bond orders larger than 0.100000
B(  0-C ,  1-C ) :   0.9657 B(  0-C , 20-H ) :   0.9753 B(  0-C , 21-H ) :   0.9810 
B(  0-C , 22-H ) :   0.9785 B(  1-C ,  2-O ) :   0.8996 B(  1-C , 23-H ) :   0.9724 
B(  1-C , 24-H ) :   0.9829 B(  2-O ,  3-C ) :   1.2171 B(  3-C ,  4-O ) :   1.9533 
B(  3-C ,  5-C ) :   1.0403 B(  5-C ,  6-C ) :   1.6449 B(  5-C , 12-C ) :   0.9942 
B(  6-C ,  7-C ) :   0.9387 B(  6-C ,  8-N ) :   1.1483 B(  7-C , 25-H ) :   0.9708 
B(  7-C , 26-H ) :   0.9587 B(  7-C , 27-H ) :   0.9879 B(  8-N ,  9-C ) :   1.2886 
B(  8-N , 28-H ) :   0.9209 B(  9-C , 10-S ) :   1.2468 B(  9-C , 11-N ) :   1.4243 
B( 11-N , 12-C ) :   0.9562 B( 11-N , 29-H ) :   0.9209 B( 12-C , 13-C ) :   0.9550 
B( 12-C , 30-H ) :   0.9959 B( 13-C , 14-C ) :   1.4222 B( 13-C , 19-C ) :   1.2849 
B( 14-C , 15-C ) :   1.3275 B( 14-C , 31-H ) :   0.9604 B( 15-C , 16-C ) :   1.3790 
B( 15-C , 32-H ) :   0.9607 B( 16-C , 17-C ) :   1.3039 B( 16-C , 33-H ) :   0.9656 
B( 17-C , 18-O ) :   1.1325 B( 17-C , 19-C ) :   1.4154 B( 18-O , 34-H ) :   0.9107 
B( 19-C , 35-H ) :   0.9557 

-------
TIMINGS
-------

Total SCF time: 0 days 1 hours 48 min 29 sec 

Total time                  ....    6509.568 sec
Sum of individual times     ....    6506.335 sec  (100.0%)

Fock matrix formation       ....    6494.179 sec  ( 99.8%)
Diagonalization             ....       1.531 sec  (  0.0%)
Density matrix formation    ....       0.187 sec  (  0.0%)
Population analysis         ....       0.228 sec  (  0.0%)
Initial guess               ....       5.657 sec  (  0.1%)
Orbital Transformation      ....       0.000 sec  (  0.0%)
Orbital Orthonormalization  ....       0.000 sec  (  0.0%)
DIIS solution               ....       1.639 sec  (  0.0%)
SOSCF solution              ....       1.538 sec  (  0.0%)

Maximum memory used throughout the entire SCF-calculation: 719.2 MB

------------------------------------------------------------------------------
                                ORCA  MP2 
------------------------------------------------------------------------------

Freezing NCore=48 chemical core electrons

-------------
RI-MP2 ENERGY
-------------
Dimension of the basis                    ...  828
Memory devoted to MP2                     ...  256 MB   
Data format for buffers                   ... DOUBLE
Compression type for matrix containers    ... UNCOMPRESSED
Overall scaling of the MP2 energy         ...   1.000e+00
Calculating two index integrals           ... done (    0.045 sec)
Cholesky decomposition of V**-1           ... done (    0.554 sec)

-----------------
RI-TRANSFORMATION (AUX index driven)
-----------------

Dimension of the orbital-basis         ... 828
Dimension of the aux-basis             ... 2141
Transformation of internal/external MOs...   24-  76 to   77- 827
Number Format for Storage              ... Double (8 Byte)
Integral mode                          ... Direct

First Phase: integral generation and transformation of MO indices
  Aux angular momentum 0               ... done (    4.961 sec)
  Aux angular momentum 1               ... done (    8.251 sec)
  Aux angular momentum 2               ... done (   10.774 sec)
  Aux angular momentum 3               ... done (    8.528 sec)
  Aux angular momentum 4               ... done (    2.960 sec)
Closing buffer VIA ( 0.63 GB; CompressionRatio= 1.00)
  Phase 1 completed in    35.651 sec
Second Phase: sorting and transformation of aux index

IA-Transformation
Memory available                       ... 158 MB 
Max. # MO pairs treated in a batch     ... 11    
# of internal orbitals                 ... 53
# batches for internal orbitals        ... 5
Closing buffer IAV ( 0.63 GB; CompressionRatio= 1.00)
(ia|v) transformation done in    20.031 sec

  Phase 2 completed in    20.040 sec
RI-Integral transformation completed in    55.695 sec
Opening buffers                              ... done

Starting loop over batches of integrals:

Operator 0  - window                       ... ( 24- 76)x( 77-827)
Operator 0  - Memory available             ...   256 MB
Operator 0  - Memory needed per MO         ...  12.3 MB
Operator 0  - Number of orbitals per batch ... 13
Operator 0  - Number of batches            ... 5

OPERATOR  0   PASS   0:  MOs    24 ...   36
  Reading integrals       ... ok
  Internal MO  26
  Internal MO  29
  Internal MO  32
  Internal MO  35
OPERATOR  0   PASS   1:  MOs    37 ...   49
  Reading integrals       ... ok
  Internal MO  38
  Internal MO  41
  Internal MO  44
  Internal MO  47
OPERATOR  0   PASS   2:  MOs    50 ...   62
  Reading integrals       ... ok
  Internal MO  50
  Internal MO  53
  Internal MO  56
  Internal MO  59
  Internal MO  62
OPERATOR  0   PASS   3:  MOs    63 ...   75
  Reading integrals       ... ok
  Internal MO  65
  Internal MO  68
  Internal MO  71
  Internal MO  74
OPERATOR  0   PASS   4:  MOs    76 ...   76
  Reading integrals       ... ok
Time spent in pair loops =    88.918 sec
Deleting buffer (Ka|jb)[aa] ...done

-----------------------------------------------
 RI-MP2 CORRELATION ENERGY:     -3.519865010 Eh
-----------------------------------------------


-------
TIMINGS
-------

Total time                :  145.310 sec
Integral trafo            :   55.715 sec ( 38.3%)
I/O of integrals          :    1.077 sec (  0.7%)
K(i,j) Operators          :   60.954 sec ( 41.9%)
T(i,j) pair energies      :    8.799 sec (  6.1%)
V-calculation             :    0.045 sec (  0.0%)
V**(-1/2)                 :    0.554 sec (  0.4%)
Gamma(ia|P)               :    0.000 sec (  0.0%)
Gamma-Trafo               :    0.000 sec (  0.0%)
D(virtual)                :    0.000 sec (  0.0%)
D(internal)               :    0.000 sec (  0.0%)
W(virtual)                :    0.000 sec (  0.0%)
W(internal)               :    0.000 sec (  0.0%)
L(virtual)                :    0.000 sec (  0.0%)
L(internal)               :    0.000 sec (  0.0%)
G(D)                      :    0.000 sec (  0.0%)
G(Z)                      :    0.000 sec (  0.0%)
Z-Vector Solution         :    0.000 sec (  0.0%)
3-Index Derivative        :    0.000 sec (  0.0%)
2-Index Derivative        :    0.000 sec (  0.0%)
Separable Gradient        :    0.000 sec (  0.0%)


---------------------------------------
MP2 TOTAL ENERGY:    -1274.437842320 Eh
---------------------------------------

Maximum memory used throughout the entire MP2-calculation: 302.8 MB

-------------------------   --------------------
FINAL SINGLE POINT ENERGY     -1274.437842319753
-------------------------   --------------------


                            ***************************************
                            *     ORCA property calculations      *
                            ***************************************


  WARNING: The energy has been calculated at the MP2 level but the densities
           used in the property calculations are still SCF densities
           MP2 response densities have not been calculated 
           use %mp2 Density relaxed end
           or  %mp2 Density unrelaxed end

                                    ---------------------
                                    Active property flags
                                    ---------------------
   (+) Dipole Moment


------------------------------------------------------------------------------
                       ORCA ELECTRIC PROPERTIES CALCULATION
------------------------------------------------------------------------------

Dipole Moment Calculation                       ... on
Quadrupole Moment Calculation                   ... off
Polarizability Calculation                      ... off
GBWName                                         ... qm_input.solv.gbw
Electron density file                           ... qm_input.solv.scfp
The origin for moment calculation is the CENTER OF MASS  = (-1.600965,  2.910438  7.238741)

-------------
DIPOLE MOMENT
-------------
                                X             Y             Z
Electronic contribution:      4.05876      13.36531       6.95148
Nuclear contribution   :     -5.77386     -15.25466      -8.01461
                        -----------------------------------------
Total Dipole Moment    :     -1.71510      -1.88935      -1.06313
                        -----------------------------------------
Magnitude (a.u.)       :      2.76432
Magnitude (Debye)      :      7.02634



--------------------
Rotational spectrum 
--------------------
 
Rotational constants in cm-1:     0.010256     0.008952     0.005643 
Rotational constants in MHz :   307.470383   268.376523   169.176593 

 Dipole components along the rotational axes: 
x,y,z [a.u.] :    -1.659365    -2.037472    -0.858302 
x,y,z [Debye]:    -4.217770    -5.178842    -2.181631 

 

Timings for individual modules:

Sum of individual times         ...     6873.945 sec (= 114.566 min)
GTO integral calculation        ...      218.568 sec (=   3.643 min)   3.2 %
SCF iterations                  ...     6509.646 sec (= 108.494 min)  94.7 %
MP2 module                      ...      145.732 sec (=   2.429 min)   2.1 %
                             ****ORCA TERMINATED NORMALLY****
TOTAL RUN TIME: 0 days 1 hours 54 minutes 35 seconds 118 msec
