
                                        *****************
                                        * O   R   C   A *
                                        *****************

                                            #,                                       
                                            ###                                      
                                            ####                                     
                                            #####                                    
                                            ######                                   
                                           ########,                                 
                                     ,,################,,,,,                         
                               ,,#################################,,                 
                          ,,##########################################,,             
                       ,#########################################, ''#####,          
                    ,#############################################,,   '####,        
                  ,##################################################,,,,####,       
                ,###########''''           ''''###############################       
              ,#####''   ,,,,##########,,,,          '''####'''          '####       
            ,##' ,,,,###########################,,,                        '##       
           ' ,,###''''                  '''############,,,                           
         ,,##''                                '''############,,,,        ,,,,,,###''
      ,#''                                            '''#######################'''  
     '                                                          ''''####''''         
             ,#######,   #######,   ,#######,      ##                                
            ,#'     '#,  ##    ##  ,#'     '#,    #''#        ######   ,####,        
            ##       ##  ##   ,#'  ##            #'  '#       #        #'  '#        
            ##       ##  #######   ##           ,######,      #####,   #    #        
            '#,     ,#'  ##    ##  '#,     ,#' ,#      #,         ##   #,  ,#        
             '#######'   ##     ##  '#######'  #'      '#     #####' # '####'        



                  #######################################################
                  #                        -***-                        #
                  #          Department of theory and spectroscopy      #
                  #    Directorship and core code : Frank Neese         #
                  #        Max Planck Institute fuer Kohlenforschung    #
                  #                Kaiser Wilhelm Platz 1               #
                  #                 D-45470 Muelheim/Ruhr               #
                  #                      Germany                        #
                  #                                                     #
                  #                  All rights reserved                #
                  #                        -***-                        #
                  #######################################################


                         Program Version 5.0.0 -  RELEASE  -
                                (SVN: $Rev: 19529$)
                ($Date: 2021-06-28 11:36:33 +0200 (Mo, 28 Jun 2021) $)


 With contributions from (in alphabetic order):
   Daniel Aravena         : Magnetic Suceptibility
   Michael Atanasov       : Ab Initio Ligand Field Theory (pilot matlab implementation)
   Alexander A. Auer      : GIAO ZORA, VPT2 properties, NMR spectrum
   Ute Becker             : Parallelization
   Giovanni Bistoni       : ED, misc. LED, open-shell LED, HFLD
   Martin Brehm           : Molecular dynamics
   Dmytro Bykov           : SCF Hessian
   Vijay G. Chilkuri      : MRCI spin determinant printing, contributions to CSF-ICE
   Dipayan Datta          : RHF DLPNO-CCSD density
   Achintya Kumar Dutta   : EOM-CC, STEOM-CC
   Dmitry Ganyushin       : Spin-Orbit,Spin-Spin,Magnetic field MRCI
   Miquel Garcia          : C-PCM Hessian, Gaussian charge scheme
   Yang Guo               : DLPNO-NEVPT2, F12-NEVPT2, CIM, IAO-localization
   Andreas Hansen         : Spin unrestricted coupled pair/coupled cluster methods
   Benjamin Helmich-Paris : MC-RPA, TRAH-SCF, COSX integrals
   Lee Huntington         : MR-EOM, pCC
   Robert Izsak           : Overlap fitted RIJCOSX, COSX-SCS-MP3, EOM
   Marcus Kettner         : VPT2
   Christian Kollmar      : KDIIS, OOCD, Brueckner-CCSD(T), CCSD density, CASPT2, CASPT2-K
   Simone Kossmann        : Meta GGA functionals, TD-DFT gradient, OOMP2, MP2 Hessian
   Martin Krupicka        : Initial AUTO-CI
   Lucas Lang             : DCDCAS
   Marvin Lechner         : AUTO-CI (C++ implementation), FIC-MRCC
   Dagmar Lenk            : GEPOL surface, SMD
   Dimitrios Liakos       : Extrapolation schemes; Compound Job, initial MDCI parallelization
   Dimitrios Manganas     : Further ROCIS development; embedding schemes
   Dimitrios Pantazis     : SARC Basis sets
   Anastasios Papadopoulos: AUTO-CI, single reference methods and gradients
   Taras Petrenko         : DFT Hessian,TD-DFT gradient, ASA, ECA, R-Raman, ABS, FL, XAS/XES, NRVS
   Peter Pinski           : DLPNO-MP2, DLPNO-MP2 Gradient
   Christoph Reimann      : Effective Core Potentials
   Marius Retegan         : Local ZFS, SOC
   Christoph Riplinger    : Optimizer, TS searches, QM/MM, DLPNO-CCSD(T), (RO)-DLPNO pert. Triples
   Tobias Risthaus        : Range-separated hybrids, TD-DFT gradient, RPA, STAB
   Michael Roemelt        : Original ROCIS implementation
   Masaaki Saitow         : Open-shell DLPNO-CCSD energy and density
   Barbara Sandhoefer     : DKH picture change effects
   Avijit Sen             : IP-ROCIS
   Kantharuban Sivalingam : CASSCF convergence, NEVPT2, FIC-MRCI
   Bernardo de Souza      : ESD, SOC TD-DFT
   Georgi Stoychev        : AutoAux, RI-MP2 NMR
   Willem Van den Heuvel  : Paramagnetic NMR
   Boris Wezisla          : Elementary symmetry handling
   Frank Wennmohs         : Technical directorship


 We gratefully acknowledge several colleagues who have allowed us to
 interface, adapt or use parts of their codes:
   Stefan Grimme, W. Hujo, H. Kruse, P. Pracht,  : VdW corrections, initial TS optimization,
                  C. Bannwarth, S. Ehlert          DFT functionals, gCP, sTDA/sTD-DF
   Ed Valeev, F. Pavosevic, A. Kumar             : LibInt (2-el integral package), F12 methods
   Garnet Chan, S. Sharma, J. Yang, R. Olivares  : DMRG
   Ulf Ekstrom                                   : XCFun DFT Library
   Mihaly Kallay                                 : mrcc  (arbitrary order and MRCC methods)
   Jiri Pittner, Ondrej Demel                    : Mk-CCSD
   Frank Weinhold                                : gennbo (NPA and NBO analysis)
   Christopher J. Cramer and Donald G. Truhlar   : smd solvation model
   Lars Goerigk                                  : TD-DFT with DH, B97 family of functionals
   V. Asgeirsson, H. Jonsson                     : NEB implementation
   FAccTs GmbH                                   : IRC, NEB, NEB-TS, DLPNO-Multilevel, CI-OPT
                                                   MM, QMMM, 2- and 3-layer-ONIOM, Crystal-QMMM,
                                                   LR-CPCM, SF, NACMEs, symmetry and pop. for TD-DFT,
                                                   nearIR, NL-DFT gradient (VV10), updates on ESD,
                                                   ML-optimized integration grids
   S Lehtola, MJT Oliveira, MAL Marques          : LibXC Library
   Liviu Ungur et al                             : ANISO software


 Your calculation uses the libint2 library for the computation of 2-el integrals
 For citations please refer to: http://libint.valeyev.net

 Your ORCA version has been built with support for libXC version: 5.1.0
 For citations please refer to: https://tddft.org/programs/libxc/

 This ORCA versions uses:
   CBLAS   interface :  Fast vector & matrix operations
   LAPACKE interface :  Fast linear algebra routines
   SCALAPACK package :  Parallel linear algebra routines
   Shared memory     :  Shared parallel matrices
   BLAS/LAPACK       :  OpenBLAS 0.3.15  USE64BITINT DYNAMIC_ARCH NO_AFFINITY SkylakeX SINGLE_THREADED
        Core in use  :  SkylakeX
   Copyright (c) 2011-2014, The OpenBLAS Project


================================================================================

----- Orbital basis set information -----
Your calculation utilizes the basis: cc-pVTZ 
       H, B-Ne : Obtained from the ccRepo (grant-hill.group.shef.ac.uk/ccrepo) Feb. 2017
                 T. H. Dunning, Jr., J. Chem. Phys. 90, 1007 (1989)
            He : Obtained from the ccRepo (grant-hill.group.shef.ac.uk/ccrepo) Feb. 2017
                 D. E. Woon, T. H. Dunning, Jr., J. Chem. Phys. 100, 2975 (1994)
  Li-Be, Na-Mg : Obtained from the ccRepo (grant-hill.group.shef.ac.uk/ccrepo) Feb. 2017
                 B. P. Prascher, D. E. Woon, K. A. Peterson, T. H. Dunning, Jr., A. K. Wilson, Theor. Chem. Acc. 128, 69 (2011)
         Al-Ar : Obtained from the ccRepo (grant-hill.group.shef.ac.uk/ccrepo) Feb. 2017
                 D. E. Woon, T. H. Dunning, Jr., J. Chem. Phys. 98, 1358 (1993)
            Ca : Obtained from the Peterson Research Group Website (tyr0.chem.wsu.edu/~kipeters) Feb. 2017
                 J. Koput, K. A. Peterson, J. Phys. Chem. 106, 9595 (2002)
         Sc-Zn : Obtained from the ccRepo (grant-hill.group.shef.ac.uk/ccrepo) Feb. 2017
                 N. B. Balabanov, K. A. Peterson, J. Chem. Phys. 123, 064107 (2005)
                 N. B. Balabanov, K. A. Peterson, J. Chem. Phys. 125, 074110 (2006)
         Ga-Kr : Obtained from the ccRepo (grant-hill.group.shef.ac.uk/ccrepo) Feb. 2017
                 A. K. Wilson, D. E. Woon, K. A. Peterson, T. H. Dunning, Jr., J. Chem. Phys. 110, 7667 (1999)
             Y : Obtained from the ccRepo (grant-hill.group.shef.ac.uk/ccrepo) Feb. 2017
                 K. A. Peterson, D. Figgen, M. Dolg, H. Stoll, J. Chem. Phys. 126, 124101 (2007)
        Ag, Au : Obtained from the Peterson Research Group Website (tyr0.chem.wsu.edu/~kipeters) Feb. 2017
                 K. A. Peterson, C. Puzzarini, Theor. Chem. Acc. 114, 283 (2005)

----- AuxC basis set information -----
Your calculation utilizes the auxiliary basis: cc-pVTZ/C 
  Obtained from the EMSL Basis Set Exchange (bse.pnl.gov) Feb. 2017
  H-He, B-F, Al-Ar, Ga-Kr : F. Weigend, A. Kohn, C. Hattig, J. Chem. Phys. 116, 3175 (2002)
             Li-Be, Na-Mg : C. Haettig, Phys. Chem. Chem. Phys. 7, 59 (2005)
                       Ne : C. Haettig, Phys. Chem. Chem. Phys. 7, 59 (2005)
                            F. Weigend, A. Kohn, C. Hattig, J. Chem. Phys. 116, 3175 (2002)
                    Sc-Zn : J. G. Hill, J. A. Platts, J. Chem. Phys. 128, 044104 (2008)

================================================================================
                                        WARNINGS
                       Please study these warnings very carefully!
================================================================================


WARNING: No MP2 level density has been requested!
         To caclulate MP2 level properties use
         %mp2 Density relaxed end
         or
         %mp2 Density unrelaxed end

WARNING: Post HF methods need fully converged wavefunctions
  ===> : Setting SCFConvForced true
         You can overwrite this default with %scf ConvForced false 


INFO   : the flag for use of the SHARK integral package has been found!

================================================================================
                                       INPUT FILE
================================================================================
NAME = qm_input.vacu
|  1> ! RI-MP2 cc-pVTZ cc-pVTZ/c TightSCF KeepDens NoKeepInts
|  2> 
|  3> *xyz  0  1
|  4>     C    -0.7785737   -3.2163939    1.2367283
|  5>     C    -1.1313878   -2.5179166    2.5635013
|  6>     O    -0.5365901   -1.2141253    2.5224669
|  7>     C    -0.8508706   -0.4267225    3.5974990
|  8>     O    -1.4997267   -0.7508297    4.5460915
|  9>     C    -0.2660725    0.9398277    3.3695091
| 10>     C     0.0006420    1.4970636    2.2121888
| 11>     C    -0.2906921    1.0488113    0.8031135
| 12>     N     0.7820407    2.6125986    2.1500297
| 13>     C     1.3399550    3.1516641    3.2746033
| 14>     S     2.3207121    4.4935802    3.3504658
| 15>     N     0.8780198    2.7313427    4.4758020
| 16>     C    -0.0383816    1.6358664    4.6791328
| 17>     C    -1.4074418    2.1066651    5.3169394
| 18>     C    -1.4570496    2.6382009    6.6071720
| 19>     C    -2.6276117    3.2182622    7.1042715
| 20>     C    -3.8063355    3.0594295    6.4153150
| 21>     C    -3.8265670    2.6041550    5.0983496
| 22>     O    -4.9593566    2.4747271    4.4142265
| 23>     C    -2.6510438    2.1278824    4.5682211
| 24>     H     0.2520658   -3.1008468    0.8794730
| 25>     H    -1.5007940   -2.8364058    0.5037905
| 26>     H    -0.9429013   -4.2932704    1.3652709
| 27>     H    -2.2234120   -2.5738337    2.6503776
| 28>     H    -0.6596399   -3.0500751    3.3986366
| 29>     H    -1.3711239    0.8623448    0.7701432
| 30>     H     0.3205985    0.1600670    0.6039946
| 31>     H    -0.0806741    1.8612774    0.0967279
| 32>     H     1.1496950    2.8969493    1.2500588
| 33>     H     1.1673039    3.2308726    5.3081187
| 34>     H     0.4586527    0.9512043    5.3772619
| 35>     H    -0.4733127    2.6524553    7.0670141
| 36>     H    -2.6256790    3.7205621    8.0671251
| 37>     H    -4.7263661    3.3291330    6.9254125
| 38>     H    -5.5626906    3.0922677    4.8629590
| 39>     H    -2.7429030    1.6222361    3.6115166
| 40> *
| 41> 
| 42>                          ****END OF INPUT****
================================================================================

                       ****************************
                       * Single Point Calculation *
                       ****************************

---------------------------------
CARTESIAN COORDINATES (ANGSTROEM)
---------------------------------
  C     -0.778574   -3.216394    1.236728
  C     -1.131388   -2.517917    2.563501
  O     -0.536590   -1.214125    2.522467
  C     -0.850871   -0.426723    3.597499
  O     -1.499727   -0.750830    4.546092
  C     -0.266072    0.939828    3.369509
  C      0.000642    1.497064    2.212189
  C     -0.290692    1.048811    0.803114
  N      0.782041    2.612599    2.150030
  C      1.339955    3.151664    3.274603
  S      2.320712    4.493580    3.350466
  N      0.878020    2.731343    4.475802
  C     -0.038382    1.635866    4.679133
  C     -1.407442    2.106665    5.316939
  C     -1.457050    2.638201    6.607172
  C     -2.627612    3.218262    7.104272
  C     -3.806335    3.059429    6.415315
  C     -3.826567    2.604155    5.098350
  O     -4.959357    2.474727    4.414226
  C     -2.651044    2.127882    4.568221
  H      0.252066   -3.100847    0.879473
  H     -1.500794   -2.836406    0.503791
  H     -0.942901   -4.293270    1.365271
  H     -2.223412   -2.573834    2.650378
  H     -0.659640   -3.050075    3.398637
  H     -1.371124    0.862345    0.770143
  H      0.320599    0.160067    0.603995
  H     -0.080674    1.861277    0.096728
  H      1.149695    2.896949    1.250059
  H      1.167304    3.230873    5.308119
  H      0.458653    0.951204    5.377262
  H     -0.473313    2.652455    7.067014
  H     -2.625679    3.720562    8.067125
  H     -4.726366    3.329133    6.925413
  H     -5.562691    3.092268    4.862959
  H     -2.742903    1.622236    3.611517

----------------------------
CARTESIAN COORDINATES (A.U.)
----------------------------
  NO LB      ZA    FRAG     MASS         X           Y           Z
   0 C     6.0000    0    12.011   -1.471291   -6.078104    2.337078
   1 C     6.0000    0    12.011   -2.138013   -4.758173    4.844315
   2 O     8.0000    0    15.999   -1.014008   -2.294364    4.766772
   3 C     6.0000    0    12.011   -1.607912   -0.806389    6.798288
   4 O     8.0000    0    15.999   -2.834073   -1.418863    8.590868
   5 C     6.0000    0    12.011   -0.502804    1.776017    6.367449
   6 C     6.0000    0    12.011    0.001213    2.829040    4.180431
   7 C     6.0000    0    12.011   -0.549328    1.981966    1.517665
   8 N     7.0000    0    14.007    1.477843    4.937096    4.062967
   9 C     6.0000    0    12.011    2.532148    5.955782    6.188103
  10 S    16.0000    0    32.060    4.385510    8.491636    6.331463
  11 N     7.0000    0    14.007    1.659217    5.161490    8.458040
  12 C     6.0000    0    12.011   -0.072531    3.091339    8.842280
  13 C     6.0000    0    12.011   -2.659680    3.981020   10.047559
  14 C     6.0000    0    12.011   -2.753425    4.985477   12.485746
  15 C     6.0000    0    12.011   -4.965466    6.081634   13.425128
  16 C     6.0000    0    12.011   -7.192932    5.781484   12.123188
  17 C     6.0000    0    12.011   -7.231164    4.921140    9.634484
  18 O     8.0000    0    15.999   -9.371826    4.676556    8.341679
  19 C     6.0000    0    12.011   -5.009747    4.021115    8.632687
  20 H     1.0000    0     1.008    0.476335   -5.859751    1.661963
  21 H     1.0000    0     1.008   -2.836090   -5.360030    0.952026
  22 H     1.0000    0     1.008   -1.781825   -8.113105    2.579988
  23 H     1.0000    0     1.008   -4.201640   -4.863841    5.008488
  24 H     1.0000    0     1.008   -1.246539   -5.763807    6.422492
  25 H     1.0000    0     1.008   -2.591049    1.629596    1.455360
  26 H     1.0000    0     1.008    0.605843    0.302483    1.141384
  27 H     1.0000    0     1.008   -0.152452    3.517305    0.182789
  28 H     1.0000    0     1.008    2.172609    5.474441    2.362269
  29 H     1.0000    0     1.008    2.205885    6.105464   10.030891
  30 H     1.0000    0     1.008    0.866728    1.797516   10.161552
  31 H     1.0000    0     1.008   -0.894431    5.012414   13.354721
  32 H     1.0000    0     1.008   -4.961814    7.030843   15.244657
  33 H     1.0000    0     1.008   -8.931538    6.291150   13.087133
  34 H     1.0000    0     1.008  -10.511962    5.843539    9.189661
  35 H     1.0000    0     1.008   -5.183335    3.065582    6.824777

--------------------------------
INTERNAL COORDINATES (ANGSTROEM)
--------------------------------
 C      0   0   0     0.000000000000     0.00000000     0.00000000
 C      1   0   0     1.540348960886     0.00000000     0.00000000
 O      2   1   0     1.433645660498   107.01963226     0.00000000
 C      3   2   1     1.369112638959   113.91089837   175.19212883
 O      4   3   2     1.194105291277   126.32722118     3.50753956
 C      4   3   2     1.503804395986   108.31953157   184.87798663
 C      6   4   3     1.311883664641   126.78399605    26.01267133
 C      7   6   4     1.507082905267   131.23697446     6.47801833
 N      7   6   4     1.363402368452   120.28344037   193.90301814
 C      9   7   6     1.366208535053   121.28896298     2.13987909
 S     10   9   7     1.663844472163   126.61753344   179.40077592
 N     10   9   7     1.353858384462   117.93602392   346.24595898
 C     12  10   9     1.442637606612   125.27777333     8.35426680
 C     13  12  10     1.582015962672   112.36844913   243.16545927
 C     14  13  12     1.396313504413   121.10194495   294.85685580
 C     15  14  13     1.397782048323   121.08719825   171.31384437
 C     16  15  14     1.374510342692   119.46848840    11.47305697
 C     17  16  15     1.393586039231   121.59288954   345.26914564
 O     18  17  16     1.329657202109   122.03186158   181.47860464
 C     18  17  16     1.374673273822   117.72376009     9.48222404
 H      1   2   3     1.096904854879   116.61413825    42.91752821
 H      1   2   3     1.096900604678   105.52431675   278.69875718
 H      1   2   3     1.096900066728   108.05463271   162.62006659
 H      2   1   3     1.096900664126   105.85084204   126.07252936
 H      2   1   3     1.096900049951   109.71209889   244.79876375
 H      8   7   6     1.096900027694   105.60905968    54.23405262
 H      8   7   6     1.096900617544   107.63678816   292.17008134
 H      8   7   6     1.096899876862   110.16884345   169.64359685
 H      9   7   6     1.012903068287   118.56968276   165.94884395
 H     12  10   9     1.012900044726   118.58776412   190.23017658
 H     13  12  10     1.096899962084   106.01215695   124.50931936
 H     15  14  13     1.086000107400   111.35054077   358.94862699
 H     16  15  14     1.085999990747   120.38169139   186.44580732
 H     17  16  15     1.085999881379   117.54019675   166.97168262
 H     19  18  17     0.973000084666   103.25026010    23.67443943
 H     20  18  17     1.086001746614   115.38568134   169.52687252

---------------------------
INTERNAL COORDINATES (A.U.)
---------------------------
 C      0   0   0     0.000000000000     0.00000000     0.00000000
 C      1   0   0     2.910837686745     0.00000000     0.00000000
 O      2   1   0     2.709197671426   107.01963226     0.00000000
 C      3   2   1     2.587247934124   113.91089837   175.19212883
 O      4   3   2     2.256531975579   126.32722118     3.50753956
 C      4   3   2     2.841778467400   108.31953157   184.87798663
 C      6   4   3     2.479100845736   126.78399605    26.01267133
 C      7   6   4     2.847973952069   131.23697446     6.47801833
 N      7   6   4     2.576457086713   120.28344037   193.90301814
 C      9   7   6     2.581759973076   121.28896298     2.13987909
 S     10   9   7     3.144210381826   126.61753344   179.40077592
 N     10   9   7     2.558421570747   117.93602392   346.24595898
 C     12  10   9     2.726189986993   125.27777333     8.35426680
 C     13  12  10     2.989576908942   112.36844913   243.16545927
 C     14  13  12     2.638650120436   121.10194495   294.85685580
 C     15  14  13     2.641425266242   121.08719825   171.31384437
 C     16  15  14     2.597448115931   119.46848840    11.47305697
 C     17  16  15     2.633495958203   121.59288954   345.26914564
 O     18  17  16     2.512687963982   122.03186158   181.47860464
 C     18  17  16     2.597756011145   117.72376009     9.48222404
 H      1   2   3     2.072849770690   116.61413825    42.91752821
 H      1   2   3     2.072841738974   105.52431675   278.69875718
 H      1   2   3     2.072840722397   108.05463271   162.62006659
 H      2   1   3     2.072841851314   105.85084204   126.07252936
 H      2   1   3     2.072840690692   109.71209889   244.79876375
 H      8   7   6     2.072840648633   105.60905968    54.23405262
 H      8   7   6     2.072841763287   107.63678816   292.17008134
 H      8   7   6     2.072840363602   110.16884345   169.64359685
 H      9   7   6     1.914109399271   118.56968276   165.94884395
 H     12  10   9     1.914103685569   118.58776412   190.23017658
 H     13  12  10     2.072840524647   106.01215695   124.50931936
 H     15  14  13     2.052242784396   111.35054077   358.94862699
 H     16  15  14     2.052242563953   120.38169139   186.44580732
 H     17  16  15     2.052242357277   117.54019675   166.97168262
 H     19  18  17     1.838703688301   103.25026010    23.67443943
 H     20  18  17     2.052245882061   115.38568134   169.52687252

---------------------
BASIS SET INFORMATION
---------------------
There are 5 groups of distinct atoms

 Group   1 Type C   : 18s5p2d1f contracted to 4s3p2d1f pattern {8811/311/11/1}
 Group   2 Type O   : 18s5p2d1f contracted to 4s3p2d1f pattern {8811/311/11/1}
 Group   3 Type N   : 18s5p2d1f contracted to 4s3p2d1f pattern {8811/311/11/1}
 Group   4 Type S   : 41s16p2d1f contracted to 5s4p2d1f pattern {13131311/7711/11/1}
 Group   5 Type H   : 5s2p1d contracted to 3s2p1d pattern {311/11/1}

Atom   0C    basis set group =>   1
Atom   1C    basis set group =>   1
Atom   2O    basis set group =>   2
Atom   3C    basis set group =>   1
Atom   4O    basis set group =>   2
Atom   5C    basis set group =>   1
Atom   6C    basis set group =>   1
Atom   7C    basis set group =>   1
Atom   8N    basis set group =>   3
Atom   9C    basis set group =>   1
Atom  10S    basis set group =>   4
Atom  11N    basis set group =>   3
Atom  12C    basis set group =>   1
Atom  13C    basis set group =>   1
Atom  14C    basis set group =>   1
Atom  15C    basis set group =>   1
Atom  16C    basis set group =>   1
Atom  17C    basis set group =>   1
Atom  18O    basis set group =>   2
Atom  19C    basis set group =>   1
Atom  20H    basis set group =>   5
Atom  21H    basis set group =>   5
Atom  22H    basis set group =>   5
Atom  23H    basis set group =>   5
Atom  24H    basis set group =>   5
Atom  25H    basis set group =>   5
Atom  26H    basis set group =>   5
Atom  27H    basis set group =>   5
Atom  28H    basis set group =>   5
Atom  29H    basis set group =>   5
Atom  30H    basis set group =>   5
Atom  31H    basis set group =>   5
Atom  32H    basis set group =>   5
Atom  33H    basis set group =>   5
Atom  34H    basis set group =>   5
Atom  35H    basis set group =>   5
---------------------------------
AUXILIARY/C BASIS SET INFORMATION
---------------------------------
There are 5 groups of distinct atoms

 Group   1 Type C   : 8s6p5d3f1g contracted to 8s6p5d3f1g pattern {11111111/111111/11111/111/1}
 Group   2 Type O   : 8s6p5d3f1g contracted to 8s6p5d3f1g pattern {11111111/111111/11111/111/1}
 Group   3 Type N   : 8s6p5d3f1g contracted to 8s6p5d3f1g pattern {11111111/111111/11111/111/1}
 Group   4 Type S   : 10s8p7d5f2g contracted to 10s8p7d5f2g pattern {1111111111/11111111/1111111/11111/11}
 Group   5 Type H   : 4s3p2d1f contracted to 4s3p2d1f pattern {1111/111/11/1}

Atom   0C    basis set group =>   1
Atom   1C    basis set group =>   1
Atom   2O    basis set group =>   2
Atom   3C    basis set group =>   1
Atom   4O    basis set group =>   2
Atom   5C    basis set group =>   1
Atom   6C    basis set group =>   1
Atom   7C    basis set group =>   1
Atom   8N    basis set group =>   3
Atom   9C    basis set group =>   1
Atom  10S    basis set group =>   4
Atom  11N    basis set group =>   3
Atom  12C    basis set group =>   1
Atom  13C    basis set group =>   1
Atom  14C    basis set group =>   1
Atom  15C    basis set group =>   1
Atom  16C    basis set group =>   1
Atom  17C    basis set group =>   1
Atom  18O    basis set group =>   2
Atom  19C    basis set group =>   1
Atom  20H    basis set group =>   5
Atom  21H    basis set group =>   5
Atom  22H    basis set group =>   5
Atom  23H    basis set group =>   5
Atom  24H    basis set group =>   5
Atom  25H    basis set group =>   5
Atom  26H    basis set group =>   5
Atom  27H    basis set group =>   5
Atom  28H    basis set group =>   5
Atom  29H    basis set group =>   5
Atom  30H    basis set group =>   5
Atom  31H    basis set group =>   5
Atom  32H    basis set group =>   5
Atom  33H    basis set group =>   5
Atom  34H    basis set group =>   5
Atom  35H    basis set group =>   5
------------------------------------------------------------------------------
                           ORCA GTO INTEGRAL CALCULATION
------------------------------------------------------------------------------
------------------------------------------------------------------------------
                   ___                                                        
                  /   \      - P O W E R E D   B Y -                         
                 /     \                                                     
                 |  |  |   _    _      __       _____    __    __             
                 |  |  |  | |  | |    /  \     |  _  \  |  |  /  |          
                  \  \/   | |  | |   /    \    | | | |  |  | /  /          
                 / \  \   | |__| |  /  /\  \   | |_| |  |  |/  /          
                |  |  |   |  __  | /  /__\  \  |    /   |      \           
                |  |  |   | |  | | |   __   |  |    \   |  |\   \          
                \     /   | |  | | |  |  |  |  | |\  \  |  | \   \       
                 \___/    |_|  |_| |__|  |__|  |_| \__\ |__|  \__/        
                                                                              
                      - O R C A' S   B I G   F R I E N D -                    
                                      &                                       
                       - I N T E G R A L  F E E D E R -                       
                                                                              
 v1 FN, 2020, v2 2021                                                         
------------------------------------------------------------------------------


Reading SHARK input file qm_input.vacu.SHARKINP.tmp ... ok
----------------------
SHARK INTEGRAL PACKAGE
----------------------

Number of atoms                             ...     36
Number of basis functions                   ...    828
Number of shells                            ...    298
Maximum angular momentum                    ...      3
Integral batch strategy                     ... SHARK/LIBINT Hybrid
RI-J (if used) integral strategy            ... SPLIT-RIJ (Revised 2003 algorithm where possible)
Printlevel                                  ...      1
Contraction scheme used                     ... SEGMENTED contraction
Coulomb Range Separation                    ... NOT USED
Exchange Range Separation                   ... NOT USED
Finite Nucleus Model                        ... NOT USED
Auxiliary Coulomb fitting basis             ... NOT available
Auxiliary J/K fitting basis                 ... NOT available
Auxiliary Correlation fitting basis         ... AVAILABLE
   # of basis functions in Aux-C            ...   2141
   # of shells in Aux-C                     ...    629
   Maximum angular momentum in Aux-C        ...      4
Auxiliary 'external' fitting basis          ... NOT available
Integral threshold                          ...     2.500000e-11
Primitive cut-off                           ...     2.500000e-12
Primitive pair pre-selection threshold      ...     2.500000e-12

Calculating pre-screening integrals         ... done (  0.6 sec) Dimension = 298
Organizing shell pair data                  ... done (  0.4 sec)
Shell pair information
Total number of shell pairs                 ...     44551
Shell pairs after pre-screening             ...     32035
Total number of primitive shell pairs       ...    234348
Primitive shell pairs kept                  ...     93048
          la=0 lb=0:   6403 shell pairs
          la=1 lb=0:   8942 shell pairs
          la=1 lb=1:   3165 shell pairs
          la=2 lb=0:   5086 shell pairs
          la=2 lb=1:   3497 shell pairs
          la=2 lb=2:    980 shell pairs
          la=3 lb=0:   1855 shell pairs
          la=3 lb=1:   1262 shell pairs
          la=3 lb=2:    704 shell pairs
          la=3 lb=3:    141 shell pairs

Calculating one electron integrals          ... done (  0.3 sec)
Calculating RI/C V-Matrix + Cholesky decomp.... done (  0.3 sec)
Calculating Nuclear repulsion               ... done (  0.0 sec) ENN=   1691.367704773029 Eh

SHARK setup successfully completed in   1.7 seconds

Maximum memory used throughout the entire GTOINT-calculation: 476.9 MB
-------------------------------------------------------------------------------
                                 ORCA SCF
-------------------------------------------------------------------------------

------------
SCF SETTINGS
------------
Hamiltonian:
 Ab initio Hamiltonian  Method          .... Hartree-Fock(GTOs)


General Settings:
 Integral files         IntName         .... qm_input.vacu
 Hartree-Fock type      HFTyp           .... RHF
 Total Charge           Charge          ....    0
 Multiplicity           Mult            ....    1
 Number of Electrons    NEL             ....  154
 Basis Dimension        Dim             ....  828
 Nuclear Repulsion      ENuc            ....   1691.3677047730 Eh

Convergence Acceleration:
 DIIS                   CNVDIIS         .... on
   Start iteration      DIISMaxIt       ....    12
   Startup error        DIISStart       ....  0.200000
   # of expansion vecs  DIISMaxEq       ....     5
   Bias factor          DIISBfac        ....   1.050
   Max. coefficient     DIISMaxC        ....  10.000
 Trust-Rad. Augm. Hess. CNVTRAH         .... auto
   Auto Start mean grad. ratio tolernc. ....  1.125000
   Auto Start start iteration           ....    20
   Auto Start num. interpolation iter.  ....    10
   Max. Number of Micro iterations      ....    16
   Max. Number of Macro iterations      .... Maxiter - #DIIS iter
   Number of Davidson start vectors     ....     2
   Converg. threshold I  (grad. norm)   ....   1.000e-05
   Converg. threshold II (energy diff.) ....   1.000e-08
   Grad. Scal. Fac. for Micro threshold ....   0.100
   Minimum threshold for Micro iter.    ....   0.010
   NR start threshold (gradient norm)   ....   0.001
   Initial trust radius                 ....   0.400
   Minimum AH scaling param. (alpha)    ....   1.000
   Maximum AH scaling param. (alpha)    .... 1000.000
   Orbital update algorithm             .... Taylor
   White noise on init. David. guess    .... on
   Maximum white noise                  ....   0.010
   Quad. conv. algorithm                .... NR
 SOSCF                  CNVSOSCF        .... on
   Start iteration      SOSCFMaxIt      ....   150
   Startup grad/error   SOSCFStart      ....  0.003300
 Level Shifting         CNVShift        .... on
   Level shift para.    LevelShift      ....    0.2500
   Turn off err/grad.   ShiftErr        ....    0.0010
 Zerner damping         CNVZerner       .... off
 Static damping         CNVDamp         .... on
   Fraction old density DampFac         ....    0.7000
   Max. Damping (<1)    DampMax         ....    0.9800
   Min. Damping (>=0)   DampMin         ....    0.0000
   Turn off err/grad.   DampErr         ....    0.1000
 Fernandez-Rico         CNVRico         .... off

SCF Procedure:
 Maximum # iterations   MaxIter         ....   125
 SCF integral mode      SCFMode         .... Direct
   Integral package                     .... SHARK and LIBINT hybrid scheme
 Reset frequency        DirectResetFreq ....    20
 Integral Threshold     Thresh          ....  2.500e-11 Eh
 Primitive CutOff       TCut            ....  2.500e-12 Eh

Convergence Tolerance:
 Convergence Check Mode ConvCheckMode   .... Total+1el-Energy
 Convergence forced     ConvForced      .... 1
 Energy Change          TolE            ....  1.000e-08 Eh
 1-El. energy change                    ....  1.000e-05 Eh
 Orbital Gradient       TolG            ....  1.000e-05
 Orbital Rotation angle TolX            ....  1.000e-05
 DIIS Error             TolErr          ....  5.000e-07


Diagonalization of the overlap matrix:
Smallest eigenvalue                        ... 4.344e-05
Time for diagonalization                   ...    0.131 sec
Threshold for overlap eigenvalues          ... 1.000e-08
Number of eigenvalues below threshold      ... 0
Time for construction of square roots      ...    0.062 sec
Total time needed                          ...    0.195 sec

Time for model grid setup =    1.388 sec

------------------------------
INITIAL GUESS: MODEL POTENTIAL
------------------------------
Loading Hartree-Fock densities                     ... done
Calculating cut-offs                               ... done
Initializing the effective Hamiltonian             ... done
Setting up the integral package (SHARK)            ... done
Starting the Coulomb interaction                   ... done (   4.1 sec)
Reading the grid                                   ... done
Mapping shells                                     ... done
Starting the XC term evaluation                    ... done (   1.4 sec)
Transforming the Hamiltonian                       ... done (   0.0 sec)
Diagonalizing the Hamiltonian                      ... done (   0.1 sec)
Back transforming the eigenvectors                 ... done (   0.0 sec)
Now organizing SCF variables                       ... done
                      ------------------
                      INITIAL GUESS DONE (   7.0 sec)
                      ------------------
--------------
SCF ITERATIONS
--------------
ITER       Energy         Delta-E        Max-DP      RMS-DP      [F,P]     Damp
               ***  Starting incremental Fock matrix formation  ***
  0  -1269.9581259166   0.000000000000 0.04915279  0.00045615  0.3030186 0.7000
  1  -1270.2328250661  -0.274699149473 0.03702433  0.00037908  0.1808093 0.7000
                               ***Turning on DIIS***
  2  -1270.4040995557  -0.171274489590 0.02581568  0.00024973  0.1093483 0.7000
  3  -1272.6093489851  -2.205249429488 0.06320504  0.00051239  0.0825280 0.0000
  4  -1270.7114596628   1.897889322346 0.01287373  0.00011918  0.0072449 0.0000
  5  -1270.7821164512  -0.070656788427 0.00404018  0.00005521  0.0045927 0.0000
                      *** Initiating the SOSCF procedure ***
                           *** Shutting down DIIS ***
                      *** Re-Reading the Fockian *** 
                      *** Removing any level shift *** 
ITER      Energy       Delta-E        Grad      Rot      Max-DP    RMS-DP
  6  -1270.76144561   0.0206708409  0.001478  0.001478  0.002117  0.000027
               *** Restarting incremental Fock matrix formation ***
  7  -1270.77519764  -0.0137520266  0.000847  0.002144  0.001364  0.000016
  8  -1270.77524213  -0.0000444916  0.000394  0.002526  0.001527  0.000017
  9  -1270.77525914  -0.0000170127  0.000141  0.000227  0.000376  0.000004
 10  -1270.77526109  -0.0000019529  0.000038  0.000105  0.000123  0.000001
 11  -1270.77526128  -0.0000001899  0.000020  0.000106  0.000075  0.000001
 12  -1270.77526133  -0.0000000500  0.000008  0.000031  0.000029  0.000000
                  ***Gradient check signals convergence***
              ***Rediagonalizing the Fockian in SOSCF/NRSCF***

               *****************************************************
               *                     SUCCESS                       *
               *           SCF CONVERGED AFTER  13 CYCLES          *
               *****************************************************


----------------
TOTAL SCF ENERGY
----------------

Total Energy       :        -1270.77526134 Eh          -34579.55285 eV

Components:
Nuclear Repulsion  :         1691.36770477 Eh           46024.45508 eV
Electronic Energy  :        -2962.14296611 Eh          -80604.00794 eV
One Electron Energy:        -5103.87815053 Eh         -138883.58518 eV
Two Electron Energy:         2141.73518442 Eh           58279.57724 eV

Virial components:
Potential Energy   :        -2540.46244400 Eh          -69129.49758 eV
Kinetic Energy     :         1269.68718266 Eh           34549.94473 eV
Virial Ratio       :            2.00085697


---------------
SCF CONVERGENCE
---------------

  Last Energy change         ...   -2.9650e-09  Tolerance :   1.0000e-08
  Last MAX-Density change    ...    4.9261e-06  Tolerance :   1.0000e-07
  Last RMS-Density change    ...    8.9273e-08  Tolerance :   5.0000e-09
  Last Orbital Gradient      ...    2.2438e-06  Tolerance :   1.0000e-05
  Last Orbital Rotation      ...    7.2947e-06  Tolerance :   1.0000e-05

             **** THE GBW FILE WAS UPDATED (qm_input.vacu.gbw) ****
             **** DENSITY qm_input.vacu.scfp WAS UPDATED ****
             **** ENERGY FILE WAS UPDATED (qm_input.vacu.en.tmp) ****
             **** THE GBW FILE WAS UPDATED (qm_input.vacu.gbw) ****
             **** DENSITY qm_input.vacu.scfp WAS UPDATED ****
----------------
ORBITAL ENERGIES
----------------

  NO   OCC          E(Eh)            E(eV) 
   0   2.0000     -91.881388     -2500.2197 
   1   2.0000     -20.610188      -560.8317 
   2   2.0000     -20.594931      -560.4166 
   3   2.0000     -20.555626      -559.3470 
   4   2.0000     -15.628644      -425.2770 
   5   2.0000     -15.603722      -424.5989 
   6   2.0000     -11.391069      -309.9667 
   7   2.0000     -11.379979      -309.6650 
   8   2.0000     -11.320485      -308.0460 
   9   2.0000     -11.302974      -307.5695 
  10   2.0000     -11.297491      -307.4204 
  11   2.0000     -11.297444      -307.4191 
  12   2.0000     -11.259266      -306.3802 
  13   2.0000     -11.258355      -306.3554 
  14   2.0000     -11.243953      -305.9635 
  15   2.0000     -11.243946      -305.9633 
  16   2.0000     -11.233887      -305.6896 
  17   2.0000     -11.230941      -305.6094 
  18   2.0000     -11.230235      -305.5902 
  19   2.0000     -11.226938      -305.5005 
  20   2.0000      -8.886458      -241.8128 
  21   2.0000      -6.568026      -178.7251 
  22   2.0000      -6.565999      -178.6699 
  23   2.0000      -6.565445      -178.6548 
  24   2.0000      -1.466642       -39.9094 
  25   2.0000      -1.426262       -38.8106 
  26   2.0000      -1.377641       -37.4875 
  27   2.0000      -1.353745       -36.8373 
  28   2.0000      -1.250931       -34.0396 
  29   2.0000      -1.152730       -31.3674 
  30   2.0000      -1.127037       -30.6682 
  31   2.0000      -1.045421       -28.4473 
  32   2.0000      -1.036111       -28.1940 
  33   2.0000      -1.010918       -27.5085 
  34   2.0000      -1.005366       -27.3574 
  35   2.0000      -0.983125       -26.7522 
  36   2.0000      -0.920634       -25.0517 
  37   2.0000      -0.888319       -24.1724 
  38   2.0000      -0.850565       -23.1450 
  39   2.0000      -0.839043       -22.8315 
  40   2.0000      -0.822006       -22.3679 
  41   2.0000      -0.816656       -22.2223 
  42   2.0000      -0.764163       -20.7939 
  43   2.0000      -0.749902       -20.4059 
  44   2.0000      -0.730634       -19.8816 
  45   2.0000      -0.695007       -18.9121 
  46   2.0000      -0.692104       -18.8331 
  47   2.0000      -0.686365       -18.6769 
  48   2.0000      -0.682781       -18.5794 
  49   2.0000      -0.667918       -18.1750 
  50   2.0000      -0.651385       -17.7251 
  51   2.0000      -0.646348       -17.5880 
  52   2.0000      -0.641060       -17.4441 
  53   2.0000      -0.620507       -16.8848 
  54   2.0000      -0.609497       -16.5853 
  55   2.0000      -0.599775       -16.3207 
  56   2.0000      -0.593249       -16.1431 
  57   2.0000      -0.582640       -15.8545 
  58   2.0000      -0.572281       -15.5726 
  59   2.0000      -0.568387       -15.4666 
  60   2.0000      -0.562218       -15.2987 
  61   2.0000      -0.549885       -14.9631 
  62   2.0000      -0.534425       -14.5424 
  63   2.0000      -0.524525       -14.2730 
  64   2.0000      -0.519826       -14.1452 
  65   2.0000      -0.511209       -13.9107 
  66   2.0000      -0.498864       -13.5748 
  67   2.0000      -0.493614       -13.4319 
  68   2.0000      -0.481082       -13.0909 
  69   2.0000      -0.467699       -12.7267 
  70   2.0000      -0.464800       -12.6478 
  71   2.0000      -0.454620       -12.3708 
  72   2.0000      -0.352805        -9.6003 
  73   2.0000      -0.332970        -9.0606 
  74   2.0000      -0.321076        -8.7369 
  75   2.0000      -0.317921        -8.6511 
  76   2.0000      -0.311876        -8.4866 
  77   0.0000       0.083942         2.2842 
  78   0.0000       0.116009         3.1568 
  79   0.0000       0.117111         3.1867 
  80   0.0000       0.133335         3.6282 
  81   0.0000       0.137680         3.7465 
  82   0.0000       0.141943         3.8625 
  83   0.0000       0.143631         3.9084 
  84   0.0000       0.159026         4.3273 
  85   0.0000       0.163440         4.4474 
  86   0.0000       0.168333         4.5806 
  87   0.0000       0.169667         4.6169 
  88   0.0000       0.184728         5.0267 
  89   0.0000       0.198650         5.4055 
  90   0.0000       0.202460         5.5092 
  91   0.0000       0.209034         5.6881 
  92   0.0000       0.216058         5.8792 
  93   0.0000       0.221174         6.0185 
  94   0.0000       0.230916         6.2836 
  95   0.0000       0.239104         6.5063 
  96   0.0000       0.252595         6.8735 
  97   0.0000       0.254393         6.9224 
  98   0.0000       0.274001         7.4559 
  99   0.0000       0.280619         7.6360 
 100   0.0000       0.285157         7.7595 
 101   0.0000       0.296387         8.0651 
 102   0.0000       0.318096         8.6558 
 103   0.0000       0.321792         8.7564 
 104   0.0000       0.323705         8.8085 
 105   0.0000       0.337914         9.1951 
 106   0.0000       0.341012         9.2794 
 107   0.0000       0.347368         9.4524 
 108   0.0000       0.360217         9.8020 
 109   0.0000       0.362873         9.8743 
 110   0.0000       0.372381        10.1330 
 111   0.0000       0.380934        10.3657 
 112   0.0000       0.390655        10.6303 
 113   0.0000       0.393536        10.7087 
 114   0.0000       0.407476        11.0880 
 115   0.0000       0.413329        11.2472 
 116   0.0000       0.420545        11.4436 
 117   0.0000       0.424484        11.5508 
 118   0.0000       0.434869        11.8334 
 119   0.0000       0.435837        11.8597 
 120   0.0000       0.448224        12.1968 
 121   0.0000       0.453919        12.3518 
 122   0.0000       0.456361        12.4182 
 123   0.0000       0.466330        12.6895 
 124   0.0000       0.470709        12.8086 
 125   0.0000       0.475504        12.9391 
 126   0.0000       0.479635        13.0515 
 127   0.0000       0.489816        13.3286 
 128   0.0000       0.491001        13.3608 
 129   0.0000       0.495065        13.4714 
 130   0.0000       0.500487        13.6189 
 131   0.0000       0.506043        13.7701 
 132   0.0000       0.510062        13.8795 
 133   0.0000       0.519605        14.1392 
 134   0.0000       0.528822        14.3900 
 135   0.0000       0.533429        14.5153 
 136   0.0000       0.541910        14.7461 
 137   0.0000       0.544658        14.8209 
 138   0.0000       0.545198        14.8356 
 139   0.0000       0.551387        15.0040 
 140   0.0000       0.559359        15.2209 
 141   0.0000       0.563838        15.3428 
 142   0.0000       0.566328        15.4106 
 143   0.0000       0.572322        15.5737 
 144   0.0000       0.575445        15.6587 
 145   0.0000       0.579001        15.7554 
 146   0.0000       0.581241        15.8164 
 147   0.0000       0.585832        15.9413 
 148   0.0000       0.588520        16.0145 
 149   0.0000       0.595864        16.2143 
 150   0.0000       0.603166        16.4130 
 151   0.0000       0.603823        16.4309 
 152   0.0000       0.607610        16.5339 
 153   0.0000       0.612010        16.6536 
 154   0.0000       0.615251        16.7418 
 155   0.0000       0.621070        16.9002 
 156   0.0000       0.623266        16.9599 
 157   0.0000       0.628656        17.1066 
 158   0.0000       0.634785        17.2734 
 159   0.0000       0.641301        17.4507 
 160   0.0000       0.645788        17.5728 
 161   0.0000       0.647731        17.6257 
 162   0.0000       0.651763        17.7354 
 163   0.0000       0.653128        17.7725 
 164   0.0000       0.663978        18.0677 
 165   0.0000       0.665037        18.0966 
 166   0.0000       0.672826        18.3085 
 167   0.0000       0.673974        18.3398 
 168   0.0000       0.687197        18.6996 
 169   0.0000       0.690439        18.7878 
 170   0.0000       0.699116        19.0239 
 171   0.0000       0.702182        19.1073 
 172   0.0000       0.708784        19.2870 
 173   0.0000       0.712128        19.3780 
 174   0.0000       0.727588        19.7987 
 175   0.0000       0.733029        19.9467 
 176   0.0000       0.735346        20.0098 
 177   0.0000       0.753242        20.4968 
 178   0.0000       0.754971        20.5438 
 179   0.0000       0.760628        20.6977 
 180   0.0000       0.771353        20.9896 
 181   0.0000       0.774098        21.0643 
 182   0.0000       0.783596        21.3227 
 183   0.0000       0.790032        21.4979 
 184   0.0000       0.805550        21.9201 
 185   0.0000       0.812340        22.1049 
 186   0.0000       0.818636        22.2762 
 187   0.0000       0.826822        22.4990 
 188   0.0000       0.828863        22.5545 
 189   0.0000       0.836847        22.7718 
 190   0.0000       0.842244        22.9186 
 191   0.0000       0.849163        23.1069 
 192   0.0000       0.853679        23.2298 
 193   0.0000       0.856864        23.3165 
 194   0.0000       0.864378        23.5209 
 195   0.0000       0.869141        23.6505 
 196   0.0000       0.880481        23.9591 
 197   0.0000       0.888881        24.1877 
 198   0.0000       0.896668        24.3996 
 199   0.0000       0.907406        24.6918 
 200   0.0000       0.912706        24.8360 
 201   0.0000       0.917465        24.9655 
 202   0.0000       0.923594        25.1323 
 203   0.0000       0.939021        25.5521 
 204   0.0000       0.945751        25.7352 
 205   0.0000       0.949032        25.8245 
 206   0.0000       0.964167        26.2363 
 207   0.0000       0.967782        26.3347 
 208   0.0000       0.972246        26.4561 
 209   0.0000       0.979363        26.6498 
 210   0.0000       0.983164        26.7532 
 211   0.0000       0.995687        27.0940 
 212   0.0000       0.998645        27.1745 
 213   0.0000       1.006657        27.3925 
 214   0.0000       1.008588        27.4451 
 215   0.0000       1.015092        27.6221 
 216   0.0000       1.027860        27.9695 
 217   0.0000       1.030163        28.0322 
 218   0.0000       1.038740        28.2656 
 219   0.0000       1.039526        28.2870 
 220   0.0000       1.045237        28.4423 
 221   0.0000       1.048686        28.5362 
 222   0.0000       1.065629        28.9972 
 223   0.0000       1.066721        29.0270 
 224   0.0000       1.081775        29.4366 
 225   0.0000       1.088524        29.6202 
 226   0.0000       1.099448        29.9175 
 227   0.0000       1.103045        30.0154 
 228   0.0000       1.111970        30.2583 
 229   0.0000       1.120321        30.4855 
 230   0.0000       1.124390        30.5962 
 231   0.0000       1.137510        30.9532 
 232   0.0000       1.145135        31.1607 
 233   0.0000       1.151959        31.3464 
 234   0.0000       1.155756        31.4497 
 235   0.0000       1.159753        31.5585 
 236   0.0000       1.168041        31.7840 
 237   0.0000       1.176225        32.0067 
 238   0.0000       1.181655        32.1545 
 239   0.0000       1.188178        32.3320 
 240   0.0000       1.205465        32.8024 
 241   0.0000       1.209726        32.9183 
 242   0.0000       1.210442        32.9378 
 243   0.0000       1.214708        33.0539 
 244   0.0000       1.223269        33.2868 
 245   0.0000       1.224868        33.3304 
 246   0.0000       1.233166        33.5562 
 247   0.0000       1.246577        33.9211 
 248   0.0000       1.249651        34.0047 
 249   0.0000       1.257789        34.2262 
 250   0.0000       1.262589        34.3568 
 251   0.0000       1.268982        34.5308 
 252   0.0000       1.276064        34.7235 
 253   0.0000       1.292845        35.1801 
 254   0.0000       1.297591        35.3092 
 255   0.0000       1.303138        35.4602 
 256   0.0000       1.307459        35.5778 
 257   0.0000       1.311422        35.6856 
 258   0.0000       1.320543        35.9338 
 259   0.0000       1.332435        36.2574 
 260   0.0000       1.336796        36.3761 
 261   0.0000       1.355848        36.8945 
 262   0.0000       1.357621        36.9428 
 263   0.0000       1.366657        37.1886 
 264   0.0000       1.370188        37.2847 
 265   0.0000       1.377710        37.4894 
 266   0.0000       1.386253        37.7219 
 267   0.0000       1.395524        37.9741 
 268   0.0000       1.397604        38.0307 
 269   0.0000       1.406398        38.2700 
 270   0.0000       1.413057        38.4512 
 271   0.0000       1.434525        39.0354 
 272   0.0000       1.435829        39.0709 
 273   0.0000       1.448357        39.4118 
 274   0.0000       1.456311        39.6282 
 275   0.0000       1.474293        40.1176 
 276   0.0000       1.475996        40.1639 
 277   0.0000       1.481042        40.3012 
 278   0.0000       1.486615        40.4528 
 279   0.0000       1.490551        40.5600 
 280   0.0000       1.497170        40.7401 
 281   0.0000       1.502503        40.8852 
 282   0.0000       1.510201        41.0947 
 283   0.0000       1.513007        41.1710 
 284   0.0000       1.522164        41.4202 
 285   0.0000       1.530039        41.6345 
 286   0.0000       1.530527        41.6478 
 287   0.0000       1.539823        41.9007 
 288   0.0000       1.544841        42.0373 
 289   0.0000       1.550334        42.1867 
 290   0.0000       1.559888        42.4467 
 291   0.0000       1.564372        42.5687 
 292   0.0000       1.581756        43.0418 
 293   0.0000       1.589163        43.2433 
 294   0.0000       1.593020        43.3483 
 295   0.0000       1.597557        43.4717 
 296   0.0000       1.601376        43.5757 
 297   0.0000       1.614698        43.9382 
 298   0.0000       1.617833        44.0235 
 299   0.0000       1.626877        44.2696 
 300   0.0000       1.634784        44.4847 
 301   0.0000       1.644592        44.7516 
 302   0.0000       1.653646        44.9980 
 303   0.0000       1.655001        45.0349 
 304   0.0000       1.665763        45.3277 
 305   0.0000       1.671894        45.4946 
 306   0.0000       1.676892        45.6305 
 307   0.0000       1.686526        45.8927 
 308   0.0000       1.690043        45.9884 
 309   0.0000       1.699502        46.2458 
 310   0.0000       1.715195        46.6728 
 311   0.0000       1.729207        47.0541 
 312   0.0000       1.735992        47.2387 
 313   0.0000       1.738890        47.3176 
 314   0.0000       1.741167        47.3796 
 315   0.0000       1.764041        48.0020 
 316   0.0000       1.776237        48.3339 
 317   0.0000       1.779359        48.4188 
 318   0.0000       1.806151        49.1479 
 319   0.0000       1.810184        49.2576 
 320   0.0000       1.819304        49.5058 
 321   0.0000       1.823781        49.6276 
 322   0.0000       1.846516        50.2463 
 323   0.0000       1.856841        50.5272 
 324   0.0000       1.863577        50.7105 
 325   0.0000       1.880398        51.1682 
 326   0.0000       1.895431        51.5773 
 327   0.0000       1.915291        52.1177 
 328   0.0000       1.919372        52.2288 
 329   0.0000       1.924816        52.3769 
 330   0.0000       1.932347        52.5818 
 331   0.0000       1.941959        52.8434 
 332   0.0000       1.952870        53.1403 
 333   0.0000       1.961494        53.3750 
 334   0.0000       1.971119        53.6369 
 335   0.0000       1.984749        54.0078 
 336   0.0000       1.987414        54.0803 
 337   0.0000       1.996543        54.3287 
 338   0.0000       2.012262        54.7564 
 339   0.0000       2.014092        54.8062 
 340   0.0000       2.023105        55.0515 
 341   0.0000       2.033136        55.3245 
 342   0.0000       2.043945        55.6186 
 343   0.0000       2.074687        56.4551 
 344   0.0000       2.091672        56.9173 
 345   0.0000       2.099097        57.1193 
 346   0.0000       2.115754        57.5726 
 347   0.0000       2.127700        57.8977 
 348   0.0000       2.153205        58.5917 
 349   0.0000       2.167438        58.9790 
 350   0.0000       2.180413        59.3321 
 351   0.0000       2.201602        59.9086 
 352   0.0000       2.219286        60.3898 
 353   0.0000       2.231798        60.7303 
 354   0.0000       2.255377        61.3719 
 355   0.0000       2.264002        61.6066 
 356   0.0000       2.271508        61.8109 
 357   0.0000       2.286304        62.2135 
 358   0.0000       2.290579        62.3298 
 359   0.0000       2.299457        62.5714 
 360   0.0000       2.312218        62.9186 
 361   0.0000       2.318317        63.0846 
 362   0.0000       2.346086        63.8402 
 363   0.0000       2.353370        64.0384 
 364   0.0000       2.358728        64.1843 
 365   0.0000       2.364772        64.3487 
 366   0.0000       2.380865        64.7866 
 367   0.0000       2.393839        65.1397 
 368   0.0000       2.409989        65.5791 
 369   0.0000       2.428210        66.0749 
 370   0.0000       2.436350        66.2965 
 371   0.0000       2.456035        66.8321 
 372   0.0000       2.462353        67.0040 
 373   0.0000       2.469544        67.1997 
 374   0.0000       2.502869        68.1065 
 375   0.0000       2.507201        68.2244 
 376   0.0000       2.511926        68.3530 
 377   0.0000       2.524712        68.7009 
 378   0.0000       2.531868        68.8956 
 379   0.0000       2.539915        69.1146 
 380   0.0000       2.562708        69.7348 
 381   0.0000       2.580993        70.2324 
 382   0.0000       2.595541        70.6283 
 383   0.0000       2.613681        71.1219 
 384   0.0000       2.617720        71.2318 
 385   0.0000       2.621298        71.3292 
 386   0.0000       2.627586        71.5003 
 387   0.0000       2.645169        71.9787 
 388   0.0000       2.668746        72.6203 
 389   0.0000       2.677160        72.8492 
 390   0.0000       2.684252        73.0422 
 391   0.0000       2.703166        73.5569 
 392   0.0000       2.707980        73.6879 
 393   0.0000       2.714437        73.8636 
 394   0.0000       2.728529        74.2470 
 395   0.0000       2.733923        74.3938 
 396   0.0000       2.737187        74.4826 
 397   0.0000       2.751333        74.8676 
 398   0.0000       2.757428        75.0334 
 399   0.0000       2.774532        75.4989 
 400   0.0000       2.778756        75.6138 
 401   0.0000       2.796450        76.0953 
 402   0.0000       2.799196        76.1700 
 403   0.0000       2.806015        76.3555 
 404   0.0000       2.818743        76.7019 
 405   0.0000       2.836902        77.1960 
 406   0.0000       2.838963        77.2521 
 407   0.0000       2.846728        77.4634 
 408   0.0000       2.856102        77.7185 
 409   0.0000       2.861870        77.8754 
 410   0.0000       2.873630        78.1955 
 411   0.0000       2.877736        78.3072 
 412   0.0000       2.889891        78.6379 
 413   0.0000       2.894785        78.7711 
 414   0.0000       2.907200        79.1089 
 415   0.0000       2.916223        79.3545 
 416   0.0000       2.923020        79.5394 
 417   0.0000       2.932101        79.7865 
 418   0.0000       2.941503        80.0424 
 419   0.0000       2.953592        80.3713 
 420   0.0000       2.964819        80.6768 
 421   0.0000       2.968654        80.7812 
 422   0.0000       2.987098        81.2831 
 423   0.0000       2.994041        81.4720 
 424   0.0000       3.005435        81.7820 
 425   0.0000       3.016466        82.0822 
 426   0.0000       3.031360        82.4875 
 427   0.0000       3.040266        82.7298 
 428   0.0000       3.044443        82.8435 
 429   0.0000       3.049539        82.9822 
 430   0.0000       3.056449        83.1702 
 431   0.0000       3.064504        83.3894 
 432   0.0000       3.072370        83.6034 
 433   0.0000       3.080660        83.8290 
 434   0.0000       3.086111        83.9773 
 435   0.0000       3.087934        84.0270 
 436   0.0000       3.096087        84.2488 
 437   0.0000       3.098659        84.3188 
 438   0.0000       3.108114        84.5761 
 439   0.0000       3.109662        84.6182 
 440   0.0000       3.117247        84.8246 
 441   0.0000       3.132374        85.2362 
 442   0.0000       3.137005        85.3622 
 443   0.0000       3.143527        85.5397 
 444   0.0000       3.146890        85.6312 
 445   0.0000       3.148277        85.6690 
 446   0.0000       3.163686        86.0883 
 447   0.0000       3.173869        86.3654 
 448   0.0000       3.186812        86.7176 
 449   0.0000       3.188363        86.7598 
 450   0.0000       3.196973        86.9941 
 451   0.0000       3.199165        87.0537 
 452   0.0000       3.217635        87.5563 
 453   0.0000       3.220271        87.6280 
 454   0.0000       3.227592        87.8272 
 455   0.0000       3.233867        87.9980 
 456   0.0000       3.236704        88.0752 
 457   0.0000       3.247325        88.3642 
 458   0.0000       3.258119        88.6579 
 459   0.0000       3.268389        88.9374 
 460   0.0000       3.272959        89.0617 
 461   0.0000       3.281003        89.2806 
 462   0.0000       3.282171        89.3124 
 463   0.0000       3.295260        89.6686 
 464   0.0000       3.298030        89.7440 
 465   0.0000       3.304438        89.9183 
 466   0.0000       3.311975        90.1234 
 467   0.0000       3.315891        90.2300 
 468   0.0000       3.323099        90.4261 
 469   0.0000       3.331367        90.6511 
 470   0.0000       3.336376        90.7874 
 471   0.0000       3.347954        91.1025 
 472   0.0000       3.355061        91.2959 
 473   0.0000       3.359550        91.4180 
 474   0.0000       3.364066        91.5409 
 475   0.0000       3.371431        91.7413 
 476   0.0000       3.380061        91.9761 
 477   0.0000       3.384319        92.0920 
 478   0.0000       3.389373        92.2295 
 479   0.0000       3.393885        92.3523 
 480   0.0000       3.401256        92.5529 
 481   0.0000       3.405801        92.6766 
 482   0.0000       3.411826        92.8405 
 483   0.0000       3.415203        92.9324 
 484   0.0000       3.418341        93.0178 
 485   0.0000       3.421255        93.0971 
 486   0.0000       3.427488        93.2667 
 487   0.0000       3.434087        93.4463 
 488   0.0000       3.443846        93.7118 
 489   0.0000       3.446078        93.7725 
 490   0.0000       3.453680        93.9794 
 491   0.0000       3.462493        94.2192 
 492   0.0000       3.468960        94.3952 
 493   0.0000       3.473066        94.5069 
 494   0.0000       3.482233        94.7564 
 495   0.0000       3.483364        94.7872 
 496   0.0000       3.489116        94.9437 
 497   0.0000       3.492714        95.0416 
 498   0.0000       3.507748        95.4507 
 499   0.0000       3.513397        95.6044 
 500   0.0000       3.514874        95.6446 
 501   0.0000       3.523329        95.8747 
 502   0.0000       3.529591        96.0451 
 503   0.0000       3.538038        96.2749 
 504   0.0000       3.541320        96.3642 
 505   0.0000       3.550994        96.6274 
 506   0.0000       3.562894        96.9513 
 507   0.0000       3.569536        97.1320 
 508   0.0000       3.583106        97.5013 
 509   0.0000       3.584382        97.5360 
 510   0.0000       3.587694        97.6261 
 511   0.0000       3.597578        97.8951 
 512   0.0000       3.610335        98.2422 
 513   0.0000       3.617177        98.4284 
 514   0.0000       3.622258        98.5667 
 515   0.0000       3.624809        98.6361 
 516   0.0000       3.633636        98.8763 
 517   0.0000       3.643846        99.1541 
 518   0.0000       3.647642        99.2574 
 519   0.0000       3.655036        99.4586 
 520   0.0000       3.658341        99.5485 
 521   0.0000       3.662267        99.6554 
 522   0.0000       3.669007        99.8387 
 523   0.0000       3.672681        99.9387 
 524   0.0000       3.679477       100.1237 
 525   0.0000       3.680794       100.1595 
 526   0.0000       3.687757       100.3490 
 527   0.0000       3.701600       100.7257 
 528   0.0000       3.705272       100.8256 
 529   0.0000       3.716647       101.1351 
 530   0.0000       3.719247       101.2058 
 531   0.0000       3.721404       101.2646 
 532   0.0000       3.732853       101.5761 
 533   0.0000       3.737607       101.7055 
 534   0.0000       3.744523       101.8936 
 535   0.0000       3.757033       102.2341 
 536   0.0000       3.758878       102.2843 
 537   0.0000       3.766767       102.4989 
 538   0.0000       3.770925       102.6121 
 539   0.0000       3.778881       102.8286 
 540   0.0000       3.786241       103.0289 
 541   0.0000       3.800075       103.4053 
 542   0.0000       3.802713       103.4771 
 543   0.0000       3.808320       103.6296 
 544   0.0000       3.817660       103.8838 
 545   0.0000       3.824120       104.0596 
 546   0.0000       3.828275       104.1727 
 547   0.0000       3.833693       104.3201 
 548   0.0000       3.841099       104.5216 
 549   0.0000       3.850113       104.7669 
 550   0.0000       3.858419       104.9929 
 551   0.0000       3.865708       105.1913 
 552   0.0000       3.870075       105.3101 
 553   0.0000       3.880544       105.5950 
 554   0.0000       3.894068       105.9630 
 555   0.0000       3.896593       106.0317 
 556   0.0000       3.916455       106.5722 
 557   0.0000       3.922825       106.7455 
 558   0.0000       3.939822       107.2080 
 559   0.0000       3.943851       107.3177 
 560   0.0000       3.960678       107.7755 
 561   0.0000       3.961962       107.8105 
 562   0.0000       3.973859       108.1342 
 563   0.0000       3.987229       108.4980 
 564   0.0000       3.998370       108.8012 
 565   0.0000       4.002750       108.9204 
 566   0.0000       4.015389       109.2643 
 567   0.0000       4.019816       109.3848 
 568   0.0000       4.028840       109.6303 
 569   0.0000       4.030463       109.6745 
 570   0.0000       4.038699       109.8986 
 571   0.0000       4.059465       110.4637 
 572   0.0000       4.068504       110.7096 
 573   0.0000       4.071946       110.8033 
 574   0.0000       4.077352       110.9504 
 575   0.0000       4.081115       111.0528 
 576   0.0000       4.089134       111.2710 
 577   0.0000       4.101832       111.6165 
 578   0.0000       4.109661       111.8296 
 579   0.0000       4.117091       112.0317 
 580   0.0000       4.121489       112.1514 
 581   0.0000       4.129537       112.3704 
 582   0.0000       4.139747       112.6483 
 583   0.0000       4.142602       112.7259 
 584   0.0000       4.146526       112.8327 
 585   0.0000       4.154861       113.0595 
 586   0.0000       4.163172       113.2857 
 587   0.0000       4.166029       113.3634 
 588   0.0000       4.168681       113.4356 
 589   0.0000       4.175216       113.6134 
 590   0.0000       4.190571       114.0312 
 591   0.0000       4.197018       114.2067 
 592   0.0000       4.202565       114.3576 
 593   0.0000       4.212914       114.6392 
 594   0.0000       4.226582       115.0112 
 595   0.0000       4.229309       115.0854 
 596   0.0000       4.242279       115.4383 
 597   0.0000       4.245700       115.5314 
 598   0.0000       4.255481       115.7975 
 599   0.0000       4.266832       116.1064 
 600   0.0000       4.271114       116.2229 
 601   0.0000       4.279836       116.4602 
 602   0.0000       4.286638       116.6454 
 603   0.0000       4.291680       116.7826 
 604   0.0000       4.300885       117.0330 
 605   0.0000       4.308104       117.2295 
 606   0.0000       4.313429       117.3744 
 607   0.0000       4.324083       117.6643 
 608   0.0000       4.331855       117.8758 
 609   0.0000       4.344309       118.2147 
 610   0.0000       4.347366       118.2978 
 611   0.0000       4.352606       118.4404 
 612   0.0000       4.357605       118.5765 
 613   0.0000       4.362895       118.7204 
 614   0.0000       4.365279       118.7853 
 615   0.0000       4.375587       119.0658 
 616   0.0000       4.381067       119.2149 
 617   0.0000       4.384953       119.3206 
 618   0.0000       4.393735       119.5596 
 619   0.0000       4.396875       119.6450 
 620   0.0000       4.408854       119.9710 
 621   0.0000       4.414332       120.1201 
 622   0.0000       4.426781       120.4588 
 623   0.0000       4.442858       120.8963 
 624   0.0000       4.444155       120.9316 
 625   0.0000       4.455554       121.2418 
 626   0.0000       4.465585       121.5147 
 627   0.0000       4.481433       121.9460 
 628   0.0000       4.484063       122.0176 
 629   0.0000       4.498008       122.3970 
 630   0.0000       4.501787       122.4998 
 631   0.0000       4.511066       122.7523 
 632   0.0000       4.523375       123.0873 
 633   0.0000       4.526635       123.1760 
 634   0.0000       4.539757       123.5331 
 635   0.0000       4.551240       123.8455 
 636   0.0000       4.557580       124.0181 
 637   0.0000       4.562463       124.1509 
 638   0.0000       4.582727       124.7023 
 639   0.0000       4.585627       124.7812 
 640   0.0000       4.598300       125.1261 
 641   0.0000       4.605728       125.3282 
 642   0.0000       4.611821       125.4940 
 643   0.0000       4.622785       125.7924 
 644   0.0000       4.629948       125.9873 
 645   0.0000       4.637730       126.1991 
 646   0.0000       4.645536       126.4115 
 647   0.0000       4.653730       126.6344 
 648   0.0000       4.661709       126.8516 
 649   0.0000       4.664286       126.9217 
 650   0.0000       4.670459       127.0897 
 651   0.0000       4.680665       127.3674 
 652   0.0000       4.691877       127.6725 
 653   0.0000       4.698537       127.8537 
 654   0.0000       4.710392       128.1763 
 655   0.0000       4.722050       128.4935 
 656   0.0000       4.740780       129.0032 
 657   0.0000       4.751886       129.3054 
 658   0.0000       4.753684       129.3543 
 659   0.0000       4.769689       129.7898 
 660   0.0000       4.777819       130.0111 
 661   0.0000       4.794020       130.4519 
 662   0.0000       4.814574       131.0112 
 663   0.0000       4.818920       131.1295 
 664   0.0000       4.825909       131.3197 
 665   0.0000       4.853656       132.0747 
 666   0.0000       4.861578       132.2903 
 667   0.0000       4.872552       132.5889 
 668   0.0000       4.895123       133.2031 
 669   0.0000       4.935700       134.3072 
 670   0.0000       4.947895       134.6391 
 671   0.0000       4.951583       134.7394 
 672   0.0000       4.976189       135.4090 
 673   0.0000       4.978015       135.4587 
 674   0.0000       5.000521       136.0711 
 675   0.0000       5.016860       136.5157 
 676   0.0000       5.032093       136.9302 
 677   0.0000       5.043920       137.2520 
 678   0.0000       5.051644       137.4622 
 679   0.0000       5.060749       137.7100 
 680   0.0000       5.065031       137.8265 
 681   0.0000       5.074361       138.0804 
 682   0.0000       5.083717       138.3350 
 683   0.0000       5.095717       138.6615 
 684   0.0000       5.099560       138.7661 
 685   0.0000       5.121171       139.3542 
 686   0.0000       5.147777       140.0781 
 687   0.0000       5.159051       140.3849 
 688   0.0000       5.165112       140.5498 
 689   0.0000       5.170910       140.7076 
 690   0.0000       5.174894       140.8160 
 691   0.0000       5.178824       140.9230 
 692   0.0000       5.195495       141.3766 
 693   0.0000       5.210584       141.7872 
 694   0.0000       5.214811       141.9022 
 695   0.0000       5.221364       142.0805 
 696   0.0000       5.226802       142.2285 
 697   0.0000       5.230801       142.3373 
 698   0.0000       5.262497       143.1998 
 699   0.0000       5.269058       143.3784 
 700   0.0000       5.294011       144.0574 
 701   0.0000       5.317985       144.7097 
 702   0.0000       5.327553       144.9701 
 703   0.0000       5.334230       145.1518 
 704   0.0000       5.354942       145.7154 
 705   0.0000       5.359715       145.8453 
 706   0.0000       5.367869       146.0671 
 707   0.0000       5.378063       146.3445 
 708   0.0000       5.393191       146.7562 
 709   0.0000       5.415885       147.3737 
 710   0.0000       5.430341       147.7671 
 711   0.0000       5.454063       148.4126 
 712   0.0000       5.460140       148.5780 
 713   0.0000       5.464057       148.6845 
 714   0.0000       5.469541       148.8338 
 715   0.0000       5.491440       149.4297 
 716   0.0000       5.513799       150.0381 
 717   0.0000       5.521226       150.2402 
 718   0.0000       5.536648       150.6599 
 719   0.0000       5.548455       150.9811 
 720   0.0000       5.557051       151.2150 
 721   0.0000       5.559876       151.2919 
 722   0.0000       5.578554       151.8002 
 723   0.0000       5.585762       151.9963 
 724   0.0000       5.601547       152.4258 
 725   0.0000       5.611721       152.7027 
 726   0.0000       5.623629       153.0267 
 727   0.0000       5.630383       153.2105 
 728   0.0000       5.641358       153.5091 
 729   0.0000       5.650032       153.7452 
 730   0.0000       5.658205       153.9676 
 731   0.0000       5.669240       154.2679 
 732   0.0000       5.681106       154.5908 
 733   0.0000       5.689511       154.8195 
 734   0.0000       5.696536       155.0106 
 735   0.0000       5.716538       155.5549 
 736   0.0000       5.736571       156.1000 
 737   0.0000       5.742495       156.2612 
 738   0.0000       5.753849       156.5702 
 739   0.0000       5.757200       156.6614 
 740   0.0000       5.785576       157.4335 
 741   0.0000       5.802425       157.8920 
 742   0.0000       5.806837       158.0121 
 743   0.0000       5.814870       158.2307 
 744   0.0000       5.832842       158.7197 
 745   0.0000       5.853243       159.2748 
 746   0.0000       5.878969       159.9749 
 747   0.0000       5.884105       160.1146 
 748   0.0000       5.917937       161.0353 
 749   0.0000       5.942294       161.6980 
 750   0.0000       5.954913       162.0414 
 751   0.0000       5.992083       163.0529 
 752   0.0000       6.009445       163.5253 
 753   0.0000       6.018752       163.7786 
 754   0.0000       6.037475       164.2880 
 755   0.0000       6.069520       165.1600 
 756   0.0000       6.080152       165.4493 
 757   0.0000       6.097739       165.9279 
 758   0.0000       6.104653       166.1160 
 759   0.0000       6.116969       166.4512 
 760   0.0000       6.148510       167.3095 
 761   0.0000       6.179897       168.1635 
 762   0.0000       6.187893       168.3811 
 763   0.0000       6.205898       168.8711 
 764   0.0000       6.244999       169.9351 
 765   0.0000       6.271762       170.6633 
 766   0.0000       6.283650       170.9868 
 767   0.0000       6.309877       171.7005 
 768   0.0000       6.360588       173.0804 
 769   0.0000       6.372949       173.4168 
 770   0.0000       6.377279       173.5346 
 771   0.0000       6.384621       173.7344 
 772   0.0000       6.423880       174.8027 
 773   0.0000       6.458950       175.7570 
 774   0.0000       6.493950       176.7094 
 775   0.0000       6.502260       176.9355 
 776   0.0000       6.548594       178.1963 
 777   0.0000       6.616926       180.0557 
 778   0.0000       6.627118       180.3330 
 779   0.0000       6.664252       181.3435 
 780   0.0000       6.685154       181.9123 
 781   0.0000       6.711374       182.6258 
 782   0.0000       6.780865       184.5167 
 783   0.0000       6.813394       185.4019 
 784   0.0000       6.829779       185.8477 
 785   0.0000       6.848683       186.3621 
 786   0.0000       6.908713       187.9956 
 787   0.0000       6.926619       188.4829 
 788   0.0000       6.953147       189.2047 
 789   0.0000       7.040248       191.5749 
 790   0.0000       7.084544       192.7802 
 791   0.0000       7.098673       193.1647 
 792   0.0000       7.152568       194.6313 
 793   0.0000       7.174540       195.2292 
 794   0.0000       7.222860       196.5440 
 795   0.0000       7.246957       197.1997 
 796   0.0000       7.278505       198.0582 
 797   0.0000       7.314751       199.0445 
 798   0.0000       7.367007       200.4664 
 799   0.0000       7.373590       200.6456 
 800   0.0000       7.455916       202.8858 
 801   0.0000       7.477150       203.4636 
 802   0.0000       7.572039       206.0457 
 803   0.0000       7.600570       206.8220 
 804   0.0000       7.713256       209.8884 
 805   0.0000       7.834611       213.1906 
 806   0.0000       7.836403       213.2394 
 807   0.0000       7.962034       216.6580 
 808   0.0000       7.982867       217.2249 
 809   0.0000       9.390409       255.5260 
 810   0.0000       9.995271       271.9851 
 811   0.0000      11.082250       301.5633 
 812   0.0000      11.278221       306.8960 
 813   0.0000      11.932537       324.7008 
 814   0.0000      12.283742       334.2576 
 815   0.0000      13.167602       358.3087 
 816   0.0000      13.183978       358.7543 
 817   0.0000      13.291198       361.6719 
 818   0.0000      13.411099       364.9345 
 819   0.0000      13.654899       371.5687 
 820   0.0000      13.833098       376.4177 
 821   0.0000      13.867211       377.3460 
 822   0.0000      14.076797       383.0491 
 823   0.0000      14.277297       388.5050 
 824   0.0000      14.402515       391.9123 
 825   0.0000      15.040955       409.2852 
 826   0.0000      15.524840       422.4524 
 827   0.0000      15.878853       432.0856 

                    ********************************
                    * MULLIKEN POPULATION ANALYSIS *
                    ********************************

-----------------------
MULLIKEN ATOMIC CHARGES
-----------------------
   0 C :   -0.279219
   1 C :    0.043765
   2 O :   -0.333586
   3 C :    0.428806
   4 O :   -0.385838
   5 C :   -0.204389
   6 C :    0.155819
   7 C :   -0.294053
   8 N :   -0.118609
   9 C :    0.212538
  10 S :   -0.465387
  11 N :   -0.170354
  12 C :    0.043614
  13 C :    0.077590
  14 C :   -0.196922
  15 C :   -0.139987
  16 C :   -0.256151
  17 C :    0.290139
  18 O :   -0.348977
  19 C :   -0.223080
  20 H :    0.101176
  21 H :    0.091307
  22 H :    0.099758
  23 H :    0.096885
  24 H :    0.088799
  25 H :    0.118994
  26 H :    0.138227
  27 H :    0.099671
  28 H :    0.192362
  29 H :    0.194906
  30 H :    0.143001
  31 H :    0.135703
  32 H :    0.156557
  33 H :    0.128371
  34 H :    0.241648
  35 H :    0.136914
Sum of atomic charges:    0.0000000

--------------------------------
MULLIKEN REDUCED ORBITAL CHARGES
--------------------------------
  0 C s       :     3.261042  s :     3.261042
      pz      :     0.934739  p :     2.940765
      px      :     1.011193
      py      :     0.994833
      dz2     :     0.016960  d :     0.072944
      dxz     :     0.022374
      dyz     :     0.011041
      dx2y2   :     0.017623
      dxy     :     0.004946
      f0      :     0.000630  f :     0.004467
      f+1     :     0.000499
      f-1     :     0.001114
      f+2     :     0.000823
      f-2     :     0.000473
      f+3     :     0.000365
      f-3     :     0.000563
  1 C s       :     3.169560  s :     3.169560
      pz      :     0.979725  p :     2.627789
      px      :     0.957380
      py      :     0.690684
      dz2     :     0.029508  d :     0.147222
      dxz     :     0.019385
      dyz     :     0.034544
      dx2y2   :     0.038262
      dxy     :     0.025523
      f0      :     0.001430  f :     0.011664
      f+1     :     0.001252
      f-1     :     0.001853
      f+2     :     0.001012
      f-2     :     0.001186
      f+3     :     0.002376
      f-3     :     0.002556
  2 O s       :     3.720542  s :     3.720542
      pz      :     1.538812  p :     4.573695
      px      :     1.706334
      py      :     1.328549
      dz2     :     0.008889  d :     0.037188
      dxz     :     0.004291
      dyz     :     0.010268
      dx2y2   :     0.004857
      dxy     :     0.008884
      f0      :     0.000207  f :     0.002161
      f+1     :     0.000183
      f-1     :     0.000542
      f+2     :     0.000310
      f-2     :     0.000284
      f+3     :     0.000410
      f-3     :     0.000225
  3 C s       :     3.075093  s :     3.075093
      pz      :     0.702181  p :     2.158381
      px      :     0.673005
      py      :     0.783195
      dz2     :     0.091310  d :     0.310904
[...]
 15 C s       :     2.695953  s :     2.695953
      pz      :     0.935145  p :     2.796271
      px      :     1.001417
      py      :     0.859710
      dz2     :     0.087267  d :     0.428704
      dxz     :     0.104801
      dyz     :     0.049224
      dx2y2   :     0.084804
      dxy     :     0.102608
      f0      :     0.003368  f :     0.043936
      f+1     :     0.011520
      f-1     :     0.002988
      f+2     :     0.005323
      f-2     :     0.007451
      f+3     :     0.007467
      f-3     :     0.005819
 16 C s       :     2.692787  s :     2.692787
      pz      :     0.974343  p :     2.855472
      px      :     0.977681
      py      :     0.903448
      dz2     :     0.110008  d :     0.408865
      dxz     :     0.127498
      dyz     :     0.064246
      dx2y2   :     0.057535
      dxy     :     0.049578
      f0      :     0.007664  f :     0.043503
      f+1     :     0.012427
      f-1     :     0.004962
      f+2     :     0.005136
      f-2     :     0.005783
      f+3     :     0.003716
      f-3     :     0.003815
 17 C s       :     2.688128  s :     2.688128
      pz      :     0.962554  p :     2.694848
      px      :     0.886409
      py      :     0.845885
      dz2     :     0.166470  d :     0.743320
      dxz     :     0.220201
      dyz     :     0.093950
      dx2y2   :     0.114845
      dxy     :     0.147854
      f0      :     0.010858  f :     0.107691
      f+1     :     0.034315
      f-1     :     0.005775
      f+2     :     0.013155
      f-2     :     0.017014
      f+3     :     0.011993
      f-3     :     0.014583
 18 O s       :     3.170378  s :     3.170378
      pz      :     1.550554  p :     4.328154
      px      :     1.251887
      py      :     1.525712
      dz2     :     0.011054  d :     0.079211
      dxz     :     0.025223
      dyz     :     0.007299
      dx2y2   :     0.014279
      dxy     :     0.021356
      f0      :     0.000475  f :     0.005761
      f+1     :     0.001167
      f-1     :     0.000123
      f+2     :     0.001234
      f-2     :     0.001267
      f+3     :     0.000721
      f-3     :     0.000774
 19 C s       :     2.699195  s :     2.699195
      pz      :     0.950181  p :     2.845306
      px      :     0.984782
      py      :     0.910343
      dz2     :     0.083691  d :     0.385673
      dxz     :     0.104317
      dyz     :     0.043693
      dx2y2   :     0.077003
      dxy     :     0.076969
      f0      :     0.003354  f :     0.040355
      f+1     :     0.010825
      f-1     :     0.002842
      f+2     :     0.005775
      f-2     :     0.006049
      f+3     :     0.006100
      f-3     :     0.005411
 20 H s       :     0.852223  s :     0.852223
      pz      :     0.041304  p :     0.149598
      px      :     0.069131
      py      :     0.039163
      dz2     :     0.003388  d :     0.027152
      dxz     :     0.008245
      dyz     :     0.001056
      dx2y2   :     0.006617
      dxy     :     0.007846
 21 H s       :     0.849115  s :     0.849115
      pz      :     0.056753  p :     0.152742
      px      :     0.052536
      py      :     0.043453
      dz2     :     0.007443  d :     0.027779
      dxz     :     0.006316
      dyz     :     0.004696
      dx2y2   :     0.005422
      dxy     :     0.003903
 22 H s       :     0.843617  s :     0.843617
      pz      :     0.039584  p :     0.151761
      px      :     0.040675
      py      :     0.071501
      dz2     :     0.002417  d :     0.027659
      dxz     :     0.000366
      dyz     :     0.008956
      dx2y2   :     0.007173
      dxy     :     0.008747
 23 H s       :     0.852462  s :     0.852462
      pz      :     0.040491  p :     0.145436
      px      :     0.080560
      py      :     0.024385
      dz2     :     0.002888  d :     0.027163
      dxz     :     0.010023
      dyz     :     0.000128
      dx2y2   :     0.007734
      dxy     :     0.006390
 24 H s       :     0.857927  s :     0.857927
      pz      :     0.064957  p :     0.146307
      px      :     0.042839
      py      :     0.038510
      dz2     :     0.008728  d :     0.027438
      dxz     :     0.005432
      dyz     :     0.006456
      dx2y2   :     0.003558
      dxy     :     0.003264
 25 H s       :     0.832191  s :     0.832191
      pz      :     0.038385  p :     0.151271
      px      :     0.072463
      py      :     0.040422
      dz2     :     0.002525  d :     0.027826
      dxz     :     0.008593
      dyz     :     0.000557
      dx2y2   :     0.007125
      dxy     :     0.009026
 26 H s       :     0.830001  s :     0.830001
      pz      :     0.039756  p :     0.153596
      px      :     0.048392
      py      :     0.065447
      dz2     :     0.003064  d :     0.027651
      dxz     :     0.002340
      dyz     :     0.006616
      dx2y2   :     0.008755
      dxy     :     0.006876
 27 H s       :     0.842222  s :     0.842222
      pz      :     0.049539  p :     0.148861
      px      :     0.041669
      py      :     0.057653
      dz2     :     0.007255  d :     0.027815
      dxz     :     0.003705
      dyz     :     0.006910
      dx2y2   :     0.004552
      dxy     :     0.005394
 28 H s       :     0.735285  s :     0.735285
      pz      :     0.102676  p :     0.249964
      px      :     0.078965
      py      :     0.068323
      dz2     :     0.017000  d :     0.060447
      dxz     :     0.018143
      dyz     :     0.017039
      dx2y2   :     0.005128
      dxy     :     0.003137
 29 H s       :     0.749224  s :     0.749224
      pz      :     0.090222  p :     0.250801
      px      :     0.077216
      py      :     0.083363
      dz2     :     0.015701  d :     0.061092
      dxz     :     0.015846
      dyz     :     0.016502
      dx2y2   :     0.007457
      dxy     :     0.005586
 30 H s       :     0.833588  s :     0.833588
      pz      :     0.053793  p :     0.149589
      px      :     0.042736
      py      :     0.053060
      dz2     :     0.007212  d :     0.028566
      dxz     :     0.004826
      dyz     :     0.006369
      dx2y2   :     0.004680
      dxy     :     0.005479
 31 H s       :     0.847583  s :     0.847583
      pz      :     0.046324  p :     0.159567
      px      :     0.069308
      py      :     0.043935
      dz2     :     0.004970  d :     0.028077
      dxz     :     0.008187
      dyz     :     0.001665
      dx2y2   :     0.006318
      dxy     :     0.006936
 32 H s       :     0.840844  s :     0.840844
      pz      :     0.071620  p :     0.151456
      px      :     0.032865
      py      :     0.046970
      dz2     :     0.008630  d :     0.026732
      dxz     :     0.006891
      dyz     :     0.007465
      dx2y2   :     0.001768
      dxy     :     0.001979
 33 H s       :     0.845509  s :     0.845509
      pz      :     0.044352  p :     0.157999
      px      :     0.063775
      py      :     0.049872
      dz2     :     0.004926  d :     0.027740
      dxz     :     0.007646
      dyz     :     0.002390
      dx2y2   :     0.006152
      dxy     :     0.006626
 34 H s       :     0.698492  s :     0.698492
      pz      :     0.115442  p :     0.346059
      px      :     0.099077
      py      :     0.131540
      dz2     :     0.017155  d :     0.098826
      dxz     :     0.018356
      dyz     :     0.017143
      dx2y2   :     0.026905
      dxy     :     0.019267
 35 H s       :     0.843770  s :     0.843770
      pz      :     0.073728  p :     0.162497
      px      :     0.035633
      py      :     0.053137
      dz2     :     0.009066  d :     0.028563
      dxz     :     0.007341
      dyz     :     0.007918
      dx2y2   :     0.002162
      dxy     :     0.002076


                      *****************************
                      * MAYER POPULATION ANALYSIS *
                      *****************************

  NA   - Mulliken gross atomic population
  ZA   - Total nuclear charge
  QA   - Mulliken gross atomic charge
  VA   - Mayer's total valence
  BVA  - Mayer's bonded valence
  FA   - Mayer's free valence

  ATOM       NA         ZA         QA         VA         BVA        FA
  0 C      6.2792     6.0000    -0.2792     3.8839     3.8839    -0.0000
  1 C      5.9562     6.0000     0.0438     3.8665     3.8665    -0.0000
  2 O      8.3336     8.0000    -0.3336     2.0851     2.0851     0.0000
  3 C      5.5712     6.0000     0.4288     4.2396     4.2396    -0.0000
  4 O      8.3858     8.0000    -0.3858     2.1280     2.1280     0.0000
  5 C      6.2044     6.0000    -0.2044     3.6081     3.6081    -0.0000
  6 C      5.8442     6.0000     0.1558     3.8339     3.8339    -0.0000
  7 C      6.2941     6.0000    -0.2941     3.8798     3.8798    -0.0000
  8 N      7.1186     7.0000    -0.1186     3.3140     3.3140     0.0000
  9 C      5.7875     6.0000     0.2125     4.1469     4.1469     0.0000
 10 S     16.4654    16.0000    -0.4654     1.7002     1.7002     0.0000
 11 N      7.1704     7.0000    -0.1704     3.2390     3.2390     0.0000
 12 C      5.9564     6.0000     0.0436     4.0136     4.0136     0.0000
 13 C      5.9224     6.0000     0.0776     3.7114     3.7114     0.0000
 14 C      6.1969     6.0000    -0.1969     3.8765     3.8765     0.0000
 15 C      6.1400     6.0000    -0.1400     3.8053     3.8053    -0.0000
 16 C      6.2562     6.0000    -0.2562     3.7935     3.7935     0.0000
 17 C      5.7099     6.0000     0.2901     3.9089     3.9089     0.0000
 18 O      8.3490     8.0000    -0.3490     2.1167     2.1167     0.0000
 19 C      6.2231     6.0000    -0.2231     3.8154     3.8154     0.0000
 20 H      0.8988     1.0000     0.1012     0.9844     0.9844     0.0000
 21 H      0.9087     1.0000     0.0913     0.9829     0.9829    -0.0000
 22 H      0.9002     1.0000     0.0998     0.9828     0.9828    -0.0000
 23 H      0.9031     1.0000     0.0969     0.9795     0.9795     0.0000
 24 H      0.9112     1.0000     0.0888     0.9825     0.9825    -0.0000
 25 H      0.8810     1.0000     0.1190     0.9824     0.9824     0.0000
 26 H      0.8618     1.0000     0.1382     0.9808     0.9808    -0.0000
 27 H      0.9003     1.0000     0.0997     0.9872     0.9872     0.0000
 28 H      0.8076     1.0000     0.1924     1.0214     1.0214     0.0000
 29 H      0.8051     1.0000     0.1949     1.0207     1.0207     0.0000
 30 H      0.8570     1.0000     0.1430     0.9848     0.9848     0.0000
 31 H      0.8643     1.0000     0.1357     0.9861     0.9861     0.0000
 32 H      0.8434     1.0000     0.1566     0.9768     0.9768    -0.0000
 33 H      0.8716     1.0000     0.1284     0.9894     0.9894     0.0000
 34 H      0.7584     1.0000     0.2416     1.0062     1.0062     0.0000
 35 H      0.8631     1.0000     0.1369     0.9999     0.9999    -0.0000

  Mayer bond orders larger than 0.100000
B(  0-C ,  1-C ) :   0.9594 B(  0-C , 20-H ) :   0.9748 B(  0-C , 21-H ) :   0.9831 
B(  0-C , 22-H ) :   0.9813 B(  1-C ,  2-O ) :   0.9178 B(  1-C , 23-H ) :   0.9737 
B(  1-C , 24-H ) :   0.9859 B(  2-O ,  3-C ) :   1.1707 B(  3-C ,  4-O ) :   2.0372 
B(  3-C ,  5-C ) :   1.0104 B(  5-C ,  6-C ) :   1.6702 B(  5-C , 12-C ) :   1.0060 
B(  6-C ,  7-C ) :   0.9331 B(  6-C ,  8-N ) :   1.1513 B(  7-C , 25-H ) :   0.9757 
B(  7-C , 26-H ) :   0.9616 B(  7-C , 27-H ) :   0.9954 B(  8-N ,  9-C ) :   1.2020 
B(  8-N , 28-H ) :   0.9511 B(  9-C , 10-S ) :   1.5589 B(  9-C , 11-N ) :   1.3279 
B( 11-N , 12-C ) :   0.9701 B( 11-N , 29-H ) :   0.9461 B( 12-C , 13-C ) :   0.9595 
B( 12-C , 30-H ) :   0.9999 B( 13-C , 14-C ) :   1.4165 B( 13-C , 19-C ) :   1.3024 
B( 14-C , 15-C ) :   1.3540 B( 14-C , 31-H ) :   0.9761 B( 15-C , 16-C ) :   1.4057 
B( 15-C , 32-H ) :   0.9725 B( 16-C , 17-C ) :   1.3013 B( 16-C , 33-H ) :   0.9847 
B( 17-C , 18-O ) :   1.1138 B( 17-C , 19-C ) :   1.4244 B( 18-O , 34-H ) :   0.9770 
B( 19-C , 35-H ) :   0.9600 

-------
TIMINGS
-------

Total SCF time: 0 days 1 hours 44 min 23 sec 

Total time                  ....    6263.076 sec
Sum of individual times     ....    6260.016 sec  (100.0%)

Fock matrix formation       ....    6248.182 sec  ( 99.8%)
Diagonalization             ....       1.357 sec  (  0.0%)
Density matrix formation    ....       0.173 sec  (  0.0%)
Population analysis         ....       0.179 sec  (  0.0%)
Initial guess               ....       5.654 sec  (  0.1%)
Orbital Transformation      ....       0.000 sec  (  0.0%)
Orbital Orthonormalization  ....       0.000 sec  (  0.0%)
DIIS solution               ....       1.345 sec  (  0.0%)
SOSCF solution              ....       1.737 sec  (  0.0%)

Maximum memory used throughout the entire SCF-calculation: 719.2 MB

------------------------------------------------------------------------------
                                ORCA  MP2 
------------------------------------------------------------------------------

Freezing NCore=48 chemical core electrons

-------------
RI-MP2 ENERGY
-------------
Dimension of the basis                    ...  828
Memory devoted to MP2                     ...  256 MB   
Data format for buffers                   ... DOUBLE
Compression type for matrix containers    ... UNCOMPRESSED
Overall scaling of the MP2 energy         ...   1.000e+00
Calculating two index integrals           ... done (    0.044 sec)
Cholesky decomposition of V**-1           ... done (    0.533 sec)

-----------------
RI-TRANSFORMATION (AUX index driven)
-----------------

Dimension of the orbital-basis         ... 828
Dimension of the aux-basis             ... 2141
Transformation of internal/external MOs...   24-  76 to   77- 827
Number Format for Storage              ... Double (8 Byte)
Integral mode                          ... Direct

First Phase: integral generation and transformation of MO indices
  Aux angular momentum 0               ... done (    4.919 sec)
  Aux angular momentum 1               ... done (    8.187 sec)
  Aux angular momentum 2               ... done (   10.599 sec)
  Aux angular momentum 3               ... done (    8.455 sec)
  Aux angular momentum 4               ... done (    2.894 sec)
Closing buffer VIA ( 0.63 GB; CompressionRatio= 1.00)
  Phase 1 completed in    35.223 sec
Second Phase: sorting and transformation of aux index

IA-Transformation
Memory available                       ... 158 MB 
Max. # MO pairs treated in a batch     ... 11    
# of internal orbitals                 ... 53
# batches for internal orbitals        ... 5
Closing buffer IAV ( 0.63 GB; CompressionRatio= 1.00)
(ia|v) transformation done in    19.954 sec

  Phase 2 completed in    19.962 sec
RI-Integral transformation completed in    55.191 sec
Opening buffers                              ... done

Starting loop over batches of integrals:

Operator 0  - window                       ... ( 24- 76)x( 77-827)
Operator 0  - Memory available             ...   256 MB
Operator 0  - Memory needed per MO         ...  12.3 MB
Operator 0  - Number of orbitals per batch ... 13
Operator 0  - Number of batches            ... 5

OPERATOR  0   PASS   0:  MOs    24 ...   36
  Reading integrals       ... ok
  Internal MO  26
  Internal MO  29
  Internal MO  32
  Internal MO  35
OPERATOR  0   PASS   1:  MOs    37 ...   49
  Reading integrals       ... ok
  Internal MO  38
  Internal MO  41
  Internal MO  44
  Internal MO  47
OPERATOR  0   PASS   2:  MOs    50 ...   62
  Reading integrals       ... ok
  Internal MO  50
  Internal MO  53
  Internal MO  56
  Internal MO  59
  Internal MO  62
OPERATOR  0   PASS   3:  MOs    63 ...   75
  Reading integrals       ... ok
  Internal MO  65
  Internal MO  68
  Internal MO  71
  Internal MO  74
OPERATOR  0   PASS   4:  MOs    76 ...   76
  Reading integrals       ... ok
Time spent in pair loops =    88.413 sec
Deleting buffer (Ka|jb)[aa] ...done

-----------------------------------------------
 RI-MP2 CORRELATION ENERGY:     -3.530796659 Eh
-----------------------------------------------


-------
TIMINGS
-------

Total time                :  144.274 sec
Integral trafo            :   55.210 sec ( 38.3%)
I/O of integrals          :    0.866 sec (  0.6%)
K(i,j) Operators          :   60.523 sec ( 41.9%)
T(i,j) pair energies      :    8.675 sec (  6.0%)
V-calculation             :    0.044 sec (  0.0%)
V**(-1/2)                 :    0.533 sec (  0.4%)
Gamma(ia|P)               :    0.000 sec (  0.0%)
Gamma-Trafo               :    0.000 sec (  0.0%)
D(virtual)                :    0.000 sec (  0.0%)
D(internal)               :    0.000 sec (  0.0%)
W(virtual)                :    0.000 sec (  0.0%)
W(internal)               :    0.000 sec (  0.0%)
L(virtual)                :    0.000 sec (  0.0%)
L(internal)               :    0.000 sec (  0.0%)
G(D)                      :    0.000 sec (  0.0%)
G(Z)                      :    0.000 sec (  0.0%)
Z-Vector Solution         :    0.000 sec (  0.0%)
3-Index Derivative        :    0.000 sec (  0.0%)
2-Index Derivative        :    0.000 sec (  0.0%)
Separable Gradient        :    0.000 sec (  0.0%)


---------------------------------------
MP2 TOTAL ENERGY:    -1274.306057996 Eh
---------------------------------------

Maximum memory used throughout the entire MP2-calculation: 302.8 MB

-------------------------   --------------------
FINAL SINGLE POINT ENERGY     -1274.306057995751
-------------------------   --------------------


                            ***************************************
                            *     ORCA property calculations      *
                            ***************************************


  WARNING: The energy has been calculated at the MP2 level but the densities
           used in the property calculations are still SCF densities
           MP2 response densities have not been calculated 
           use %mp2 Density relaxed end
           or  %mp2 Density unrelaxed end

                                    ---------------------
                                    Active property flags
                                    ---------------------
   (+) Dipole Moment


------------------------------------------------------------------------------
                       ORCA ELECTRIC PROPERTIES CALCULATION
------------------------------------------------------------------------------

Dipole Moment Calculation                       ... on
Quadrupole Moment Calculation                   ... off
Polarizability Calculation                      ... off
GBWName                                         ... qm_input.vacu.gbw
Electron density file                           ... qm_input.vacu.scfp
The origin for moment calculation is the CENTER OF MASS  = (-1.600965,  2.910438  7.238741)

-------------
DIPOLE MOMENT
-------------
                                X             Y             Z
Electronic contribution:      4.62503      13.94676       7.32114
Nuclear contribution   :     -5.77386     -15.25466      -8.01461
                        -----------------------------------------
Total Dipole Moment    :     -1.14883      -1.30790      -0.69347
                        -----------------------------------------
Magnitude (a.u.)       :      1.87385
Magnitude (Debye)      :      4.76295



--------------------
Rotational spectrum 
--------------------
 
Rotational constants in cm-1:     0.010256     0.008952     0.005643 
Rotational constants in MHz :   307.470383   268.376523   169.176593 

 Dipole components along the rotational axes: 
x,y,z [a.u.] :    -1.133217    -1.390118    -0.542875 
x,y,z [Debye]:    -2.880409    -3.533399    -1.379880 

 

Timings for individual modules:

Sum of individual times         ...     6409.566 sec (= 106.826 min)
GTO integral calculation        ...        1.779 sec (=   0.030 min)   0.0 %
SCF iterations                  ...     6263.133 sec (= 104.386 min)  97.7 %
MP2 module                      ...      144.655 sec (=   2.411 min)   2.3 %
                             ****ORCA TERMINATED NORMALLY****
TOTAL RUN TIME: 0 days 1 hours 46 minutes 50 seconds 772 msec
