
                                 *****************
                                 * O   R   C   A *
                                 *****************

           --- An Ab Initio, DFT and Semiempirical electronic structure package ---

                  #######################################################
                  #                        -***-                        #
                  #          Department of theory and spectroscopy      #
                  #               Directorship: Frank Neese             #
                  #        Max Planck Institute fuer Kohlenforschung    #
                  #                Kaiser Wilhelm Platz 1               #
                  #                 D-45470 Muelheim/Ruhr               #
                  #                      Germany                        #
                  #                                                     #
                  #                  All rights reserved                #
                  #                        -***-                        #
                  #######################################################


                         Program Version 4.2.0 -  RELEASE  -


 With contributions from (in alphabetic order):
   Daniel Aravena         : Magnetic Suceptibility
   Michael Atanasov       : Ab Initio Ligand Field Theory (pilot matlab implementation)
   Alexander A. Auer      : GIAO ZORA, VPT2
   Ute Becker             : Parallelization
   Giovanni Bistoni       : ED, misc. LED, open-shell LED, HFLED
   Martin Brehm           : Molecular dynamics
   Dmytro Bykov           : SCF Hessian
   Vijay G. Chilkuri      : MRCI spin determinant printing, contributions to CSF-ICE
   Dipayan Datta          : RHF DLPNO-CCSD density
   Achintya Kumar Dutta   : EOM-CC, STEOM-CC
   Dmitry Ganyushin       : Spin-Orbit,Spin-Spin,Magnetic field MRCI
   Miquel Garcia          : C-PCM Hessian, Gaussian charge scheme
   Yang Guo               : DLPNO-NEVPT2, CIM, IAO-localization
   Andreas Hansen         : Spin unrestricted coupled pair/coupled cluster methods
   Benjamin Helmich-Paris : CASSCF linear response (MC-RPA)
   Lee Huntington         : MR-EOM, pCC
   Robert Izsak           : Overlap fitted RIJCOSX, COSX-SCS-MP3, EOM
   Christian Kollmar      : KDIIS, OOCD, Brueckner-CCSD(T), CCSD density
   Simone Kossmann        : Meta GGA functionals, TD-DFT gradient, OOMP2, MP2 Hessian
   Martin Krupicka        : AUTO-CI
   Lucas Lang             : DCDCAS
   Dagmar Lenk            : GEPOL surface, SMD
   Dimitrios Liakos       : Extrapolation schemes; Compound Job, initial MDCI parallelization
   Dimitrios Manganas     : Further ROCIS development; embedding schemes
   Dimitrios Pantazis     : SARC Basis sets
   Taras Petrenko         : DFT Hessian,TD-DFT gradient, ASA, ECA, R-Raman, ABS, FL, XAS/XES, NRVS
   Peter Pinski           : DLPNO-MP2, DLPNO-MP2 Gradient
   Christoph Reimann      : Effective Core Potentials
   Marius Retegan         : Local ZFS, SOC
   Christoph Riplinger    : Optimizer, TS searches, QM/MM, DLPNO-CCSD(T), (RO)-DLPNO pert. Triples
   Tobias Risthaus        : Range-separated hybrids, TD-DFT gradient, RPA, STAB
   Michael Roemelt        : Original ROCIS implementation
   Masaaki Saitow         : Open-shell DLPNO-CCSD energy and density
   Barbara Sandhoefer     : DKH picture change effects
   Avijit Sen             : IP-ROCIS
   Kantharuban Sivalingam : CASSCF convergence, NEVPT2, FIC-MRCI
   Bernardo de Souza      : ESD, SOC TD-DFT
   Georgi Stoychev        : AutoAux, RI-MP2 NMR
   Willem Van den Heuvel  : Paramagnetic NMR
   Boris Wezisla          : Elementary symmetry handling
   Frank Wennmohs         : Technical directorship


 We gratefully acknowledge several colleagues who have allowed us to
 interface, adapt or use parts of their codes:
   Stefan Grimme, W. Hujo, H. Kruse,             : VdW corrections, initial TS optimization,
                  C. Bannwarth                     DFT functionals, gCP, sTDA/sTD-DF
   Ed Valeev, F. Pavosevic, A. Kumar             : LibInt (2-el integral package), F12 methods
   Garnet Chan, S. Sharma, J. Yang, R. Olivares  : DMRG
   Ulf Ekstrom                                   : XCFun DFT Library
   Mihaly Kallay                                 : mrcc  (arbitrary order and MRCC methods)
   Andreas Klamt, Michael Diedenhofen            : otool_cosmo (COSMO solvation model)
   Jiri Pittner, Ondrej Demel                    : Mk-CCSD
   Frank Weinhold                                : gennbo (NPA and NBO analysis)
   Christopher J. Cramer and Donald G. Truhlar   : smd solvation model
   Lars Goerigk                                  : TD-DFT with DH, B97 family of functionals
   V. Asgeirsson, H. Jonsson                     : NEB implementation
   FAccTs GmbH                                   : IRC, NEB, NEB-TS, Multilevel, MM, QM/MM, CI optimization
   S Lehtola, MJT Oliveira, MAL Marques          : LibXC Library


 Your calculation uses the libint2 library for the computation of 2-el integrals
 For citations please refer to: http://libint.valeyev.net

 Your ORCA version has been built with support for libXC version: 4.2.3
 For citations please refer to: https://tddft.org/programs/libxc/

 This ORCA versions uses:
   CBLAS   interface :  Fast vector & matrix operations
   LAPACKE interface :  Fast linear algebra routines
   SCALAPACK package :  Parallel linear algebra routines


----- Orbital basis set information -----
Your calculation utilizes the basis: cc-pVTZ 
       H, B-Ne : Obtained from the ccRepo (grant-hill.group.shef.ac.uk/ccrepo) Feb. 2017
                 T. H. Dunning, Jr., J. Chem. Phys. 90, 1007 (1989)
            He : Obtained from the ccRepo (grant-hill.group.shef.ac.uk/ccrepo) Feb. 2017
                 D. E. Woon, T. H. Dunning, Jr., J. Chem. Phys. 100, 2975 (1994)
  Li-Be, Na-Mg : Obtained from the ccRepo (grant-hill.group.shef.ac.uk/ccrepo) Feb. 2017
                 B. P. Prascher, D. E. Woon, K. A. Peterson, T. H. Dunning, Jr., A. K. Wilson, Theor. Chem. Acc. 128, 69 (2011)
         Al-Ar : Obtained from the ccRepo (grant-hill.group.shef.ac.uk/ccrepo) Feb. 2017
                 D. E. Woon, T. H. Dunning, Jr., J. Chem. Phys. 98, 1358 (1993)
            Ca : Obtained from the Peterson Research Group Website (tyr0.chem.wsu.edu/~kipeters) Feb. 2017
                 J. Koput, K. A. Peterson, J. Phys. Chem. 106, 9595 (2002)
         Sc-Zn : Obtained from the ccRepo (grant-hill.group.shef.ac.uk/ccrepo) Feb. 2017
                 N. B. Balabanov, K. A. Peterson, J. Chem. Phys. 123, 064107 (2005)
                 N. B. Balabanov, K. A. Peterson, J. Chem. Phys. 125, 074110 (2006)
         Ga-Kr : Obtained from the ccRepo (grant-hill.group.shef.ac.uk/ccrepo) Feb. 2017
                 A. K. Wilson, D. E. Woon, K. A. Peterson, T. H. Dunning, Jr., J. Chem. Phys. 110, 7667 (1999)
             Y : Obtained from the ccRepo (grant-hill.group.shef.ac.uk/ccrepo) Feb. 2017
                 K. A. Peterson, D. Figgen, M. Dolg, H. Stoll, J. Chem. Phys. 126, 124101 (2007)
        Ag, Au : Obtained from the Peterson Research Group Website (tyr0.chem.wsu.edu/~kipeters) Feb. 2017
                 K. A. Peterson, C. Puzzarini, Theor. Chem. Acc. 114, 283 (2005)

----- AuxC basis set information -----
Your calculation utilizes the auxiliary basis: cc-pVTZ/C 
  Obtained from the EMSL Basis Set Exchange (bse.pnl.gov) Feb. 2017
  H-He, B-F, Al-Ar, Ga-Kr : F. Weigend, A. Kohn, C. Hattig, J. Chem. Phys. 116, 3175 (2002)
             Li-Be, Na-Mg : C. Haettig, Phys. Chem. Chem. Phys. 7, 59 (2005)
                       Ne : C. Haettig, Phys. Chem. Chem. Phys. 7, 59 (2005)
                            F. Weigend, A. Kohn, C. Hattig, J. Chem. Phys. 116, 3175 (2002)
                    Sc-Zn : J. G. Hill, J. A. Platts, J. Chem. Phys. 128, 044104 (2008)

================================================================================
                                        WARNINGS
                       Please study these warnings very carefully!
================================================================================


WARNING: No MP2 level density has been requested!
         To caclulate MP2 level properties use
         %mp2 Density relaxed end
         or
         %mp2 Density unrelaxed end

WARNING: Post HF methods need fully converged wavefunctions
  ===> : Setting SCFConvForced true
         You can overwrite this default with %scf ConvForced false 


INFO   : the flag for use of LIBINT has been found!

================================================================================
                                       INPUT FILE
================================================================================
NAME = G2_CONFS/Conf373.orca
|  1> ! ri-mp2 cc-pvtz cc-pvtz/c TightSCF  NoKeepInts
|  2> 
|  3> %scf
|  4>   MaxCore 4096
|  5> end
|  6> *xyz  0  1
|  7>     C       15.6474012   14.7051939   14.0811964
|  8>     C       15.1792911   14.7217927   15.5548976
|  9>     O       15.8506843   15.6828746   16.3984779
| 10>     C       17.0732903   15.4515220   16.9569425
| 11>     O       17.5097955   14.3205115   17.1030602
| 12>     C       17.5672305   16.5951258   17.7929560
| 13>     C       17.2987404   17.9074912   17.5271511
| 14>     C       16.4929676   18.4631228   16.3605432
| 15>     N       18.0709458   18.9133574   18.1265931
| 16>     C       19.0996710   18.7052831   19.0094036
| 17>     S       19.9829225   19.9738089   19.6087159
| 18>     N       19.3393122   17.3991860   19.3830401
| 19>     C       18.6739151   16.2087340   18.7828624
| 20>     C       17.8701573   15.8263293   20.0858527
| 21>     C       17.9174818   14.4507954   20.4694424
| 22>     C       17.1982895   13.9286121   21.5594920
| 23>     C       16.3781943   14.7767254   22.3088959
| 24>     C       16.2797104   16.1266325   21.9439398
| 25>     O       15.4659209   16.9375131   22.6686729
| 26>     C       17.0005153   16.6458195   20.8469009
| 27>     H       15.3988424   15.6731246   13.6239845
| 28>     H       15.0663041   13.9532670   13.5253517
| 29>     H       16.7128378   14.5032872   13.9343613
| 30>     H       14.1005704   14.8659455   15.6310811
| 31>     H       15.4070128   13.7205580   15.9527466
| 32>     H       16.7992473   18.0202358   15.4008716
| 33>     H       16.5956037   19.5507434   16.2412181
| 34>     H       15.4297512   18.2501934   16.5040194
| 35>     H       17.9303015   19.8762942   17.8545500
| 36>     H       20.1110039   17.2883077   20.0271707
| 37>     H       19.1324084   15.2221385   18.7063727
| 38>     H       18.5070338   13.7370170   19.8965713
| 39>     H       17.2708191   12.8693207   21.8148589
| 40>     H       15.8205149   14.3804349   23.1553138
| 41>     H       15.0980976   16.4119656   23.3981031
| 42>     H       16.8702136   17.6887354   20.5983930
| 43> *
| 44> 
| 45>                          ****END OF INPUT****
================================================================================

                       ****************************
                       * Single Point Calculation *
                       ****************************

---------------------------------
CARTESIAN COORDINATES (ANGSTROEM)
---------------------------------
  C     15.647401   14.705194   14.081196
  C     15.179291   14.721793   15.554898
  O     15.850684   15.682875   16.398478
  C     17.073290   15.451522   16.956943
  O     17.509795   14.320511   17.103060
  C     17.567230   16.595126   17.792956
  C     17.298740   17.907491   17.527151
  C     16.492968   18.463123   16.360543
  N     18.070946   18.913357   18.126593
  C     19.099671   18.705283   19.009404
  S     19.982923   19.973809   19.608716
  N     19.339312   17.399186   19.383040
  C     18.673915   16.208734   18.782862
  C     17.870157   15.826329   20.085853
  C     17.917482   14.450795   20.469442
  C     17.198290   13.928612   21.559492
  C     16.378194   14.776725   22.308896
  C     16.279710   16.126632   21.943940
  O     15.465921   16.937513   22.668673
  C     17.000515   16.645820   20.846901
  H     15.398842   15.673125   13.623985
  H     15.066304   13.953267   13.525352
  H     16.712838   14.503287   13.934361
  H     14.100570   14.865946   15.631081
  H     15.407013   13.720558   15.952747
  H     16.799247   18.020236   15.400872
  H     16.595604   19.550743   16.241218
  H     15.429751   18.250193   16.504019
  H     17.930301   19.876294   17.854550
  H     20.111004   17.288308   20.027171
  H     19.132408   15.222138   18.706373
  H     18.507034   13.737017   19.896571
  H     17.270819   12.869321   21.814859
  H     15.820515   14.380435   23.155314
  H     15.098098   16.411966   23.398103
  H     16.870214   17.688735   20.598393

----------------------------
CARTESIAN COORDINATES (A.U.)
----------------------------
  NO LB      ZA    FRAG     MASS         X           Y           Z
   0 C     6.0000    0    12.011   29.569303   27.788789   26.609605
   1 C     6.0000    0    12.011   28.684703   27.820156   29.394497
   2 O     8.0000    0    15.999   29.953452   29.636338   30.988632
   3 C     6.0000    0    12.011   32.263843   29.199145   32.043977
   4 O     8.0000    0    15.999   33.088718   27.061845   32.320100
   5 C     6.0000    0    12.011   33.197255   31.360243   33.623814
   6 C     6.0000    0    12.011   32.689882   33.840254   33.121515
   7 C     6.0000    0    12.011   31.167192   34.890246   30.916946
   8 N     7.0000    0    14.007   34.149139   35.741066   34.254297
   9 C     6.0000    0    12.011   36.093147   35.347862   35.922567
  10 S    16.0000    0    32.060   37.762251   37.745029   37.055103
  11 N     7.0000    0    14.007   36.546004   32.879696   36.628637
  12 C     6.0000    0    12.011   35.288585   30.630068   35.494466
  13 C     6.0000    0    12.011   33.769703   29.907428   37.956761
  14 C     6.0000    0    12.011   33.859134   27.308046   38.681640
  15 C     6.0000    0    12.011   32.500057   26.321262   40.741535
  16 C     6.0000    0    12.011   30.950302   27.923964   42.157704
  17 C     6.0000    0    12.011   30.764194   30.474919   41.468037
  18 O     8.0000    0    15.999   29.226355   32.007261   42.837584
  19 C     6.0000    0    12.011   32.126318   31.456040   39.394933
  20 H     1.0000    0     1.008   29.099595   29.617913   25.745600
  21 H     1.0000    0     1.008   28.471189   26.367853   25.559211
  22 H     1.0000    0     1.008   31.582686   27.407241   26.332127
  23 H     1.0000    0     1.008   26.646216   28.092566   29.538462
  24 H     1.0000    0     1.008   29.115035   25.928097   30.146322
  25 H     1.0000    0     1.008   31.745977   34.053311   29.103430
  26 H     1.0000    0     1.008   31.361146   36.945551   30.691454
  27 H     1.0000    0     1.008   29.158004   34.487867   31.188077
  28 H     1.0000    0     1.008   33.883359   37.560753   33.740210
  29 H     1.0000    0     1.008   38.004290   32.670167   37.845868
  30 H     1.0000    0     1.008   36.155012   28.765673   35.349921
  31 H     1.0000    0     1.008   34.973225   25.959200   37.599071
  32 H     1.0000    0     1.008   32.637118   24.319492   41.224109
  33 H     1.0000    0     1.008   29.896440   27.175084   43.757202
  34 H     1.0000    0     1.008   28.531270   31.014120   44.216007
  35 H     1.0000    0     1.008   31.880084   33.426866   38.925322

--------------------------------
INTERNAL COORDINATES (ANGSTROEM)
--------------------------------
 C      0   0   0     0.000000000000     0.00000000     0.00000000
 C      1   0   0     1.546349835181     0.00000000     0.00000000
 O      2   1   0     1.444325091543   115.02726356     0.00000000
 C      3   2   1     1.363881287435   122.88674991   278.51469124
 O      4   3   2     1.221094559398   121.77291169   338.93119788
 C      4   3   2     1.500241695439   113.20419287   179.99999809
 C      6   4   3     1.365665450167   124.01016414   327.04921769
 C      7   6   4     1.522816559038   127.13999385   358.96590833
 N      7   6   4     1.402639905127   119.84923164   196.96983102
 C      9   7   6     1.371468129541   125.39768687   358.78077734
 S     10   9   7     1.657849857632   121.07995747   177.54094728
 N     10   9   7     1.379464306714   116.63485302   356.47131313
 C     12  10   9     1.490014273948   124.73498712     7.40008813
 C     13  12  10     1.577987223502    95.07593802   247.42800212
 C     14  13  12     1.428801657437   115.98365252   227.27788452
 C     15  14  13     1.406456929180   123.26894622   183.65255855
 C     16  15  14     1.397661801737   119.36080980     0.77753462
 C     17  16  15     1.401834944677   119.07551145     0.79964006
 O     18  17  16     1.358314677828   118.55785126   179.13583007
 C     18  17  16     1.411598098945   121.37454031   359.35720195
 H      1   2   3     1.098960435394   108.57659925   295.71862993
 H      1   2   3     1.100922900611   109.19095377   180.82386239
 H      1   2   3     1.094295211868   115.12503327    58.30123931
 H      2   1   3     1.090973099590   111.54846184   125.24135036
 H      2   1   3     1.101186598146   105.78070703   241.73422233
 H      8   7   6     1.100420705570   111.96105542   312.29639860
 H      8   7   6     1.098950052576   113.25808706   192.35290491
 H      8   7   6     1.093779439640   110.04915686    72.23496095
 H      9   7   6     1.010463036521   119.45289267   173.78543990
 H     12  10   9     1.011289427966   114.13515695   179.42693329
 H     13  12  10     1.090613341644   124.28188249   150.26287580
 H     15  14  13     1.088683821054   120.52122899     1.88030305
 H     16  15  14     1.092049022071   120.49159504   180.22774942
 H     17  16  15     1.088336223331   119.78263168   180.15125873
 H     19  18  17     0.971371489931   107.73040144     2.99156989
 H     20  18  17     1.080003835113   118.18936702   178.72607248

---------------------------
INTERNAL COORDINATES (A.U.)
---------------------------
 C      0   0   0     0.000000000000     0.00000000     0.00000000
 C      1   0   0     2.922177695727     0.00000000     0.00000000
 O      2   1   0     2.729378871368   115.02726356     0.00000000
 C      3   2   1     2.577362112432   122.88674991   278.51469124
 O      4   3   2     2.307534300883   121.77291169   338.93119788
 C      4   3   2     2.835045939069   113.20419287   179.99999809
 C      6   4   3     2.580733691373   124.01016414   327.04921769
 C      7   6   4     2.877706248782   127.13999385   358.96590833
 N      7   6   4     2.650605285200   119.84923164   196.96983102
 C      9   7   6     2.591699166233   125.39768687   358.78077734
 S     10   9   7     3.132882202084   121.07995747   177.54094728
 N     10   9   7     2.606809751209   116.63485302   356.47131313
 C     12  10   9     2.815718913396   124.73498712     7.40008813
 C     13  12  10     2.981963695246    95.07593802   247.42800212
 C     14  13  12     2.700043832249   115.98365252   227.27788452
 C     15  14  13     2.657818415306   123.26894622   183.65255855
 C     16  15  14     2.641198033126   119.36080980     0.77753462
 C     17  16  15     2.649084130400   119.07551145     0.79964006
 O     18  17  16     2.566842744780   118.55785126   179.13583007
 C     18  17  16     2.667533818171   121.37454031   359.35720195
 H      1   2   3     2.076734254910   108.57659925   295.71862993
 H      1   2   3     2.080442776717   109.19095377   180.82386239
 H      1   2   3     2.067918260091   115.12503327    58.30123931
 H      2   1   3     2.061640377700   111.54846184   125.24135036
 H      2   1   3     2.080941092840   105.78070703   241.73422233
 H      8   7   6     2.079493765624   111.96105542   312.29639860
 H      8   7   6     2.076714634228   113.25808706   192.35290491
 H      8   7   6     2.066943591834   110.04915686    72.23496095
 H      9   7   6     1.909498407474   119.45289267   173.78543990
 H     12  10   9     1.911060060986   114.13515695   179.42693329
 H     13  12  10     2.060960533707   124.28188249   150.26287580
 H     15  14  13     2.057314268224   120.52122899     1.88030305
 H     16  15  14     2.063673576530   120.49159504   180.22774942
 H     17  16  15     2.056657403722   119.78263168   180.15125873
 H     19  18  17     1.835626090269   107.73040144     2.99156989
 H     20  18  17     2.040911471948   118.18936702   178.72607248

---------------------
BASIS SET INFORMATION
---------------------
There are 5 groups of distinct atoms

 Group   1 Type C   : 18s5p2d1f contracted to 4s3p2d1f pattern {8811/311/11/1}
 Group   2 Type O   : 18s5p2d1f contracted to 4s3p2d1f pattern {8811/311/11/1}
 Group   3 Type N   : 18s5p2d1f contracted to 4s3p2d1f pattern {8811/311/11/1}
 Group   4 Type S   : 41s16p2d1f contracted to 5s4p2d1f pattern {13131311/7711/11/1}
 Group   5 Type H   : 5s2p1d contracted to 3s2p1d pattern {311/11/1}

Atom   0C    basis set group =>   1
Atom   1C    basis set group =>   1
Atom   2O    basis set group =>   2
Atom   3C    basis set group =>   1
Atom   4O    basis set group =>   2
Atom   5C    basis set group =>   1
Atom   6C    basis set group =>   1
Atom   7C    basis set group =>   1
Atom   8N    basis set group =>   3
Atom   9C    basis set group =>   1
Atom  10S    basis set group =>   4
Atom  11N    basis set group =>   3
Atom  12C    basis set group =>   1
Atom  13C    basis set group =>   1
Atom  14C    basis set group =>   1
Atom  15C    basis set group =>   1
Atom  16C    basis set group =>   1
Atom  17C    basis set group =>   1
Atom  18O    basis set group =>   2
Atom  19C    basis set group =>   1
Atom  20H    basis set group =>   5
Atom  21H    basis set group =>   5
Atom  22H    basis set group =>   5
Atom  23H    basis set group =>   5
Atom  24H    basis set group =>   5
Atom  25H    basis set group =>   5
Atom  26H    basis set group =>   5
Atom  27H    basis set group =>   5
Atom  28H    basis set group =>   5
Atom  29H    basis set group =>   5
Atom  30H    basis set group =>   5
Atom  31H    basis set group =>   5
Atom  32H    basis set group =>   5
Atom  33H    basis set group =>   5
Atom  34H    basis set group =>   5
Atom  35H    basis set group =>   5
---------------------------------
AUXILIARY/C BASIS SET INFORMATION
---------------------------------
There are 5 groups of distinct atoms

 Group   1 Type C   : 8s6p5d3f1g contracted to 8s6p5d3f1g pattern {11111111/111111/11111/111/1}
 Group   2 Type O   : 8s6p5d3f1g contracted to 8s6p5d3f1g pattern {11111111/111111/11111/111/1}
 Group   3 Type N   : 8s6p5d3f1g contracted to 8s6p5d3f1g pattern {11111111/111111/11111/111/1}
 Group   4 Type S   : 10s8p7d5f2g contracted to 10s8p7d5f2g pattern {1111111111/11111111/1111111/11111/11}
 Group   5 Type H   : 4s3p2d1f contracted to 4s3p2d1f pattern {1111/111/11/1}

Atom   0C    basis set group =>   1
Atom   1C    basis set group =>   1
Atom   2O    basis set group =>   2
Atom   3C    basis set group =>   1
Atom   4O    basis set group =>   2
Atom   5C    basis set group =>   1
Atom   6C    basis set group =>   1
Atom   7C    basis set group =>   1
Atom   8N    basis set group =>   3
Atom   9C    basis set group =>   1
Atom  10S    basis set group =>   4
Atom  11N    basis set group =>   3
Atom  12C    basis set group =>   1
Atom  13C    basis set group =>   1
Atom  14C    basis set group =>   1
Atom  15C    basis set group =>   1
Atom  16C    basis set group =>   1
Atom  17C    basis set group =>   1
Atom  18O    basis set group =>   2
Atom  19C    basis set group =>   1
Atom  20H    basis set group =>   5
Atom  21H    basis set group =>   5
Atom  22H    basis set group =>   5
Atom  23H    basis set group =>   5
Atom  24H    basis set group =>   5
Atom  25H    basis set group =>   5
Atom  26H    basis set group =>   5
Atom  27H    basis set group =>   5
Atom  28H    basis set group =>   5
Atom  29H    basis set group =>   5
Atom  30H    basis set group =>   5
Atom  31H    basis set group =>   5
Atom  32H    basis set group =>   5
Atom  33H    basis set group =>   5
Atom  34H    basis set group =>   5
Atom  35H    basis set group =>   5
------------------------------------------------------------------------------
                           ORCA GTO INTEGRAL CALCULATION
------------------------------------------------------------------------------

                         BASIS SET STATISTICS AND STARTUP INFO

 # of primitive gaussian shells          ...  682
 # of primitive gaussian functions       ... 1312
 # of contracted shells                  ...  298
 # of contracted basis functions         ...  828
 Highest angular momentum                ...    3
 Maximum contraction depth               ...   13
 Integral package used                   ... LIBINT
 Integral threshhold            Thresh   ...  2.500e-11
 Primitive cut-off              TCut     ...  2.500e-12


------------------------------ INTEGRAL EVALUATION ----------------------------


 * One electron integrals 
 Pre-screening matrix                    ... done
 Shell pair data                         ... done (   0.013 sec)

-------------------------------------------------------------------------------
                                 ORCA SCF
-------------------------------------------------------------------------------

------------
SCF SETTINGS
------------
Hamiltonian:
 Ab initio Hamiltonian  Method          .... Hartree-Fock(GTOs)


General Settings:
 Integral files         IntName         .... G2_CONFS/Conf373.orca
 Hartree-Fock type      HFTyp           .... RHF
 Total Charge           Charge          ....    0
 Multiplicity           Mult            ....    1
 Number of Electrons    NEL             ....  154
 Basis Dimension        Dim             ....  828
 Nuclear Repulsion      ENuc            ....   1682.9106630400 Eh

Convergence Acceleration:
 DIIS                   CNVDIIS         .... on
   Start iteration      DIISMaxIt       ....    12
   Startup error        DIISStart       ....  0.200000
   # of expansion vecs  DIISMaxEq       ....     5
   Bias factor          DIISBfac        ....   1.050
   Max. coefficient     DIISMaxC        ....  10.000
 Newton-Raphson         CNVNR           .... off
 SOSCF                  CNVSOSCF        .... on
   Start iteration      SOSCFMaxIt      ....   150
   Startup grad/error   SOSCFStart      ....  0.003300
 Level Shifting         CNVShift        .... on
   Level shift para.    LevelShift      ....    0.2500
   Turn off err/grad.   ShiftErr        ....    0.0010
 Zerner damping         CNVZerner       .... off
 Static damping         CNVDamp         .... on
   Fraction old density DampFac         ....    0.7000
   Max. Damping (<1)    DampMax         ....    0.9800
   Min. Damping (>=0)   DampMin         ....    0.0000
   Turn off err/grad.   DampErr         ....    0.1000
 Fernandez-Rico         CNVRico         .... off

SCF Procedure:
 Maximum # iterations   MaxIter         ....   125
 SCF integral mode      SCFMode         .... Direct
   Integral package                     .... LIBINT
 Reset frequency        DirectResetFreq ....    20
 Integral Threshold     Thresh          ....  2.500e-11 Eh
 Primitive CutOff       TCut            ....  2.500e-12 Eh

Convergence Tolerance:
 Convergence Check Mode ConvCheckMode   .... Total+1el-Energy
 Convergence forced     ConvForced      .... 1
 Energy Change          TolE            ....  1.000e-08 Eh
 1-El. energy change                    ....  1.000e-05 Eh
 Orbital Gradient       TolG            ....  1.000e-05
 Orbital Rotation angle TolX            ....  1.000e-05
 DIIS Error             TolErr          ....  5.000e-07


Diagonalization of the overlap matrix:
Smallest eigenvalue                        ... 3.462e-05
Time for diagonalization                   ...    0.108 sec
Threshold for overlap eigenvalues          ... 1.000e-08
Number of eigenvalues below threshold      ... 0
Time for construction of square roots      ...    0.060 sec
Total time needed                          ...    0.171 sec

-------------------
DFT GRID GENERATION
-------------------

General Integration Accuracy     IntAcc      ...  4.340
Radial Grid Type                 RadialGrid  ... Gauss-Chebyshev
Angular Grid (max. acc.)         AngularGrid ... Lebedev-110
Angular grid pruning method      GridPruning ... 3 (G Style)
Weight generation scheme         WeightScheme... Becke
Basis function cutoff            BFCut       ...    1.0000e-11
Integration weight cutoff        WCut        ...    1.0000e-14
Grids for H and He will be reduced by one unit

# of grid points (after initial pruning)     ...  46246 (   0.0 sec)
# of grid points (after weights+screening)   ...  41410 (   0.3 sec)
nearest neighbour list constructed           ...    0.0 sec
Grid point re-assignment to atoms done       ...    0.0 sec
Grid point division into batches done        ...    0.0 sec
Reduced shell lists constructed in    0.9 sec

Total number of grid points                  ...    41410
Total number of batches                      ...      663
Average number of points per batch           ...       62
Average number of grid points per atom       ...     1150
Average number of shells per batch           ...   143.52 (48.16%)
Average number of basis functions per batch  ...   365.16 (44.10%)
Average number of large shells per batch     ...    91.97 (64.08%)
Average number of large basis fcns per batch ...   237.78 (65.12%)
Maximum spatial batch extension              ...  22.36, 20.17, 20.74 au
Average spatial batch extension              ...   3.59,  3.32,  3.41 au

Time for grid setup =    1.223 sec

------------------------------
INITIAL GUESS: MODEL POTENTIAL
------------------------------
Loading Hartree-Fock densities                     ... done
Calculating cut-offs                               ... done
Setting up the integral package                    ... done
Initializing the effective Hamiltonian             ... done
Starting the Coulomb interaction                   ... done (   2.9 sec)
Reading the grid                                   ... done
Mapping shells                                     ... done
Starting the XC term evaluation                    ... done (   1.2 sec)
Transforming the Hamiltonian                       ... done (   0.0 sec)
Diagonalizing the Hamiltonian                      ... done (   0.1 sec)
Back transforming the eigenvectors                 ... done (   0.0 sec)
Now organizing SCF variables                       ... done
                      ------------------
                      INITIAL GUESS DONE (   5.8 sec)
                      ------------------
--------------
SCF ITERATIONS
--------------
ITER       Energy         Delta-E        Max-DP      RMS-DP      [F,P]     Damp
               ***  Starting incremental Fock matrix formation  ***
  0  -1269.9518150897   0.000000000000 0.04935196  0.00043663  0.3172094 0.7000
  1  -1270.2198733058  -0.268058216106 0.03610589  0.00035212  0.1860963 0.7000
                               ***Turning on DIIS***
  2  -1270.3866962495  -0.166822943650 0.02585373  0.00023548  0.1098135 0.7000
  3  -1272.5016651582  -2.114968908672 0.06315778  0.00050671  0.0830356 0.0000
  4  -1270.6982368720   1.803428286122 0.00722213  0.00009742  0.0071352 0.0000
  5  -1270.7600968772  -0.061860005132 0.00411434  0.00005124  0.0037383 0.0000
                      *** Initiating the SOSCF procedure ***
                           *** Shutting down DIIS ***
                      *** Re-Reading the Fockian *** 
                      *** Removing any level shift *** 
ITER      Energy       Delta-E        Grad      Rot      Max-DP    RMS-DP
  6  -1270.73475341   0.0253434695  0.001701  0.001701  0.001798  0.000026
               *** Restarting incremental Fock matrix formation ***
  7  -1270.74923085  -0.0144774434  0.000851  0.002087  0.001230  0.000017
  8  -1270.74928311  -0.0000522595  0.000369  0.002377  0.001387  0.000018
  9  -1270.74930318  -0.0000200743  0.000149  0.000419  0.000351  0.000005
 10  -1270.74930576  -0.0000025801  0.000048  0.000132  0.000145  0.000002
 11  -1270.74930603  -0.0000002653  0.000023  0.000141  0.000098  0.000001
 12  -1270.74930610  -0.0000000748  0.000009  0.000032  0.000029  0.000000
 13  -1270.74930611  -0.0000000029  0.000003  0.000008  0.000007  0.000000
                  ***Gradient check signals convergence***
              ***Rediagonalizing the Fockian in SOSCF/NRSCF***

               *****************************************************
               *                     SUCCESS                       *
               *           SCF CONVERGED AFTER  14 CYCLES          *
               *****************************************************


----------------
TOTAL SCF ENERGY
----------------

Total Energy       :        -1270.74930610 Eh          -34578.84657 eV

Components:
Nuclear Repulsion  :         1682.91066304 Eh           45794.32728 eV
Electronic Energy  :        -2953.65996914 Eh          -80373.17385 eV
One Electron Energy:        -5087.25102979 Eh         -138431.13822 eV
Two Electron Energy:         2133.59106065 Eh           58057.96437 eV

Virial components:
Potential Energy   :        -2539.45507602 Eh          -69102.08570 eV
Kinetic Energy     :         1268.70576992 Eh           34523.23913 eV
Virial Ratio       :            2.00161073


---------------
SCF CONVERGENCE
---------------

  Last Energy change         ...    8.5593e-09  Tolerance :   1.0000e-08
  Last MAX-Density change    ...    2.1955e-06  Tolerance :   1.0000e-07
  Last RMS-Density change    ...    3.3752e-08  Tolerance :   5.0000e-09
  Last Orbital Gradient      ...    1.0151e-06  Tolerance :   1.0000e-05
  Last Orbital Rotation      ...    3.5467e-06  Tolerance :   1.0000e-05

             **** THE GBW FILE WAS UPDATED (G2_CONFS/Conf373.orca.gbw) ****
             **** DENSITY FILE WAS UPDATED (G2_CONFS/Conf373.orca.scfp) ****
             **** ENERGY FILE WAS UPDATED (G2_CONFS/Conf373.orca.en.tmp) ****
             **** THE GBW FILE WAS UPDATED (G2_CONFS/Conf373.orca.gbw) ****
             **** DENSITY FILE WAS UPDATED (G2_CONFS/Conf373.orca.scfp) ****
----------------
ORBITAL ENERGIES
----------------

  NO   OCC          E(Eh)            E(eV) 
   0   2.0000     -91.890409     -2500.4652 
   1   2.0000     -20.603727      -560.6559 
   2   2.0000     -20.587030      -560.2016 
   3   2.0000     -20.547054      -559.1138 
   4   2.0000     -15.630500      -425.3275 
   5   2.0000     -15.611133      -424.8005 
   6   2.0000     -11.398090      -310.1578 
   7   2.0000     -11.385904      -309.8262 
   8   2.0000     -11.340531      -308.5915 
   9   2.0000     -11.314563      -307.8849 
  10   2.0000     -11.305729      -307.6445 
  11   2.0000     -11.302234      -307.5494 
  12   2.0000     -11.267563      -306.6060 
  13   2.0000     -11.262705      -306.4738 
  14   2.0000     -11.253851      -306.2329 
  15   2.0000     -11.242603      -305.9268 
  16   2.0000     -11.237760      -305.7950 
  17   2.0000     -11.230978      -305.6104 
  18   2.0000     -11.230839      -305.6067 
  19   2.0000     -11.224998      -305.4477 
  20   2.0000      -8.895243      -242.0519 
  21   2.0000      -6.576792      -178.9636 
  22   2.0000      -6.574807      -178.9096 
  23   2.0000      -6.574219      -178.8936 
  24   2.0000      -1.453357       -39.5479 
  25   2.0000      -1.405791       -38.2535 
  26   2.0000      -1.356907       -36.9233 
  27   2.0000      -1.338184       -36.4138 
  28   2.0000      -1.237334       -33.6696 
  29   2.0000      -1.145492       -31.1704 
  30   2.0000      -1.117838       -30.4179 
  31   2.0000      -1.043070       -28.3834 
  32   2.0000      -1.034875       -28.1604 
  33   2.0000      -1.003695       -27.3119 
  34   2.0000      -0.995130       -27.0789 
  35   2.0000      -0.981644       -26.7119 
  36   2.0000      -0.922390       -25.0995 
  37   2.0000      -0.899628       -24.4801 
  38   2.0000      -0.848281       -23.0829 
  39   2.0000      -0.829287       -22.5660 
  40   2.0000      -0.822196       -22.3731 
  41   2.0000      -0.813667       -22.1410 
  42   2.0000      -0.754870       -20.5410 
  43   2.0000      -0.734850       -19.9963 
  44   2.0000      -0.715789       -19.4776 
  45   2.0000      -0.692834       -18.8530 
  46   2.0000      -0.684406       -18.6236 
  47   2.0000      -0.678934       -18.4747 
  48   2.0000      -0.676397       -18.4057 
  49   2.0000      -0.659077       -17.9344 
  50   2.0000      -0.645950       -17.5772 
  51   2.0000      -0.642102       -17.4725 
  52   2.0000      -0.629608       -17.1325 
  53   2.0000      -0.617090       -16.7919 
  54   2.0000      -0.596638       -16.2353 
  55   2.0000      -0.593495       -16.1498 
  56   2.0000      -0.589066       -16.0293 
  57   2.0000      -0.582035       -15.8380 
  58   2.0000      -0.568623       -15.4730 
  59   2.0000      -0.565388       -15.3850 
  60   2.0000      -0.553853       -15.0711 
  61   2.0000      -0.548685       -14.9305 
  62   2.0000      -0.540117       -14.6973 
  63   2.0000      -0.539249       -14.6737 
  64   2.0000      -0.510958       -13.9039 
  65   2.0000      -0.507624       -13.8131 
  66   2.0000      -0.493621       -13.4321 
  67   2.0000      -0.492719       -13.4076 
  68   2.0000      -0.480029       -13.0623 
  69   2.0000      -0.462352       -12.5812 
  70   2.0000      -0.455166       -12.3857 
  71   2.0000      -0.451798       -12.2940 
  72   2.0000      -0.346129        -9.4187 
  73   2.0000      -0.341106        -9.2820 
  74   2.0000      -0.326981        -8.8976 
  75   2.0000      -0.312425        -8.5015 
  76   2.0000      -0.306454        -8.3390 
  77   0.0000       0.067062         1.8249 
  78   0.0000       0.117690         3.2025 
  79   0.0000       0.119550         3.2531 
  80   0.0000       0.136923         3.7259 
  81   0.0000       0.139708         3.8017 
  82   0.0000       0.144878         3.9423 
  83   0.0000       0.155426         4.2294 
  84   0.0000       0.161262         4.3882 
  85   0.0000       0.165478         4.5029 
  86   0.0000       0.167060         4.5459 
  87   0.0000       0.174152         4.7389 
  88   0.0000       0.190163         5.1746 
  89   0.0000       0.196168         5.3380 
  90   0.0000       0.206533         5.6200 
  91   0.0000       0.209985         5.7140 
  92   0.0000       0.216556         5.8928 
  93   0.0000       0.217342         5.9142 
  94   0.0000       0.222506         6.0547 
  95   0.0000       0.226896         6.1741 
  96   0.0000       0.233808         6.3623 
  97   0.0000       0.245714         6.6862 
  98   0.0000       0.252525         6.8715 
  99   0.0000       0.267160         7.2698 
 100   0.0000       0.286031         7.7833 
 101   0.0000       0.299505         8.1500 
 102   0.0000       0.311675         8.4811 
 103   0.0000       0.320743         8.7279 
 104   0.0000       0.324219         8.8224 
 105   0.0000       0.328593         8.9415 
 106   0.0000       0.339989         9.2516 
 107   0.0000       0.355263         9.6672 
 108   0.0000       0.363056         9.8793 
 109   0.0000       0.366131         9.9629 
 110   0.0000       0.370277        10.0757 
 111   0.0000       0.376476        10.2444 
 112   0.0000       0.384160        10.4535 
 113   0.0000       0.387097        10.5334 
 114   0.0000       0.400437        10.8965 
 115   0.0000       0.401672        10.9300 
 116   0.0000       0.415993        11.3197 
 117   0.0000       0.422201        11.4887 
 118   0.0000       0.430387        11.7114 
 119   0.0000       0.433683        11.8011 
 120   0.0000       0.436149        11.8682 
 121   0.0000       0.447862        12.1869 
 122   0.0000       0.452381        12.3099 
 123   0.0000       0.460844        12.5402 
 124   0.0000       0.462817        12.5939 
 125   0.0000       0.468966        12.7612 
 126   0.0000       0.476721        12.9722 
 127   0.0000       0.480844        13.0844 
 128   0.0000       0.490797        13.3553 
 129   0.0000       0.499827        13.6010 
 130   0.0000       0.501069        13.6348 
 131   0.0000       0.506925        13.7941 
 132   0.0000       0.510137        13.8815 
 133   0.0000       0.512268        13.9395 
 134   0.0000       0.521437        14.1890 
 135   0.0000       0.529554        14.4099 
 136   0.0000       0.535036        14.5591 
 137   0.0000       0.536935        14.6107 
 138   0.0000       0.545474        14.8431 
 139   0.0000       0.548182        14.9168 
 140   0.0000       0.550849        14.9894 
 141   0.0000       0.557450        15.1690 
 142   0.0000       0.564345        15.3566 
 143   0.0000       0.570008        15.5107 
 144   0.0000       0.572143        15.5688 
 145   0.0000       0.579314        15.7639 
 146   0.0000       0.584384        15.9019 
 147   0.0000       0.585946        15.9444 
 148   0.0000       0.594095        16.1661 
 149   0.0000       0.599417        16.3110 
 150   0.0000       0.603507        16.4223 
 151   0.0000       0.606144        16.4940 
 152   0.0000       0.609622        16.5887 
 153   0.0000       0.612539        16.6680 
 154   0.0000       0.614188        16.7129 
 155   0.0000       0.627737        17.0816 
 156   0.0000       0.632391        17.2082 
 157   0.0000       0.633046        17.2261 
 158   0.0000       0.633950        17.2506 
 159   0.0000       0.637645        17.3512 
 160   0.0000       0.642317        17.4783 
 161   0.0000       0.647673        17.6241 
 162   0.0000       0.651157        17.7189 
 163   0.0000       0.658591        17.9212 
 164   0.0000       0.663095        18.0437 
 165   0.0000       0.666540        18.1375 
 166   0.0000       0.678182        18.4543 
 167   0.0000       0.681477        18.5439 
 168   0.0000       0.685521        18.6540 
 169   0.0000       0.687541        18.7089 
 170   0.0000       0.694399        18.8956 
 171   0.0000       0.704390        19.1674 
 172   0.0000       0.711180        19.3522 
 173   0.0000       0.719469        19.5777 
 174   0.0000       0.724717        19.7206 
 175   0.0000       0.732092        19.9212 
 176   0.0000       0.737721        20.0744 
 177   0.0000       0.740723        20.1561 
 178   0.0000       0.748680        20.3726 
 179   0.0000       0.755212        20.5504 
 180   0.0000       0.760870        20.7043 
 181   0.0000       0.763221        20.7683 
 182   0.0000       0.771462        20.9926 
 183   0.0000       0.792238        21.5579 
 184   0.0000       0.800293        21.7771 
 185   0.0000       0.806093        21.9349 
 186   0.0000       0.807913        21.9844 
 187   0.0000       0.818459        22.2714 
 188   0.0000       0.829311        22.5667 
 189   0.0000       0.836404        22.7597 
 190   0.0000       0.842573        22.9276 
 191   0.0000       0.852354        23.1937 
 192   0.0000       0.862908        23.4809 
 193   0.0000       0.866842        23.5880 
 194   0.0000       0.875611        23.8266 
 195   0.0000       0.883190        24.0328 
 196   0.0000       0.884047        24.0561 
 197   0.0000       0.891898        24.2698 
 198   0.0000       0.895981        24.3809 
 199   0.0000       0.901947        24.5432 
 200   0.0000       0.910167        24.7669 
 201   0.0000       0.914865        24.8947 
 202   0.0000       0.922675        25.1073 
 203   0.0000       0.928760        25.2728 
 204   0.0000       0.939582        25.5673 
 205   0.0000       0.944480        25.7006 
 206   0.0000       0.950946        25.8765 
 207   0.0000       0.960034        26.1238 
 208   0.0000       0.967829        26.3360 
 209   0.0000       0.971127        26.4257 
 210   0.0000       0.975888        26.5552 
 211   0.0000       0.986865        26.8540 
 212   0.0000       0.994567        27.0635 
 213   0.0000       1.002610        27.2824 
 214   0.0000       1.009427        27.4679 
 215   0.0000       1.014245        27.5990 
 216   0.0000       1.020022        27.7562 
 217   0.0000       1.028485        27.9865 
 218   0.0000       1.033125        28.1128 
 219   0.0000       1.043897        28.4059 
 220   0.0000       1.046222        28.4691 
 221   0.0000       1.047728        28.5101 
 222   0.0000       1.066617        29.0241 
 223   0.0000       1.072402        29.1815 
 224   0.0000       1.077102        29.3094 
 225   0.0000       1.087753        29.5993 
 226   0.0000       1.103783        30.0355 
 227   0.0000       1.107326        30.1319 
 228   0.0000       1.116143        30.3718 
 229   0.0000       1.119524        30.4638 
 230   0.0000       1.123127        30.5618 
 231   0.0000       1.133445        30.8426 
 232   0.0000       1.137160        30.9437 
 233   0.0000       1.140697        31.0399 
 234   0.0000       1.150884        31.3172 
 235   0.0000       1.155073        31.4311 
 236   0.0000       1.163478        31.6598 
 237   0.0000       1.173078        31.9211 
 238   0.0000       1.179361        32.0920 
 239   0.0000       1.182947        32.1896 
 240   0.0000       1.195862        32.5411 
 241   0.0000       1.200861        32.6771 
 242   0.0000       1.206179        32.8218 
 243   0.0000       1.213927        33.0326 
 244   0.0000       1.226202        33.3666 
 245   0.0000       1.230425        33.4816 
 246   0.0000       1.231371        33.5073 
 247   0.0000       1.237183        33.6655 
 248   0.0000       1.242620        33.8134 
 249   0.0000       1.249388        33.9976 
 250   0.0000       1.256979        34.2041 
 251   0.0000       1.267173        34.4815 
 252   0.0000       1.268462        34.5166 
 253   0.0000       1.285230        34.9729 
 254   0.0000       1.288995        35.0753 
 255   0.0000       1.292885        35.1812 
 256   0.0000       1.300834        35.3975 
 257   0.0000       1.314491        35.7691 
 258   0.0000       1.318417        35.8760 
 259   0.0000       1.325715        36.0746 
 260   0.0000       1.333190        36.2779 
 261   0.0000       1.341318        36.4991 
 262   0.0000       1.354614        36.8609 
 263   0.0000       1.355576        36.8871 
 264   0.0000       1.362852        37.0851 
 265   0.0000       1.367379        37.2083 
 266   0.0000       1.384029        37.6614 
 267   0.0000       1.397086        38.0167 
 268   0.0000       1.400683        38.1145 
 269   0.0000       1.405099        38.2347 
 270   0.0000       1.410978        38.3947 
 271   0.0000       1.423123        38.7252 
 272   0.0000       1.430086        38.9146 
 273   0.0000       1.437549        39.1177 
 274   0.0000       1.449286        39.4371 
 275   0.0000       1.456320        39.6285 
 276   0.0000       1.462904        39.8076 
 277   0.0000       1.464240        39.8440 
 278   0.0000       1.483267        40.3618 
 279   0.0000       1.487904        40.4879 
 280   0.0000       1.495811        40.7031 
 281   0.0000       1.499881        40.8139 
 282   0.0000       1.510138        41.0929 
 283   0.0000       1.519216        41.3400 
 284   0.0000       1.522619        41.4326 
 285   0.0000       1.532203        41.6934 
 286   0.0000       1.537074        41.8259 
 287   0.0000       1.543006        41.9873 
 288   0.0000       1.546275        42.0763 
 289   0.0000       1.549837        42.1732 
 290   0.0000       1.556271        42.3483 
 291   0.0000       1.565934        42.6112 
 292   0.0000       1.574764        42.8515 
 293   0.0000       1.579691        42.9856 
 294   0.0000       1.585638        43.1474 
 295   0.0000       1.589900        43.2634 
 296   0.0000       1.601175        43.5702 
 297   0.0000       1.602493        43.6061 
 298   0.0000       1.620014        44.0828 
 299   0.0000       1.626340        44.2550 
 300   0.0000       1.632239        44.4155 
 301   0.0000       1.640442        44.6387 
 302   0.0000       1.648170        44.8490 
 303   0.0000       1.653222        44.9865 
 304   0.0000       1.661257        45.2051 
 305   0.0000       1.666792        45.3557 
 306   0.0000       1.680407        45.7262 
 307   0.0000       1.684247        45.8307 
 308   0.0000       1.698071        46.2069 
 309   0.0000       1.705838        46.4182 
 310   0.0000       1.710797        46.5532 
 311   0.0000       1.722565        46.8734 
 312   0.0000       1.730277        47.0832 
 313   0.0000       1.740593        47.3639 
 314   0.0000       1.745704        47.5030 
 315   0.0000       1.750811        47.6420 
 316   0.0000       1.756935        47.8086 
 317   0.0000       1.765073        48.0301 
 318   0.0000       1.780376        48.4465 
 319   0.0000       1.785898        48.5967 
 320   0.0000       1.792079        48.7649 
 321   0.0000       1.811459        49.2923 
 322   0.0000       1.819619        49.5144 
 323   0.0000       1.833977        49.9050 
 324   0.0000       1.851689        50.3870 
 325   0.0000       1.859968        50.6123 
 326   0.0000       1.865463        50.7618 
 327   0.0000       1.895936        51.5911 
 328   0.0000       1.903447        51.7954 
 329   0.0000       1.914071        52.0845 
 330   0.0000       1.923727        52.3473 
 331   0.0000       1.933993        52.6266 
 332   0.0000       1.938145        52.7396 
 333   0.0000       1.947607        52.9971 
 334   0.0000       1.955181        53.2032 
 335   0.0000       1.967824        53.5472 
 336   0.0000       1.977424        53.8084 
 337   0.0000       1.987561        54.0843 
 338   0.0000       2.000811        54.4448 
 339   0.0000       2.007478        54.6263 
 340   0.0000       2.021116        54.9974 
 341   0.0000       2.041549        55.5534 
 342   0.0000       2.047808        55.7237 
 343   0.0000       2.063814        56.1592 
 344   0.0000       2.084285        56.7163 
 345   0.0000       2.097765        57.0831 
 346   0.0000       2.124063        57.7987 
 347   0.0000       2.135461        58.1088 
 348   0.0000       2.157404        58.7059 
 349   0.0000       2.169775        59.0426 
 350   0.0000       2.191249        59.6269 
 351   0.0000       2.206869        60.0520 
 352   0.0000       2.207265        60.0627 
 353   0.0000       2.224550        60.5331 
 354   0.0000       2.237052        60.8733 
 355   0.0000       2.239659        60.9442 
 356   0.0000       2.279747        62.0351 
 357   0.0000       2.286767        62.2261 
 358   0.0000       2.308396        62.8146 
 359   0.0000       2.309526        62.8454 
 360   0.0000       2.321075        63.1597 
 361   0.0000       2.331183        63.4347 
 362   0.0000       2.334608        63.5279 
 363   0.0000       2.338549        63.6351 
 364   0.0000       2.360250        64.2257 
 365   0.0000       2.369525        64.4780 
 366   0.0000       2.377543        64.6962 
 367   0.0000       2.390726        65.0550 
 368   0.0000       2.403015        65.3894 
 369   0.0000       2.422011        65.9063 
 370   0.0000       2.431515        66.1649 
 371   0.0000       2.441849        66.4461 
 372   0.0000       2.449946        66.6664 
 373   0.0000       2.473854        67.3170 
 374   0.0000       2.488836        67.7247 
 375   0.0000       2.491624        67.8005 
 376   0.0000       2.508015        68.2466 
 377   0.0000       2.525386        68.7193 
 378   0.0000       2.530836        68.8676 
 379   0.0000       2.551322        69.4250 
 380   0.0000       2.561006        69.6885 
 381   0.0000       2.579326        70.1870 
 382   0.0000       2.589381        70.4606 
 383   0.0000       2.591748        70.5250 
 384   0.0000       2.604898        70.8829 
 385   0.0000       2.606983        70.9396 
 386   0.0000       2.620481        71.3069 
 387   0.0000       2.632614        71.6371 
 388   0.0000       2.646497        72.0149 
 389   0.0000       2.659030        72.3559 
 390   0.0000       2.664871        72.5148 
 391   0.0000       2.673907        72.7607 
 392   0.0000       2.694398        73.3183 
 393   0.0000       2.702935        73.5506 
 394   0.0000       2.707422        73.6727 
 395   0.0000       2.717086        73.9357 
 396   0.0000       2.726513        74.1922 
 397   0.0000       2.735687        74.4418 
 398   0.0000       2.749124        74.8075 
 399   0.0000       2.753687        74.9316 
 400   0.0000       2.765126        75.2429 
 401   0.0000       2.774835        75.5071 
 402   0.0000       2.783228        75.7355 
 403   0.0000       2.783945        75.7550 
 404   0.0000       2.800993        76.2189 
 405   0.0000       2.809387        76.4473 
 406   0.0000       2.813056        76.5471 
 407   0.0000       2.843333        77.3710 
 408   0.0000       2.849324        77.5340 
 409   0.0000       2.861479        77.8648 
 410   0.0000       2.864017        77.9339 
 411   0.0000       2.879967        78.3679 
 412   0.0000       2.889005        78.6138 
 413   0.0000       2.893558        78.7377 
 414   0.0000       2.910140        79.1889 
 415   0.0000       2.916563        79.3637 
 416   0.0000       2.927476        79.6607 
 417   0.0000       2.931884        79.7806 
 418   0.0000       2.943916        80.1080 
 419   0.0000       2.949936        80.2718 
 420   0.0000       2.955242        80.4162 
 421   0.0000       2.966960        80.7351 
 422   0.0000       2.972166        80.8768 
 423   0.0000       2.985021        81.2266 
 424   0.0000       3.005735        81.7902 
 425   0.0000       3.010127        81.9097 
 426   0.0000       3.017415        82.1080 
 427   0.0000       3.027898        82.3933 
 428   0.0000       3.031358        82.4874 
 429   0.0000       3.036700        82.6328 
 430   0.0000       3.039378        82.7057 
 431   0.0000       3.049811        82.9896 
 432   0.0000       3.060022        83.2674 
 433   0.0000       3.068965        83.5108 
 434   0.0000       3.081526        83.8526 
 435   0.0000       3.086052        83.9757 
 436   0.0000       3.087862        84.0250 
 437   0.0000       3.092681        84.1561 
 438   0.0000       3.097351        84.2832 
 439   0.0000       3.106735        84.5386 
 440   0.0000       3.113380        84.7194 
 441   0.0000       3.123579        84.9969 
 442   0.0000       3.126714        85.0822 
 443   0.0000       3.130923        85.1967 
 444   0.0000       3.137125        85.3655 
 445   0.0000       3.152279        85.7779 
 446   0.0000       3.161544        86.0300 
 447   0.0000       3.167121        86.1818 
 448   0.0000       3.176367        86.4334 
 449   0.0000       3.183704        86.6330 
 450   0.0000       3.192424        86.8703 
 451   0.0000       3.197372        87.0049 
 452   0.0000       3.200872        87.1001 
 453   0.0000       3.210918        87.3735 
 454   0.0000       3.219743        87.6137 
 455   0.0000       3.221514        87.6619 
 456   0.0000       3.231058        87.9216 
 457   0.0000       3.242705        88.2385 
 458   0.0000       3.243635        88.2638 
 459   0.0000       3.253287        88.5264 
 460   0.0000       3.264544        88.8328 
 461   0.0000       3.266410        88.8835 
 462   0.0000       3.272759        89.0563 
 463   0.0000       3.279996        89.2532 
 464   0.0000       3.291330        89.5616 
 465   0.0000       3.297921        89.7410 
 466   0.0000       3.299690        89.7891 
 467   0.0000       3.301338        89.8340 
 468   0.0000       3.318596        90.3036 
 469   0.0000       3.321707        90.3882 
 470   0.0000       3.324176        90.4554 
 471   0.0000       3.329042        90.5878 
 472   0.0000       3.339420        90.8702 
 473   0.0000       3.345999        91.0493 
 474   0.0000       3.357297        91.3567 
 475   0.0000       3.366915        91.6184 
 476   0.0000       3.368678        91.6664 
 477   0.0000       3.373920        91.8090 
 478   0.0000       3.379518        91.9614 
 479   0.0000       3.383006        92.0563 
 480   0.0000       3.390986        92.2734 
 481   0.0000       3.396610        92.4265 
 482   0.0000       3.403382        92.6107 
 483   0.0000       3.407052        92.7106 
 484   0.0000       3.409028        92.7644 
 485   0.0000       3.416096        92.9567 
 486   0.0000       3.418519        93.0226 
 487   0.0000       3.426659        93.2441 
 488   0.0000       3.436195        93.5036 
 489   0.0000       3.437345        93.5349 
 490   0.0000       3.440046        93.6084 
 491   0.0000       3.444412        93.7272 
 492   0.0000       3.448106        93.8277 
 493   0.0000       3.457856        94.0931 
 494   0.0000       3.461749        94.1990 
 495   0.0000       3.476356        94.5964 
 496   0.0000       3.478041        94.6423 
 497   0.0000       3.485494        94.8451 
 498   0.0000       3.490660        94.9857 
 499   0.0000       3.500403        95.2508 
 500   0.0000       3.502696        95.3132 
 501   0.0000       3.518888        95.7538 
 502   0.0000       3.528337        96.0109 
 503   0.0000       3.537326        96.2555 
 504   0.0000       3.545910        96.4891 
 505   0.0000       3.547780        96.5400 
 506   0.0000       3.551146        96.6316 
 507   0.0000       3.561785        96.9211 
 508   0.0000       3.571599        97.1882 
 509   0.0000       3.572770        97.2200 
 510   0.0000       3.588791        97.6560 
 511   0.0000       3.597686        97.8980 
 512   0.0000       3.602317        98.0240 
 513   0.0000       3.615102        98.3719 
 514   0.0000       3.615842        98.3921 
 515   0.0000       3.621993        98.5594 
 516   0.0000       3.629560        98.7654 
 517   0.0000       3.632158        98.8360 
 518   0.0000       3.635425        98.9249 
 519   0.0000       3.644803        99.1801 
 520   0.0000       3.649507        99.3081 
 521   0.0000       3.661974        99.6474 
 522   0.0000       3.666701        99.7760 
 523   0.0000       3.670053        99.8672 
 524   0.0000       3.678306       100.0918 
 525   0.0000       3.681502       100.1788 
 526   0.0000       3.688548       100.3705 
 527   0.0000       3.696916       100.5982 
 528   0.0000       3.703871       100.7875 
 529   0.0000       3.708196       100.9051 
 530   0.0000       3.714693       101.0819 
 531   0.0000       3.716967       101.1438 
 532   0.0000       3.722263       101.2879 
 533   0.0000       3.730164       101.5029 
 534   0.0000       3.741938       101.8233 
 535   0.0000       3.742798       101.8467 
 536   0.0000       3.751121       102.0732 
 537   0.0000       3.760427       102.3264 
 538   0.0000       3.765087       102.4532 
 539   0.0000       3.776512       102.7641 
 540   0.0000       3.777915       102.8023 
 541   0.0000       3.782507       102.9272 
 542   0.0000       3.792706       103.2048 
 543   0.0000       3.797122       103.3249 
 544   0.0000       3.803338       103.4941 
 545   0.0000       3.813149       103.7610 
 546   0.0000       3.817420       103.8773 
 547   0.0000       3.822601       104.0183 
 548   0.0000       3.822954       104.0279 
 549   0.0000       3.836848       104.4059 
 550   0.0000       3.849367       104.7466 
 551   0.0000       3.852338       104.8274 
 552   0.0000       3.867605       105.2429 
 553   0.0000       3.878011       105.5260 
 554   0.0000       3.881302       105.6156 
 555   0.0000       3.891673       105.8978 
 556   0.0000       3.895611       106.0050 
 557   0.0000       3.910044       106.3977 
 558   0.0000       3.917988       106.6139 
 559   0.0000       3.928089       106.8887 
 560   0.0000       3.936212       107.1098 
 561   0.0000       3.946327       107.3850 
 562   0.0000       3.952600       107.5557 
 563   0.0000       3.957383       107.6859 
 564   0.0000       3.961813       107.8064 
 565   0.0000       3.981344       108.3379 
 566   0.0000       3.990652       108.5912 
 567   0.0000       3.998288       108.7989 
 568   0.0000       4.003632       108.9444 
 569   0.0000       4.014117       109.2297 
 570   0.0000       4.018077       109.3374 
 571   0.0000       4.027358       109.5900 
 572   0.0000       4.038405       109.8906 
 573   0.0000       4.051781       110.2546 
 574   0.0000       4.056915       110.3943 
 575   0.0000       4.062753       110.5531 
 576   0.0000       4.069031       110.7240 
 577   0.0000       4.077981       110.9675 
 578   0.0000       4.080881       111.0464 
 579   0.0000       4.099819       111.5617 
 580   0.0000       4.103995       111.6754 
 581   0.0000       4.107958       111.7832 
 582   0.0000       4.114510       111.9615 
 583   0.0000       4.119996       112.1108 
 584   0.0000       4.130160       112.3874 
 585   0.0000       4.139461       112.6405 
 586   0.0000       4.148465       112.8855 
 587   0.0000       4.157134       113.1214 
 588   0.0000       4.160841       113.2222 
 589   0.0000       4.165082       113.3376 
 590   0.0000       4.169619       113.4611 
 591   0.0000       4.174173       113.5850 
 592   0.0000       4.186214       113.9127 
 593   0.0000       4.188310       113.9697 
 594   0.0000       4.197062       114.2079 
 595   0.0000       4.203052       114.3709 
 596   0.0000       4.205490       114.4372 
 597   0.0000       4.210345       114.5693 
 598   0.0000       4.221789       114.8807 
 599   0.0000       4.236882       115.2914 
 600   0.0000       4.243880       115.4818 
 601   0.0000       4.250444       115.6605 
 602   0.0000       4.257380       115.8492 
 603   0.0000       4.263198       116.0075 
 604   0.0000       4.272479       116.2601 
 605   0.0000       4.284748       116.5939 
 606   0.0000       4.298748       116.9749 
 607   0.0000       4.311628       117.3254 
 608   0.0000       4.315090       117.4196 
 609   0.0000       4.319604       117.5424 
 610   0.0000       4.331019       117.8530 
 611   0.0000       4.342617       118.1686 
 612   0.0000       4.348357       118.3248 
 613   0.0000       4.352320       118.4326 
 614   0.0000       4.362985       118.7229 
 615   0.0000       4.365669       118.7959 
 616   0.0000       4.375294       119.0578 
 617   0.0000       4.385928       119.3472 
 618   0.0000       4.388483       119.4167 
 619   0.0000       4.394197       119.5722 
 620   0.0000       4.398824       119.6981 
 621   0.0000       4.405114       119.8692 
 622   0.0000       4.413927       120.1091 
 623   0.0000       4.417248       120.1994 
 624   0.0000       4.432173       120.6055 
 625   0.0000       4.437599       120.7532 
 626   0.0000       4.450141       121.0945 
 627   0.0000       4.464457       121.4841 
 628   0.0000       4.475692       121.7898 
 629   0.0000       4.479144       121.8837 
 630   0.0000       4.482644       121.9790 
 631   0.0000       4.490702       122.1982 
 632   0.0000       4.506606       122.6310 
 633   0.0000       4.516118       122.8898 
 634   0.0000       4.521928       123.0479 
 635   0.0000       4.528301       123.2213 
 636   0.0000       4.539219       123.5184 
 637   0.0000       4.547979       123.7568 
 638   0.0000       4.552555       123.8813 
 639   0.0000       4.562116       124.1415 
 640   0.0000       4.579528       124.6153 
 641   0.0000       4.586928       124.8167 
 642   0.0000       4.589815       124.8952 
 643   0.0000       4.591716       124.9469 
 644   0.0000       4.604995       125.3083 
 645   0.0000       4.612767       125.5198 
 646   0.0000       4.622844       125.7940 
 647   0.0000       4.632480       126.0562 
 648   0.0000       4.641137       126.2917 
 649   0.0000       4.648989       126.5054 
 650   0.0000       4.653196       126.6199 
 651   0.0000       4.660952       126.8309 
 652   0.0000       4.661955       126.8583 
 653   0.0000       4.671844       127.1274 
 654   0.0000       4.683653       127.4487 
 655   0.0000       4.701987       127.9476 
 656   0.0000       4.709074       128.1404 
 657   0.0000       4.717732       128.3760 
 658   0.0000       4.723785       128.5407 
 659   0.0000       4.725702       128.5929 
 660   0.0000       4.736105       128.8760 
 661   0.0000       4.740832       129.0046 
 662   0.0000       4.751722       129.3009 
 663   0.0000       4.772374       129.8629 
 664   0.0000       4.796451       130.5181 
 665   0.0000       4.813102       130.9712 
 666   0.0000       4.833464       131.5253 
 667   0.0000       4.844580       131.8277 
 668   0.0000       4.851861       132.0259 
 669   0.0000       4.879479       132.7774 
 670   0.0000       4.885620       132.9445 
 671   0.0000       4.900100       133.3385 
 672   0.0000       4.920092       133.8825 
 673   0.0000       4.942267       134.4859 
 674   0.0000       4.963056       135.0516 
 675   0.0000       4.975449       135.3889 
 676   0.0000       5.006494       136.2336 
 677   0.0000       5.016999       136.5195 
 678   0.0000       5.019149       136.5780 
 679   0.0000       5.025596       136.7534 
 680   0.0000       5.038959       137.1170 
 681   0.0000       5.053909       137.5239 
 682   0.0000       5.054692       137.5452 
 683   0.0000       5.068359       137.9171 
 684   0.0000       5.076697       138.1439 
 685   0.0000       5.105648       138.9317 
 686   0.0000       5.127266       139.5200 
 687   0.0000       5.128183       139.5450 
 688   0.0000       5.138430       139.8238 
 689   0.0000       5.143905       139.9728 
 690   0.0000       5.167145       140.6052 
 691   0.0000       5.174658       140.8096 
 692   0.0000       5.176369       140.8562 
 693   0.0000       5.183604       141.0530 
 694   0.0000       5.207223       141.6957 
 695   0.0000       5.218032       141.9899 
 696   0.0000       5.222047       142.0991 
 697   0.0000       5.228809       142.2831 
 698   0.0000       5.239073       142.5624 
 699   0.0000       5.244223       142.7026 
 700   0.0000       5.265804       143.2898 
 701   0.0000       5.270395       143.4147 
 702   0.0000       5.281669       143.7215 
 703   0.0000       5.302357       144.2845 
 704   0.0000       5.325364       144.9105 
 705   0.0000       5.341245       145.3427 
 706   0.0000       5.346318       145.4807 
 707   0.0000       5.354858       145.7131 
 708   0.0000       5.370985       146.1519 
 709   0.0000       5.372868       146.2032 
 710   0.0000       5.391543       146.7113 
 711   0.0000       5.400957       146.9675 
 712   0.0000       5.421150       147.5170 
 713   0.0000       5.453264       148.3908 
 714   0.0000       5.470422       148.8577 
 715   0.0000       5.480582       149.1342 
 716   0.0000       5.491987       149.4446 
 717   0.0000       5.496543       149.5685 
 718   0.0000       5.507614       149.8698 
 719   0.0000       5.511101       149.9647 
 720   0.0000       5.518829       150.1750 
 721   0.0000       5.524273       150.3231 
 722   0.0000       5.537977       150.6960 
 723   0.0000       5.560056       151.2968 
 724   0.0000       5.575932       151.7288 
 725   0.0000       5.579199       151.8177 
 726   0.0000       5.596263       152.2821 
 727   0.0000       5.598788       152.3508 
 728   0.0000       5.612954       152.7363 
 729   0.0000       5.620808       152.9500 
 730   0.0000       5.643205       153.5594 
 731   0.0000       5.651473       153.7844 
 732   0.0000       5.663118       154.1013 
 733   0.0000       5.671453       154.3281 
 734   0.0000       5.677475       154.4919 
 735   0.0000       5.690813       154.8549 
 736   0.0000       5.703465       155.1992 
 737   0.0000       5.723484       155.7439 
 738   0.0000       5.735172       156.0620 
 739   0.0000       5.739499       156.1797 
 740   0.0000       5.761300       156.7730 
 741   0.0000       5.777672       157.2184 
 742   0.0000       5.792282       157.6160 
 743   0.0000       5.806305       157.9976 
 744   0.0000       5.823016       158.4523 
 745   0.0000       5.847332       159.1140 
 746   0.0000       5.853411       159.2794 
 747   0.0000       5.868512       159.6903 
 748   0.0000       5.895836       160.4339 
 749   0.0000       5.932929       161.4432 
 750   0.0000       5.947993       161.8531 
 751   0.0000       5.975498       162.6016 
 752   0.0000       5.982010       162.7788 
 753   0.0000       5.991060       163.0250 
 754   0.0000       5.998187       163.2190 
 755   0.0000       6.019400       163.7962 
 756   0.0000       6.047683       164.5658 
 757   0.0000       6.058901       164.8711 
 758   0.0000       6.073004       165.2548 
 759   0.0000       6.093581       165.8148 
 760   0.0000       6.151926       167.4024 
 761   0.0000       6.176534       168.0720 
 762   0.0000       6.203516       168.8062 
 763   0.0000       6.212907       169.0618 
 764   0.0000       6.219708       169.2469 
 765   0.0000       6.246744       169.9825 
 766   0.0000       6.280066       170.8893 
 767   0.0000       6.295182       171.3006 
 768   0.0000       6.324420       172.0962 
 769   0.0000       6.329352       172.2304 
 770   0.0000       6.344943       172.6547 
 771   0.0000       6.352063       172.8484 
 772   0.0000       6.388292       173.8343 
 773   0.0000       6.442485       175.3089 
 774   0.0000       6.457017       175.7044 
 775   0.0000       6.512479       177.2136 
 776   0.0000       6.539397       177.9460 
 777   0.0000       6.553880       178.3401 
 778   0.0000       6.587617       179.2582 
 779   0.0000       6.592687       179.3961 
 780   0.0000       6.611712       179.9138 
 781   0.0000       6.684642       181.8984 
 782   0.0000       6.726922       183.0488 
 783   0.0000       6.750760       183.6975 
 784   0.0000       6.825936       185.7432 
 785   0.0000       6.875476       187.0912 
 786   0.0000       6.898340       187.7134 
 787   0.0000       6.920594       188.3189 
 788   0.0000       6.929956       188.5737 
 789   0.0000       6.994662       190.3344 
 790   0.0000       7.026565       191.2025 
 791   0.0000       7.088087       192.8767 
 792   0.0000       7.094420       193.0490 
 793   0.0000       7.116316       193.6448 
 794   0.0000       7.207644       196.1300 
 795   0.0000       7.225101       196.6050 
 796   0.0000       7.258688       197.5189 
 797   0.0000       7.288533       198.3311 
 798   0.0000       7.338399       199.6880 
 799   0.0000       7.366620       200.4559 
 800   0.0000       7.397401       201.2935 
 801   0.0000       7.510775       204.3786 
 802   0.0000       7.572526       206.0589 
 803   0.0000       7.594803       206.6651 
 804   0.0000       7.671219       208.7445 
 805   0.0000       7.806362       212.4219 
 806   0.0000       7.820054       212.7945 
 807   0.0000       7.936962       215.9757 
 808   0.0000       7.943642       216.1575 
 809   0.0000       9.425359       256.4771 
 810   0.0000       9.616148       261.6687 
 811   0.0000      10.749760       292.5158 
 812   0.0000      11.141791       303.1835 
 813   0.0000      11.771402       320.3161 
 814   0.0000      12.492358       339.9343 
 815   0.0000      12.695111       345.4515 
 816   0.0000      12.944970       352.2505 
 817   0.0000      12.970942       352.9573 
 818   0.0000      13.159748       358.0949 
 819   0.0000      13.287784       361.5790 
 820   0.0000      13.434140       365.5615 
 821   0.0000      13.672236       372.0405 
 822   0.0000      13.731921       373.6646 
 823   0.0000      13.801488       375.5576 
 824   0.0000      13.839546       376.5932 
 825   0.0000      14.486093       394.1866 
 826   0.0000      14.605175       397.4270 
 827   0.0000      15.722366       427.8273 

                    ********************************
                    * MULLIKEN POPULATION ANALYSIS *
                    ********************************

-----------------------
MULLIKEN ATOMIC CHARGES
-----------------------
   0 C :   -0.289685
   1 C :    0.022506
   2 O :   -0.347826
   3 C :    0.468120
   4 O :   -0.430670
   5 C :   -0.188841
   6 C :    0.138146
   7 C :   -0.292279
   8 N :   -0.120592
   9 C :    0.197581
  10 S :   -0.433375
  11 N :   -0.208462
  12 C :    0.066974
  13 C :    0.038829
  14 C :   -0.199832
  15 C :   -0.126587
  16 C :   -0.277156
  17 C :    0.308927
  18 O :   -0.362127
  19 C :   -0.253643
  20 H :    0.085284
  21 H :    0.103663
  22 H :    0.113388
  23 H :    0.121836
  24 H :    0.107755
  25 H :    0.122824
  26 H :    0.104284
  27 H :    0.134526
  28 H :    0.197741
  29 H :    0.190768
  30 H :    0.191153
  31 H :    0.136241
  32 H :    0.155110
  33 H :    0.124456
  34 H :    0.241967
  35 H :    0.158995
Sum of atomic charges:   -0.0000000

--------------------------------
MULLIKEN REDUCED ORBITAL CHARGES
--------------------------------
  0 C s       :     3.261520  s :     3.261520
      pz      :     0.920247  p :     2.950150
      px      :     1.017568
      py      :     1.012335
      dz2     :     0.017731  d :     0.073628
      dxz     :     0.012462
      dyz     :     0.017496
      dx2y2   :     0.016319
      dxy     :     0.009620
      f0      :     0.001437  f :     0.004387
      f+1     :     0.000914
      f-1     :     0.000436
      f+2     :     0.000312
      f-2     :     0.000162
      f+3     :     0.000768
      f-3     :     0.000358
  1 C s       :     3.170674  s :     3.170674
      pz      :     0.833213  p :     2.646001
      px      :     0.952274
      py      :     0.860514
      dz2     :     0.036636  d :     0.149551
      dxz     :     0.024459
      dyz     :     0.035045
      dx2y2   :     0.032630
      dxy     :     0.020781
      f0      :     0.001746  f :     0.011268
      f+1     :     0.001769
      f-1     :     0.002201
      f+2     :     0.001394
      f-2     :     0.001636
      f+3     :     0.001405
      f-3     :     0.001116
  2 O s       :     3.715436  s :     3.715436
      pz      :     1.612179  p :     4.596998
      px      :     1.339032
      py      :     1.645787
      dz2     :     0.004665  d :     0.033093
      dxz     :     0.005213
      dyz     :     0.006714
      dx2y2   :     0.009846
      dxy     :     0.006656
      f0      :     0.000328  f :     0.002298
      f+1     :     0.000345
      f-1     :     0.000154
      f+2     :     0.000445
      f-2     :     0.000417
      f+3     :     0.000337
      f-3     :     0.000273
  3 C s       :     3.052036  s :     3.052036
      pz      :     0.670950  p :     2.153963
      px      :     0.671780
      py      :     0.811234
      dz2     :     0.032860  d :     0.299259
      dxz     :     0.042909
      dyz     :     0.069056
      dx2y2   :     0.082279
      dxy     :     0.072154
      f0      :     0.002058  f :     0.026622
      f+1     :     0.003163
      f-1     :     0.002042
      f+2     :     0.004248
      f-2     :     0.003255
      f+3     :     0.005164
      f-3     :     0.006691
  4 O s       :     3.771335  s :     3.771335
      pz      :     1.564129  p :     4.621695
      px      :     1.658162
      py      :     1.399403
      dz2     :     0.003803  d :     0.035228
      dxz     :     0.001170
      dyz     :     0.009871
      dx2y2   :     0.009984
      dxy     :     0.010399
      f0      :     0.000241  f :     0.002413
      f+1     :     0.000072
      f-1     :     0.000344
      f+2     :     0.000292
      f-2     :     0.000195
      f+3     :     0.000694
      f-3     :     0.000575
  5 C s       :     3.185020  s :     3.185020
      pz      :     1.029609  p :     2.904980
      px      :     1.008128
      py      :     0.867244
      dz2     :     0.015953  d :     0.088160
      dxz     :     0.009760
      dyz     :     0.027682
      dx2y2   :     0.010603
      dxy     :     0.024161
      f0      :     0.001070  f :     0.010681
      f+1     :     0.001108
      f-1     :     0.001307
      f+2     :     0.002359
      f-2     :     0.001521
      f+3     :     0.001840
      f-3     :     0.001477
  6 C s       :     3.189589  s :     3.189589
      pz      :     0.849576  p :     2.482940
      px      :     0.838349
      py      :     0.795016
      dz2     :     0.027804  d :     0.175339
      dxz     :     0.016568
      dyz     :     0.052656
      dx2y2   :     0.027303
      dxy     :     0.051009
      f0      :     0.001406  f :     0.013985
      f+1     :     0.001509
      f-1     :     0.001991
      f+2     :     0.002265
      f-2     :     0.002091
      f+3     :     0.002414
      f-3     :     0.002309
  7 C s       :     3.281466  s :     3.281466
      pz      :     0.928176  p :     2.935586
      px      :     1.001566
      py      :     1.005844
      dz2     :     0.021985  d :     0.070530
      dxz     :     0.011865
      dyz     :     0.009808
      dx2y2   :     0.020452
      dxy     :     0.006419
      f0      :     0.000366  f :     0.004697
      f+1     :     0.001142
      f-1     :     0.000970
      f+2     :     0.000503
      f-2     :     0.000604
      f+3     :     0.000448
      f-3     :     0.000663
  8 N s       :     3.338609  s :     3.338609
      pz      :     1.382615  p :     3.717545
      px      :     1.260729
      py      :     1.074201
      dz2     :     0.009151  d :     0.059521
      dxz     :     0.010064
      dyz     :     0.011296
      dx2y2   :     0.016268
      dxy     :     0.012741
      f0      :     0.000592  f :     0.004917
      f+1     :     0.000949
      f-1     :     0.000337
      f+2     :     0.000918
      f-2     :     0.001004
      f+3     :     0.000505
      f-3     :     0.000613
  9 C s       :     3.167595  s :     3.167595
      pz      :     0.722451  p :     2.355308
      px      :     0.772725
      py      :     0.860131
      dz2     :     0.048165  d :     0.262023
      dxz     :     0.032618
      dyz     :     0.055058
      dx2y2   :     0.070426
      dxy     :     0.055757
      f0      :     0.001753  f :     0.017493
      f+1     :     0.002841
      f-1     :     0.002178
      f+2     :     0.003250
      f-2     :     0.001747
      f+3     :     0.002983
      f-3     :     0.002741
 10 S s       :     5.857892  s :     5.857892
      pz      :     3.607248  p :    10.481128
      px      :     3.527140
      py      :     3.346739
      dz2     :     0.010907  d :     0.084275
      dxz     :     0.006994
      dyz     :     0.021979
      dx2y2   :     0.010624
      dxy     :     0.033772
      f0      :     0.001108  f :     0.010080
      f+1     :     0.000622
      f-1     :     0.001067
      f+2     :     0.000938
      f-2     :     0.002232
      f+3     :     0.002656
      f-3     :     0.001457
 11 N s       :     3.386065  s :     3.386065
      pz      :     1.382831  p :     3.758793
      px      :     1.366829
      py      :     1.009133
      dz2     :     0.005278  d :     0.059260
      dxz     :     0.008313
      dyz     :     0.016528
      dx2y2   :     0.014833
      dxy     :     0.014308
      f0      :     0.000518  f :     0.004344
      f+1     :     0.000363
      f-1     :     0.000520
      f+2     :     0.000835
      f-2     :     0.000646
      f+3     :     0.000686
      f-3     :     0.000777
 12 C s       :     3.109618  s :     3.109618
      pz      :     0.864664  p :     2.641093
      px      :     0.872469
      py      :     0.903961
      dz2     :     0.037493  d :     0.171682
      dxz     :     0.029657
      dyz     :     0.032462
      dx2y2   :     0.033581
      dxy     :     0.038488
      f0      :     0.001119  f :     0.010632
      f+1     :     0.001700
      f-1     :     0.001528
      f+2     :     0.001721
      f-2     :     0.001782
      f+3     :     0.001692
      f-3     :     0.001090
 13 C s       :     3.128450  s :     3.128450
      pz      :     0.880704  p :     2.711509
      px      :     0.896795
      py      :     0.934010
      dz2     :     0.026412  d :     0.110514
      dxz     :     0.012497
      dyz     :     0.024322
      dx2y2   :     0.021364
      dxy     :     0.025918
      f0      :     0.001068  f :     0.010699
      f+1     :     0.001758
[...]
      f+2     :     0.007328
      f-2     :     0.005199
      f+3     :     0.006583
      f-3     :     0.004349
 15 C s       :     2.706055  s :     2.706055
      pz      :     0.935563  p :     2.796707
      px      :     0.894272
      py      :     0.966872
      dz2     :     0.105376  d :     0.421285
      dxz     :     0.069711
      dyz     :     0.086251
      dx2y2   :     0.103097
      dxy     :     0.056851
      f0      :     0.005053  f :     0.041552
      f+1     :     0.005623
      f-1     :     0.007328
      f+2     :     0.007076
      f-2     :     0.006343
      f+3     :     0.004555
      f-3     :     0.005574
 16 C s       :     2.701904  s :     2.701904
      pz      :     0.948347  p :     2.874726
      px      :     0.940971
      py      :     0.985408
      dz2     :     0.061758  d :     0.393883
      dxz     :     0.055509
      dyz     :     0.098166
      dx2y2   :     0.090919
      dxy     :     0.087531
      f0      :     0.003540  f :     0.040911
      f+1     :     0.004168
      f-1     :     0.007807
      f+2     :     0.006644
      f-2     :     0.004883
      f+3     :     0.008063
      f-3     :     0.005806
 17 C s       :     2.705349  s :     2.705349
      pz      :     0.892945  p :     2.680736
      px      :     0.825546
      py      :     0.962245
      dz2     :     0.143113  d :     0.702609
      dxz     :     0.092756
      dyz     :     0.169022
      dx2y2   :     0.142286
      dxy     :     0.155432
      f0      :     0.010597  f :     0.098256
      f+1     :     0.011566
      f-1     :     0.016356
      f+2     :     0.017718
      f-2     :     0.013342
      f+3     :     0.016169
      f-3     :     0.012509
 18 O s       :     3.178767  s :     3.178767
      pz      :     1.356538  p :     4.353848
      px      :     1.475172
      py      :     1.522137
      dz2     :     0.011454  d :     0.075456
      dxz     :     0.014839
      dyz     :     0.022475
      dx2y2   :     0.010093
      dxy     :     0.016595
      f0      :     0.000605  f :     0.005008
      f+1     :     0.000526
      f-1     :     0.000834
      f+2     :     0.000733
      f-2     :     0.001005
      f+3     :     0.000712
      f-3     :     0.000594
 19 C s       :     2.699628  s :     2.699628
      pz      :     0.953820  p :     2.857047
      px      :     0.935002
      py      :     0.968225
      dz2     :     0.087177  d :     0.381509
      dxz     :     0.068596
      dyz     :     0.077092
      dx2y2   :     0.089585
      dxy     :     0.059059
      f0      :     0.004670  f :     0.039379
      f+1     :     0.006322
      f-1     :     0.006243
      f+2     :     0.006558
      f-2     :     0.006334
      f+3     :     0.004383
      f-3     :     0.004868
 20 H s       :     0.851880  s :     0.851880
      pz      :     0.046769  p :     0.153065
      px      :     0.040814
      py      :     0.065482
      dz2     :     0.004837  d :     0.027561
      dxz     :     0.001586
      dyz     :     0.007556
      dx2y2   :     0.006465
      dxy     :     0.007117
 21 H s       :     0.841412  s :     0.841412
      pz      :     0.047320  p :     0.149851
      px      :     0.047548
      py      :     0.054983
      dz2     :     0.005593  d :     0.027218
      dxz     :     0.003864
      dyz     :     0.005371
      dx2y2   :     0.007404
      dxy     :     0.004987
 22 H s       :     0.847823  s :     0.847823
      pz      :     0.037948  p :     0.151506
      px      :     0.072488
      py      :     0.041069
      dz2     :     0.002720  d :     0.027423
      dxz     :     0.008356
      dyz     :     0.000315
      dx2y2   :     0.007137
      dxy     :     0.008894
 23 H s       :     0.852630  s :     0.852630
      pz      :     0.035005  p :     0.146235
      px      :     0.077341
      py      :     0.033888
      dz2     :     0.002909  d :     0.027456
      dxz     :     0.008373
      dyz     :     0.000133
      dx2y2   :     0.008029
      dxy     :     0.008012
 24 H s       :     0.848313  s :     0.848313
      pz      :     0.042454  p :     0.151977
      px      :     0.038976
      py      :     0.070548
      dz2     :     0.004319  d :     0.027501
      dxz     :     0.000995
      dyz     :     0.007788
      dx2y2   :     0.007194
      dxy     :     0.007206
 25 H s       :     0.831413  s :     0.831413
      pz      :     0.063731  p :     0.149527
      px      :     0.041290
      py      :     0.044506
      dz2     :     0.008806  d :     0.027372
      dxz     :     0.007160
      dyz     :     0.006979
      dx2y2   :     0.002902
      dxy     :     0.001525
 26 H s       :     0.842509  s :     0.842509
      pz      :     0.037053  p :     0.149576
      px      :     0.039932
      py      :     0.072592
      dz2     :     0.002336  d :     0.027530
      dxz     :     0.000217
      dyz     :     0.009001
      dx2y2   :     0.007075
      dxy     :     0.008901
 27 H s       :     0.830449  s :     0.830449
      pz      :     0.038755  p :     0.154088
      px      :     0.073643
      py      :     0.041691
      dz2     :     0.002637  d :     0.028139
      dxz     :     0.008754
      dyz     :     0.000301
      dx2y2   :     0.007943
      dxy     :     0.008503
 28 H s       :     0.742372  s :     0.742372
      pz      :     0.074364  p :     0.253430
      px      :     0.063292
      py      :     0.115774
      dz2     :     0.007404  d :     0.061433
      dxz     :     0.001664
      dyz     :     0.019620
      dx2y2   :     0.014740
      dxy     :     0.018006
 29 H s       :     0.748276  s :     0.748276
      pz      :     0.101815  p :     0.256304
      px      :     0.112127
      py      :     0.042362
      dz2     :     0.018216  d :     0.061660
      dxz     :     0.015349
      dyz     :     0.006767
      dx2y2   :     0.012324
      dxy     :     0.009004
 30 H s       :     0.807928  s :     0.807928
      pz      :     0.046403  p :     0.174578
      px      :     0.044048
      py      :     0.084127
      dz2     :     0.003388  d :     0.031136
      dxz     :     0.003052
      dyz     :     0.008164
      dx2y2   :     0.008261
      dxy     :     0.008271
 31 H s       :     0.844003  s :     0.844003
      pz      :     0.051965  p :     0.159935
      px      :     0.055651
      py      :     0.052319
      dz2     :     0.005414  d :     0.027814
      dxz     :     0.004613
      dyz     :     0.005846
      dx2y2   :     0.006121
      dxy     :     0.005819
 32 H s       :     0.843949  s :     0.843949
      pz      :     0.037352  p :     0.149601
      px      :     0.036766
      py      :     0.075484
      dz2     :     0.003084  d :     0.026104
      dxz     :     0.000489
      dyz     :     0.007987
      dx2y2   :     0.007194
      dxy     :     0.007350
 33 H s       :     0.849971  s :     0.849971
      pz      :     0.065195  p :     0.157861
      px      :     0.053570
      py      :     0.039097
      dz2     :     0.007853  d :     0.027408
      dxz     :     0.006597
      dyz     :     0.006148
      dx2y2   :     0.003436
      dxy     :     0.003373
 34 H s       :     0.706899  s :     0.706899
      pz      :     0.128232  p :     0.345993
      px      :     0.098208
      py      :     0.119553
      dz2     :     0.028680  d :     0.098892
      dxz     :     0.018922
      dyz     :     0.024015
      dx2y2   :     0.013035
      dxy     :     0.014240
 35 H s       :     0.843920  s :     0.843920
      pz      :     0.041518  p :     0.160943
      px      :     0.040884
      py      :     0.078541
      dz2     :     0.003275  d :     0.028724
      dxz     :     0.000703
      dyz     :     0.008756
      dx2y2   :     0.007548
      dxy     :     0.008442


                      *****************************
                      * MAYER POPULATION ANALYSIS *
                      *****************************

  NA   - Mulliken gross atomic population
  ZA   - Total nuclear charge
  QA   - Mulliken gross atomic charge
  VA   - Mayer's total valence
  BVA  - Mayer's bonded valence
  FA   - Mayer's free valence

  ATOM       NA         ZA         QA         VA         BVA        FA
  0 C      6.2897     6.0000    -0.2897     3.8777     3.8777    -0.0000
  1 C      5.9775     6.0000     0.0225     3.8444     3.8444    -0.0000
  2 O      8.3478     8.0000    -0.3478     2.0696     2.0696     0.0000
  3 C      5.5319     6.0000     0.4681     4.2190     4.2190     0.0000
  4 O      8.4307     8.0000    -0.4307     2.0843     2.0843    -0.0000
  5 C      6.1888     6.0000    -0.1888     3.6675     3.6675    -0.0000
  6 C      5.8619     6.0000     0.1381     3.8586     3.8586     0.0000
  7 C      6.2923     6.0000    -0.2923     3.8935     3.8935    -0.0000
  8 N      7.1206     7.0000    -0.1206     3.2906     3.2906    -0.0000
  9 C      5.8024     6.0000     0.1976     4.1471     4.1471     0.0000
 10 S     16.4334    16.0000    -0.4334     1.7609     1.7609     0.0000
 11 N      7.2085     7.0000    -0.2085     3.2652     3.2652     0.0000
 12 C      5.9330     6.0000     0.0670     3.9087     3.9087     0.0000
 13 C      5.9612     6.0000     0.0388     3.7440     3.7440     0.0000
 14 C      6.1998     6.0000    -0.1998     3.8662     3.8662    -0.0000
 15 C      6.1266     6.0000    -0.1266     3.8052     3.8052    -0.0000
 16 C      6.2772     6.0000    -0.2772     3.7861     3.7861    -0.0000
 17 C      5.6911     6.0000     0.3089     3.8749     3.8749    -0.0000
 18 O      8.3621     8.0000    -0.3621     2.1103     2.1103    -0.0000
 19 C      6.2536     6.0000    -0.2536     3.8475     3.8475     0.0000
 20 H      0.9147     1.0000     0.0853     0.9809     0.9809    -0.0000
 21 H      0.8963     1.0000     0.1037     0.9840     0.9840    -0.0000
 22 H      0.8866     1.0000     0.1134     0.9840     0.9840     0.0000
 23 H      0.8782     1.0000     0.1218     0.9754     0.9754    -0.0000
 24 H      0.8922     1.0000     0.1078     0.9855     0.9855    -0.0000
 25 H      0.8772     1.0000     0.1228     0.9785     0.9785    -0.0000
 26 H      0.8957     1.0000     0.1043     0.9860     0.9860    -0.0000
 27 H      0.8655     1.0000     0.1345     0.9784     0.9784    -0.0000
 28 H      0.8023     1.0000     0.1977     1.0233     1.0233     0.0000
 29 H      0.8092     1.0000     0.1908     1.0214     1.0214     0.0000
 30 H      0.8088     1.0000     0.1912     0.9953     0.9953    -0.0000
 31 H      0.8638     1.0000     0.1362     0.9926     0.9926    -0.0000
 32 H      0.8449     1.0000     0.1551     0.9788     0.9788    -0.0000
 33 H      0.8755     1.0000     0.1245     0.9927     0.9927    -0.0000
 34 H      0.7580     1.0000     0.2420     1.0098     1.0098     0.0000
 35 H      0.8410     1.0000     0.1590     0.9918     0.9918     0.0000

  Mayer bond orders larger than 0.100000
B(  0-C ,  1-C ) :   0.9606 B(  0-C , 20-H ) :   0.9786 B(  0-C , 21-H ) :   0.9748 
B(  0-C , 22-H ) :   0.9761 B(  1-C ,  2-O ) :   0.8912 B(  1-C , 23-H ) :   0.9827 
B(  1-C , 24-H ) :   0.9788 B(  2-O ,  3-C ) :   1.1578 B(  3-C ,  4-O ) :   1.9725 
B(  3-C ,  5-C ) :   1.0436 B(  5-C ,  6-C ) :   1.6677 B(  5-C , 12-C ) :   0.9835 
B(  6-C ,  7-C ) :   0.9473 B(  6-C ,  8-N ) :   1.1373 B(  7-C , 25-H ) :   0.9660 
B(  7-C , 26-H ) :   0.9903 B(  7-C , 27-H ) :   0.9671 B(  8-N ,  9-C ) :   1.1806 
B(  8-N , 28-H ) :   0.9464 B(  9-C , 10-S ) :   1.6107 B(  9-C , 11-N ) :   1.2981 
B( 11-N , 12-C ) :   0.9990 B( 11-N , 29-H ) :   0.9512 B( 12-C , 13-C ) :   0.9029 
B( 12-C , 30-H ) :   0.9766 B( 13-C , 14-C ) :   1.3869 B( 13-C , 19-C ) :   1.3829 
B( 14-C , 15-C ) :   1.3843 B( 14-C , 31-H ) :   0.9712 B( 15-C , 16-C ) :   1.3642 
B( 15-C , 32-H ) :   0.9723 B( 16-C , 17-C ) :   1.3246 B( 16-C , 33-H ) :   0.9877 
B( 17-C , 18-O ) :   1.1005 B( 17-C , 19-C ) :   1.3859 B( 18-O , 34-H ) :   0.9790 
B( 19-C , 35-H ) :   0.9531 

-------
TIMINGS
-------

Total SCF time: 0 days 1 hours 27 min 31 sec 

Total time                  ....    5251.287 sec
Sum of individual times     ....    5247.619 sec  ( 99.9%)

Fock matrix formation       ....    5237.099 sec  ( 99.7%)
Diagonalization             ....       1.154 sec  (  0.0%)
Density matrix formation    ....       0.210 sec  (  0.0%)
Population analysis         ....       0.198 sec  (  0.0%)
Initial guess               ....       4.560 sec  (  0.1%)
Orbital Transformation      ....       0.000 sec  (  0.0%)
Orbital Orthonormalization  ....       0.000 sec  (  0.0%)
DIIS solution               ....       1.625 sec  (  0.0%)
SOSCF solution              ....       1.551 sec  (  0.0%)

------------------------------------------------------------------------------
                                ORCA  MP2 
------------------------------------------------------------------------------

Freezing NCore=48 chemical core electrons

-------------
RI-MP2 ENERGY
-------------
Dimension of the basis                    ...  828
Memory devoted to MP2                     ...  256 MB   
Data format for buffers                   ... DOUBLE
Compression type for matrix containers    ... UNCOMPRESSED
Overall scaling of the MP2 energy         ...   1.000e+00
Calculating two index integrals           ... done (    0.040 sec)
Cholesky decomposition of V**-1           ... done (    0.622 sec)

-----------------
RI-TRANSFORMATION (AUX index driven)
-----------------

Dimension of the orbital-basis         ... 828
Dimension of the aux-basis             ... 2141
Transformation of internal/external MOs...   24-  76 to   77- 827
Number Format for Storage              ... Double (8 Byte)
Integral mode                          ... Direct

First Phase: integral generation and transformation of MO indices
  Aux angular momentum 0               ... done (    4.512 sec)
  Aux angular momentum 1               ... done (    7.311 sec)
  Aux angular momentum 2               ... done (    9.664 sec)
  Aux angular momentum 3               ... done (    7.600 sec)
  Aux angular momentum 4               ... done (    2.665 sec)
Closing buffer VIA ( 0.63 GB; CompressionRatio= 1.00)
  Phase 1 completed in    31.974 sec
Second Phase: sorting and transformation of aux index

IA-Transformation
Memory available                       ... 167 MB 
Max. # MO pairs treated in a batch     ... 12    
# of internal orbitals                 ... 53
# batches for internal orbitals        ... 5
Closing buffer IAV ( 0.63 GB; CompressionRatio= 1.00)
(ia|v) transformation done in    25.114 sec

  Phase 2 completed in    25.129 sec
RI-Integral transformation completed in    57.109 sec
Opening buffers                              ... done

Starting loop over batches of integrals:

Operator 0  - window                       ... ( 24- 76)x( 77-827)
Operator 0  - Memory available             ...   256 MB
Operator 0  - Memory needed per MO         ...  12.3 MB
Operator 0  - Number of orbitals per batch ... 13
Operator 0  - Number of batches            ... 5

OPERATOR  0   PASS   0:  MOs    24 ...   36
  Reading integrals       ... ok
  Internal MO  26
  Internal MO  29
  Internal MO  32
  Internal MO  35
OPERATOR  0   PASS   1:  MOs    37 ...   49
  Reading integrals       ... ok
  Internal MO  38
  Internal MO  41
  Internal MO  44
  Internal MO  47
OPERATOR  0   PASS   2:  MOs    50 ...   62
  Reading integrals       ... ok
  Internal MO  50
  Internal MO  53
  Internal MO  56
  Internal MO  59
  Internal MO  62
OPERATOR  0   PASS   3:  MOs    63 ...   75
  Reading integrals       ... ok
  Internal MO  65
  Internal MO  68
  Internal MO  71
  Internal MO  74
OPERATOR  0   PASS   4:  MOs    76 ...   76
  Reading integrals       ... ok
Time spent in pair loops =    86.262 sec
Deleting buffer (Ka|jb)[aa] ...done

-----------------------------------------------
 RI-MP2 CORRELATION ENERGY:     -3.543998062 Eh
-----------------------------------------------


-------
TIMINGS
-------

Total time                :  144.147 sec
Integral trafo            :   57.113 sec ( 39.6%)
I/O of integrals          :    2.172 sec (  1.5%)
K(i,j) Operators          :   52.465 sec ( 36.4%)
T(i,j) pair energies      :    8.684 sec (  6.0%)
V-calculation             :    0.040 sec (  0.0%)
V**(-1/2)                 :    0.622 sec (  0.4%)
Gamma(ia|P)               :    0.000 sec (  0.0%)
Gamma-Trafo               :    0.000 sec (  0.0%)
D(virtual)                :    0.000 sec (  0.0%)
D(internal)               :    0.000 sec (  0.0%)
W(virtual)                :    0.000 sec (  0.0%)
W(internal)               :    0.000 sec (  0.0%)
L(virtual)                :    0.000 sec (  0.0%)
L(internal)               :    0.000 sec (  0.0%)
G(D)                      :    0.000 sec (  0.0%)
G(Z)                      :    0.000 sec (  0.0%)
Z-Vector Solution         :    0.000 sec (  0.0%)
3-Index Derivative        :    0.000 sec (  0.0%)
2-Index Derivative        :    0.000 sec (  0.0%)
Separable Gradient        :    0.000 sec (  0.0%)


---------------------------------------
MP2 TOTAL ENERGY:    -1274.293304161 Eh
---------------------------------------

-------------------------   --------------------
FINAL SINGLE POINT ENERGY     -1274.293304161050
-------------------------   --------------------


                            ***************************************
                            *     ORCA property calculations      *
                            ***************************************


  WARNING: The energy has been calculated at the MP2 level but the densities
           used in the property calculations are still SCF densities
           MP2 response densities have not been calculated 
           use %mp2 Density relaxed end
           or  %mp2 Density unrelaxed end

                                    ---------------------
                                    Active property flags
                                    ---------------------
   (+) Dipole Moment


------------------------------------------------------------------------------
                       ORCA ELECTRIC PROPERTIES CALCULATION
------------------------------------------------------------------------------

Dipole Moment Calculation                       ... on
Quadrupole Moment Calculation                   ... off
Polarizability Calculation                      ... off
GBWName                                         ... G2_CONFS/Conf373.orca.gbw
Electron density file                           ... G2_CONFS/Conf373.orca.scfp
The origin for moment calculation is the CENTER OF MASS  = (32.920203, 31.379959 35.574041)

-------------
DIPOLE MOMENT
-------------
                                X             Y             Z
Electronic contribution:     10.20096       8.22572      12.83533
Nuclear contribution   :    -11.81869      -9.20205     -14.03924
                        -----------------------------------------
Total Dipole Moment    :     -1.61773      -0.97632      -1.20391
                        -----------------------------------------
Magnitude (a.u.)       :      2.24046
Magnitude (Debye)      :      5.69479



--------------------
Rotational spectrum 
--------------------
 
Rotational constants in cm-1:     0.010856     0.008475     0.005730 
Rotational constants in MHz :   325.449405   254.064461   171.783585 

 Dipole components along the rotational axes: 
x,y,z [a.u.] :    -1.907202    -0.913752     0.739789 
x,y,z [Debye]:    -4.847723    -2.322572     1.880395 

 

Timings for individual modules:

Sum of individual times         ...     5397.649 sec (=  89.961 min)
GTO integral calculation        ...        1.204 sec (=   0.020 min)   0.0 %
SCF iterations                  ...     5251.334 sec (=  87.522 min)  97.3 %
MP2 module                      ...      145.111 sec (=   2.419 min)   2.7 %
                             ****ORCA TERMINATED NORMALLY****
TOTAL RUN TIME: 0 days 1 hours 29 minutes 58 seconds 627 msec
