
                                 *****************
                                 * O   R   C   A *
                                 *****************

           --- An Ab Initio, DFT and Semiempirical electronic structure package ---

                  #######################################################
                  #                        -***-                        #
                  #          Department of theory and spectroscopy      #
                  #               Directorship: Frank Neese             #
                  #        Max Planck Institute fuer Kohlenforschung    #
                  #                Kaiser Wilhelm Platz 1               #
                  #                 D-45470 Muelheim/Ruhr               #
                  #                      Germany                        #
                  #                                                     #
                  #                  All rights reserved                #
                  #                        -***-                        #
                  #######################################################


                         Program Version 4.2.0 -  RELEASE  -


 With contributions from (in alphabetic order):
   Daniel Aravena         : Magnetic Suceptibility
   Michael Atanasov       : Ab Initio Ligand Field Theory (pilot matlab implementation)
   Alexander A. Auer      : GIAO ZORA, VPT2
   Ute Becker             : Parallelization
   Giovanni Bistoni       : ED, misc. LED, open-shell LED, HFLED
   Martin Brehm           : Molecular dynamics
   Dmytro Bykov           : SCF Hessian
   Vijay G. Chilkuri      : MRCI spin determinant printing, contributions to CSF-ICE
   Dipayan Datta          : RHF DLPNO-CCSD density
   Achintya Kumar Dutta   : EOM-CC, STEOM-CC
   Dmitry Ganyushin       : Spin-Orbit,Spin-Spin,Magnetic field MRCI
   Miquel Garcia          : C-PCM Hessian, Gaussian charge scheme
   Yang Guo               : DLPNO-NEVPT2, CIM, IAO-localization
   Andreas Hansen         : Spin unrestricted coupled pair/coupled cluster methods
   Benjamin Helmich-Paris : CASSCF linear response (MC-RPA)
   Lee Huntington         : MR-EOM, pCC
   Robert Izsak           : Overlap fitted RIJCOSX, COSX-SCS-MP3, EOM
   Christian Kollmar      : KDIIS, OOCD, Brueckner-CCSD(T), CCSD density
   Simone Kossmann        : Meta GGA functionals, TD-DFT gradient, OOMP2, MP2 Hessian
   Martin Krupicka        : AUTO-CI
   Lucas Lang             : DCDCAS
   Dagmar Lenk            : GEPOL surface, SMD
   Dimitrios Liakos       : Extrapolation schemes; Compound Job, initial MDCI parallelization
   Dimitrios Manganas     : Further ROCIS development; embedding schemes
   Dimitrios Pantazis     : SARC Basis sets
   Taras Petrenko         : DFT Hessian,TD-DFT gradient, ASA, ECA, R-Raman, ABS, FL, XAS/XES, NRVS
   Peter Pinski           : DLPNO-MP2, DLPNO-MP2 Gradient
   Christoph Reimann      : Effective Core Potentials
   Marius Retegan         : Local ZFS, SOC
   Christoph Riplinger    : Optimizer, TS searches, QM/MM, DLPNO-CCSD(T), (RO)-DLPNO pert. Triples
   Tobias Risthaus        : Range-separated hybrids, TD-DFT gradient, RPA, STAB
   Michael Roemelt        : Original ROCIS implementation
   Masaaki Saitow         : Open-shell DLPNO-CCSD energy and density
   Barbara Sandhoefer     : DKH picture change effects
   Avijit Sen             : IP-ROCIS
   Kantharuban Sivalingam : CASSCF convergence, NEVPT2, FIC-MRCI
   Bernardo de Souza      : ESD, SOC TD-DFT
   Georgi Stoychev        : AutoAux, RI-MP2 NMR
   Willem Van den Heuvel  : Paramagnetic NMR
   Boris Wezisla          : Elementary symmetry handling
   Frank Wennmohs         : Technical directorship


 We gratefully acknowledge several colleagues who have allowed us to
 interface, adapt or use parts of their codes:
   Stefan Grimme, W. Hujo, H. Kruse,             : VdW corrections, initial TS optimization,
                  C. Bannwarth                     DFT functionals, gCP, sTDA/sTD-DF
   Ed Valeev, F. Pavosevic, A. Kumar             : LibInt (2-el integral package), F12 methods
   Garnet Chan, S. Sharma, J. Yang, R. Olivares  : DMRG
   Ulf Ekstrom                                   : XCFun DFT Library
   Mihaly Kallay                                 : mrcc  (arbitrary order and MRCC methods)
   Andreas Klamt, Michael Diedenhofen            : otool_cosmo (COSMO solvation model)
   Jiri Pittner, Ondrej Demel                    : Mk-CCSD
   Frank Weinhold                                : gennbo (NPA and NBO analysis)
   Christopher J. Cramer and Donald G. Truhlar   : smd solvation model
   Lars Goerigk                                  : TD-DFT with DH, B97 family of functionals
   V. Asgeirsson, H. Jonsson                     : NEB implementation
   FAccTs GmbH                                   : IRC, NEB, NEB-TS, Multilevel, MM, QM/MM, CI optimization
   S Lehtola, MJT Oliveira, MAL Marques          : LibXC Library


 Your calculation uses the libint2 library for the computation of 2-el integrals
 For citations please refer to: http://libint.valeyev.net

 Your ORCA version has been built with support for libXC version: 4.2.3
 For citations please refer to: https://tddft.org/programs/libxc/

 This ORCA versions uses:
   CBLAS   interface :  Fast vector & matrix operations
   LAPACKE interface :  Fast linear algebra routines
   SCALAPACK package :  Parallel linear algebra routines


----- Orbital basis set information -----
Your calculation utilizes the basis: cc-pVTZ 
       H, B-Ne : Obtained from the ccRepo (grant-hill.group.shef.ac.uk/ccrepo) Feb. 2017
                 T. H. Dunning, Jr., J. Chem. Phys. 90, 1007 (1989)
            He : Obtained from the ccRepo (grant-hill.group.shef.ac.uk/ccrepo) Feb. 2017
                 D. E. Woon, T. H. Dunning, Jr., J. Chem. Phys. 100, 2975 (1994)
  Li-Be, Na-Mg : Obtained from the ccRepo (grant-hill.group.shef.ac.uk/ccrepo) Feb. 2017
                 B. P. Prascher, D. E. Woon, K. A. Peterson, T. H. Dunning, Jr., A. K. Wilson, Theor. Chem. Acc. 128, 69 (2011)
         Al-Ar : Obtained from the ccRepo (grant-hill.group.shef.ac.uk/ccrepo) Feb. 2017
                 D. E. Woon, T. H. Dunning, Jr., J. Chem. Phys. 98, 1358 (1993)
            Ca : Obtained from the Peterson Research Group Website (tyr0.chem.wsu.edu/~kipeters) Feb. 2017
                 J. Koput, K. A. Peterson, J. Phys. Chem. 106, 9595 (2002)
         Sc-Zn : Obtained from the ccRepo (grant-hill.group.shef.ac.uk/ccrepo) Feb. 2017
                 N. B. Balabanov, K. A. Peterson, J. Chem. Phys. 123, 064107 (2005)
                 N. B. Balabanov, K. A. Peterson, J. Chem. Phys. 125, 074110 (2006)
         Ga-Kr : Obtained from the ccRepo (grant-hill.group.shef.ac.uk/ccrepo) Feb. 2017
                 A. K. Wilson, D. E. Woon, K. A. Peterson, T. H. Dunning, Jr., J. Chem. Phys. 110, 7667 (1999)
             Y : Obtained from the ccRepo (grant-hill.group.shef.ac.uk/ccrepo) Feb. 2017
                 K. A. Peterson, D. Figgen, M. Dolg, H. Stoll, J. Chem. Phys. 126, 124101 (2007)
        Ag, Au : Obtained from the Peterson Research Group Website (tyr0.chem.wsu.edu/~kipeters) Feb. 2017
                 K. A. Peterson, C. Puzzarini, Theor. Chem. Acc. 114, 283 (2005)

----- AuxC basis set information -----
Your calculation utilizes the auxiliary basis: cc-pVTZ/C 
  Obtained from the EMSL Basis Set Exchange (bse.pnl.gov) Feb. 2017
  H-He, B-F, Al-Ar, Ga-Kr : F. Weigend, A. Kohn, C. Hattig, J. Chem. Phys. 116, 3175 (2002)
             Li-Be, Na-Mg : C. Haettig, Phys. Chem. Chem. Phys. 7, 59 (2005)
                       Ne : C. Haettig, Phys. Chem. Chem. Phys. 7, 59 (2005)
                            F. Weigend, A. Kohn, C. Hattig, J. Chem. Phys. 116, 3175 (2002)
                    Sc-Zn : J. G. Hill, J. A. Platts, J. Chem. Phys. 128, 044104 (2008)

================================================================================
                                        WARNINGS
                       Please study these warnings very carefully!
================================================================================


WARNING: No MP2 level density has been requested!
         To caclulate MP2 level properties use
         %mp2 Density relaxed end
         or
         %mp2 Density unrelaxed end

WARNING: Post HF methods need fully converged wavefunctions
  ===> : Setting SCFConvForced true
         You can overwrite this default with %scf ConvForced false 


INFO   : the flag for use of LIBINT has been found!

================================================================================
                                       INPUT FILE
================================================================================
NAME = G2_CONFS/Conf26.orca
|  1> ! ri-mp2 cc-pvtz cc-pvtz/c TightSCF  NoKeepInts
|  2> 
|  3> %scf
|  4>   MaxCore 4096
|  5> end
|  6> *xyz  0  1
|  7>     C       16.0344477   12.9642252   16.1850069
|  8>     C       15.7312469   14.4164945   15.7739827
|  9>     O       16.1799698   15.2599810   16.8374801
| 10>     C       16.0352981   16.6141818   16.7419373
| 11>     O       15.1829117   17.1219650   16.0354491
| 12>     C       17.0281628   17.3380191   17.6030728
| 13>     C       16.9615482   18.6852912   17.7872435
| 14>     C       15.9878558   19.6339036   17.1096926
| 15>     N       18.0429294   19.3757833   18.3444147
| 16>     C       19.2016066   18.8026248   18.7968733
| 17>     S       20.4047130   19.7292433   19.4587627
| 18>     N       19.3006494   17.4317721   18.6808087
| 19>     C       18.2784599   16.5587717   18.0389805
| 20>     C       17.8565166   15.8923501   19.3909877
| 21>     C       17.9805296   14.4718909   19.4293677
| 22>     C       17.4518741   13.6854414   20.4595773
| 23>     C       16.7793407   14.3067090   21.5131035
| 24>     C       16.6344945   15.7011601   21.5106570
| 25>     O       15.9487941   16.2745518   22.5304703
| 26>     C       17.1496805   16.4911241   20.4618724
| 27>     H       17.1070348   12.7563638   16.0914355
| 28>     H       15.4892339   12.2602866   15.5447934
| 29>     H       15.7368070   12.7791988   17.2258798
| 30>     H       16.1511662   14.6772865   14.7958447
| 31>     H       14.6375990   14.5263194   15.7272254
| 32>     H       16.0291532   19.5060516   16.0173500
| 33>     H       16.2015386   20.6926659   17.2995816
| 34>     H       14.9572261   19.4311633   17.4196212
| 35>     H       18.0254387   20.3849522   18.3663561
| 36>     H       20.1270359   17.0381473   19.1121399
| 37>     H       18.4850485   15.5957894   17.5733205
| 38>     H       18.4443633   13.9287183   18.6092718
| 39>     H       17.5446469   12.5995309   20.4212681
| 40>     H       16.3614606   13.6999494   22.3116529
| 41>     H       15.7147397   15.5629692   23.1489424
| 42>     H       16.9634823   17.5571241   20.4795762
| 43> *
| 44> 
| 45>                          ****END OF INPUT****
================================================================================

                       ****************************
                       * Single Point Calculation *
                       ****************************

---------------------------------
CARTESIAN COORDINATES (ANGSTROEM)
---------------------------------
  C     16.034448   12.964225   16.185007
  C     15.731247   14.416495   15.773983
  O     16.179970   15.259981   16.837480
  C     16.035298   16.614182   16.741937
  O     15.182912   17.121965   16.035449
  C     17.028163   17.338019   17.603073
  C     16.961548   18.685291   17.787243
  C     15.987856   19.633904   17.109693
  N     18.042929   19.375783   18.344415
  C     19.201607   18.802625   18.796873
  S     20.404713   19.729243   19.458763
  N     19.300649   17.431772   18.680809
  C     18.278460   16.558772   18.038981
  C     17.856517   15.892350   19.390988
  C     17.980530   14.471891   19.429368
  C     17.451874   13.685441   20.459577
  C     16.779341   14.306709   21.513103
  C     16.634494   15.701160   21.510657
  O     15.948794   16.274552   22.530470
  C     17.149680   16.491124   20.461872
  H     17.107035   12.756364   16.091435
  H     15.489234   12.260287   15.544793
  H     15.736807   12.779199   17.225880
  H     16.151166   14.677286   14.795845
  H     14.637599   14.526319   15.727225
  H     16.029153   19.506052   16.017350
  H     16.201539   20.692666   17.299582
  H     14.957226   19.431163   17.419621
  H     18.025439   20.384952   18.366356
  H     20.127036   17.038147   19.112140
  H     18.485049   15.595789   17.573321
  H     18.444363   13.928718   18.609272
  H     17.544647   12.599531   20.421268
  H     16.361461   13.699949   22.311653
  H     15.714740   15.562969   23.148942
  H     16.963482   17.557124   20.479576

----------------------------
CARTESIAN COORDINATES (A.U.)
----------------------------
  NO LB      ZA    FRAG     MASS         X           Y           Z
   0 C     6.0000    0    12.011   30.300715   24.498835   30.585231
   1 C     6.0000    0    12.011   29.727748   27.243226   29.808507
   2 O     8.0000    0    15.999   30.575712   28.837185   31.818226
   3 C     6.0000    0    12.011   30.302322   31.396254   31.637676
   4 O     8.0000    0    15.999   28.691545   32.355825   30.302607
   5 C     6.0000    0    12.011   32.178564   32.764108   33.264987
   6 C     6.0000    0    12.011   32.052681   35.310083   33.613019
   7 C     6.0000    0    12.011   30.212669   37.102701   32.332633
   8 N     7.0000    0    14.007   34.096195   36.614924   34.665920
   9 C     6.0000    0    12.011   36.285778   35.531811   35.520943
  10 S    16.0000    0    32.060   38.559319   37.282867   36.771732
  11 N     7.0000    0    14.007   36.472942   32.941275   35.301612
  12 C     6.0000    0    12.011   34.541283   31.291544   34.088733
  13 C     6.0000    0    12.011   33.743926   30.032189   36.643656
  14 C     6.0000    0    12.011   33.978277   27.347910   36.716184
  15 C     6.0000    0    12.011   32.979263   25.861736   38.662998
  16 C     6.0000    0    12.011   31.708359   27.035762   40.653874
  17 C     6.0000    0    12.011   31.434639   29.670893   40.649251
  18 O     8.0000    0    15.999   30.138853   30.754446   42.576419
  19 C     6.0000    0    12.011   32.408199   31.163708   38.667335
  20 H     1.0000    0     1.008   32.327611   24.106034   30.408406
  21 H     1.0000    0     1.008   29.270410   23.168584   29.375402
  22 H     1.0000    0     1.008   29.738255   24.149186   32.552195
  23 H     1.0000    0     1.008   30.521281   27.736052   27.960094
  24 H     1.0000    0     1.008   27.661053   27.450765   29.720149
  25 H     1.0000    0     1.008   30.290710   36.861095   30.268405
  26 H     1.0000    0     1.008   30.616471   39.103472   32.691471
  27 H     1.0000    0     1.008   28.265061   36.719577   32.918313
  28 H     1.0000    0     1.008   34.063143   38.521977   34.707383
  29 H     1.0000    0     1.008   38.034586   32.197432   36.116710
  30 H     1.0000    0     1.008   34.931679   29.471771   33.208763
  31 H     1.0000    0     1.008   34.854795   26.321463   35.166427
  32 H     1.0000    0     1.008   33.154578   23.809663   38.590604
  33 H     1.0000    0     1.008   30.918680   25.889152   42.162914
  34 H     1.0000    0     1.008   29.696554   29.409750   43.745161
  35 H     1.0000    0     1.008   32.056336   33.178156   38.700790

--------------------------------
INTERNAL COORDINATES (ANGSTROEM)
--------------------------------
 C      0   0   0     0.000000000000     0.00000000     0.00000000
 C      1   0   0     1.539466705658     0.00000000     0.00000000
 O      2   1   0     1.429632273164   107.22665115     0.00000000
 C      3   2   1     1.365253871679   119.99381649   180.00000226
 O      4   3   2     1.218003255269   121.88883950    24.48027774
 C      4   3   2     1.500424972712   111.60654431   204.07345530
 C      6   4   3     1.361432504060   121.51119676   188.03957045
 C      7   6   4     1.518886960028   126.09106132   355.51846712
 N      7   6   4     1.398786755008   120.30210829   193.86912513
 C      9   7   6     1.369584719773   125.38331788   357.09635122
 S     10   9   7     1.656558007465   120.81967561   180.89934437
 N     10   9   7     1.379317799748   116.67131255     0.38992355
 C     12  10   9     1.489612201422   124.71148524     3.45271541
 C     13  12  10     1.565272297785    93.57366881   248.88081036
 C     14  13  12     1.426378837278   115.07422623   237.48207903
 C     15  14  13     1.399754004696   123.12613248   190.78857760
 C     16  15  14     1.395776507544   119.17121044   359.38169589
 C     17  16  15     1.401955875664   119.41865087     0.69619341
 O     18  17  16     1.356090796018   118.13125425   178.44455517
 C     18  17  16     1.410464063026   121.37489891     0.27081661
 H      1   2   3     1.096542318196   110.40719786   285.21663476
 H      1   2   3     1.096659001633   110.59464181   165.30813388
 H      1   2   3     1.098290102363   111.01326668    45.33772880
 H      2   1   3     1.095946455271   112.78721306   126.03016796
 H      2   1   3     1.100142483017   107.53630724   245.75630959
 H      8   7   6     1.100574379552   110.25141906   306.87796773
 H      8   7   6     1.096674873989   113.62863610   187.97518283
 H      8   7   6     1.095151562508   111.18786403    65.55662914
 H      9   7   6     1.009558922673   119.25576327   172.27903442
 H     12  10   9     1.011880296602   114.16649893   186.02810703
 H     13  12  10     1.089427829350   124.89536534   153.29809105
 H     15  14  13     1.087536417709   120.94199808     6.68983133
 H     16  15  14     1.090539316685   120.09795681   177.80906443
 H     17  16  15     1.086490742901   119.43974348   179.59137768
 H     19  18  17     0.971410828260   106.91152494     3.69879283
 H     20  18  17     1.082284248346   118.46641909   176.64779824

---------------------------
INTERNAL COORDINATES (A.U.)
---------------------------
 C      0   0   0     0.000000000000     0.00000000     0.00000000
 C      1   0   0     2.909170465983     0.00000000     0.00000000
 O      2   1   0     2.701613468496   107.22665115     0.00000000
 C      3   2   1     2.579955920748   119.99381649   180.00000226
 O      4   3   2     2.301692582683   121.88883950    24.48027774
 C      4   3   2     2.835392282922   111.60654431   204.07345530
 C      6   4   3     2.572734582491   121.51119676   188.03957045
 C      7   6   4     2.870280382837   126.09106132   355.51846712
 N      7   6   4     2.643323886721   120.30210829   193.86912513
 C      9   7   6     2.588140037575   125.38331788   357.09635122
 S     10   9   7     3.130440959063   120.81967561   180.89934437
 N     10   9   7     2.606532893167   116.67131255     0.38992355
 C     12  10   9     2.814959106435   124.71148524     3.45271541
 C     13  12  10     2.957935967827    93.57366881   248.88081036
 C     14  13  12     2.695465365676   115.07422623   237.48207903
 C     15  14  13     2.645151723735   123.12613248   190.78857760
 C     16  15  14     2.637635343419   119.17121044   359.38169589
 C     17  16  15     2.649312656846   119.41865087     0.69619341
 O     18  17  16     2.562640217206   118.13125425   178.44455517
 C     18  17  16     2.665390800858   121.37489891     0.27081661
 H      1   2   3     2.072164675645   110.40719786   285.21663476
 H      1   2   3     2.072385175386   110.59464181   165.30813388
 H      1   2   3     2.075467509062   111.01326668    45.33772880
 H      2   1   3     2.071038657903   112.78721306   126.03016796
 H      2   1   3     2.078968001193   107.53630724   245.75630959
 H      8   7   6     2.079784167363   110.25141906   306.87796773
 H      8   7   6     2.072415169791   113.62863610   187.97518283
 H      8   7   6     2.069536528276   111.18786403    65.55662914
 H      9   7   6     1.907789879908   119.25576327   172.27903442
 H     12  10   9     1.912176640888   114.16649893   186.02810703
 H     13  12  10     2.058720240145   124.89536534   153.29809105
 H     15  14  13     2.055145990136   120.94199808     6.68983133
 H     16  15  14     2.060820646807   120.09795681   177.80906443
 H     17  16  15     2.053169951123   119.43974348   179.59137768
 H     19  18  17     1.835700428937   106.91152494     3.69879283
 H     20  18  17     2.045220828431   118.46641909   176.64779824

---------------------
BASIS SET INFORMATION
---------------------
There are 5 groups of distinct atoms

 Group   1 Type C   : 18s5p2d1f contracted to 4s3p2d1f pattern {8811/311/11/1}
 Group   2 Type O   : 18s5p2d1f contracted to 4s3p2d1f pattern {8811/311/11/1}
 Group   3 Type N   : 18s5p2d1f contracted to 4s3p2d1f pattern {8811/311/11/1}
 Group   4 Type S   : 41s16p2d1f contracted to 5s4p2d1f pattern {13131311/7711/11/1}
 Group   5 Type H   : 5s2p1d contracted to 3s2p1d pattern {311/11/1}

Atom   0C    basis set group =>   1
Atom   1C    basis set group =>   1
Atom   2O    basis set group =>   2
Atom   3C    basis set group =>   1
Atom   4O    basis set group =>   2
Atom   5C    basis set group =>   1
Atom   6C    basis set group =>   1
Atom   7C    basis set group =>   1
Atom   8N    basis set group =>   3
Atom   9C    basis set group =>   1
Atom  10S    basis set group =>   4
Atom  11N    basis set group =>   3
Atom  12C    basis set group =>   1
Atom  13C    basis set group =>   1
Atom  14C    basis set group =>   1
Atom  15C    basis set group =>   1
Atom  16C    basis set group =>   1
Atom  17C    basis set group =>   1
Atom  18O    basis set group =>   2
Atom  19C    basis set group =>   1
Atom  20H    basis set group =>   5
Atom  21H    basis set group =>   5
Atom  22H    basis set group =>   5
Atom  23H    basis set group =>   5
Atom  24H    basis set group =>   5
Atom  25H    basis set group =>   5
Atom  26H    basis set group =>   5
Atom  27H    basis set group =>   5
Atom  28H    basis set group =>   5
Atom  29H    basis set group =>   5
Atom  30H    basis set group =>   5
Atom  31H    basis set group =>   5
Atom  32H    basis set group =>   5
Atom  33H    basis set group =>   5
Atom  34H    basis set group =>   5
Atom  35H    basis set group =>   5
---------------------------------
AUXILIARY/C BASIS SET INFORMATION
---------------------------------
There are 5 groups of distinct atoms

 Group   1 Type C   : 8s6p5d3f1g contracted to 8s6p5d3f1g pattern {11111111/111111/11111/111/1}
 Group   2 Type O   : 8s6p5d3f1g contracted to 8s6p5d3f1g pattern {11111111/111111/11111/111/1}
 Group   3 Type N   : 8s6p5d3f1g contracted to 8s6p5d3f1g pattern {11111111/111111/11111/111/1}
 Group   4 Type S   : 10s8p7d5f2g contracted to 10s8p7d5f2g pattern {1111111111/11111111/1111111/11111/11}
 Group   5 Type H   : 4s3p2d1f contracted to 4s3p2d1f pattern {1111/111/11/1}

Atom   0C    basis set group =>   1
Atom   1C    basis set group =>   1
Atom   2O    basis set group =>   2
Atom   3C    basis set group =>   1
Atom   4O    basis set group =>   2
Atom   5C    basis set group =>   1
Atom   6C    basis set group =>   1
Atom   7C    basis set group =>   1
Atom   8N    basis set group =>   3
Atom   9C    basis set group =>   1
Atom  10S    basis set group =>   4
Atom  11N    basis set group =>   3
Atom  12C    basis set group =>   1
Atom  13C    basis set group =>   1
Atom  14C    basis set group =>   1
Atom  15C    basis set group =>   1
Atom  16C    basis set group =>   1
Atom  17C    basis set group =>   1
Atom  18O    basis set group =>   2
Atom  19C    basis set group =>   1
Atom  20H    basis set group =>   5
Atom  21H    basis set group =>   5
Atom  22H    basis set group =>   5
Atom  23H    basis set group =>   5
Atom  24H    basis set group =>   5
Atom  25H    basis set group =>   5
Atom  26H    basis set group =>   5
Atom  27H    basis set group =>   5
Atom  28H    basis set group =>   5
Atom  29H    basis set group =>   5
Atom  30H    basis set group =>   5
Atom  31H    basis set group =>   5
Atom  32H    basis set group =>   5
Atom  33H    basis set group =>   5
Atom  34H    basis set group =>   5
Atom  35H    basis set group =>   5

Checking for AutoStart:
The File: G2_CONFS/Conf26.orca.gbw exists
Trying to determine its content:
     ... Fine, the file contains calculation information
     ... Fine, the calculation information was read
     ... Fine, the file contains a basis set
     ... Fine, the basis set was read
     ... Fine, the file contains a geometry
     ... Fine, the geometry was read
     ... The file does not contain orbitals - skipping AutoStart
------------------------------------------------------------------------------
                           ORCA GTO INTEGRAL CALCULATION
------------------------------------------------------------------------------

                         BASIS SET STATISTICS AND STARTUP INFO

 # of primitive gaussian shells          ...  682
 # of primitive gaussian functions       ... 1312
 # of contracted shells                  ...  298
 # of contracted basis functions         ...  828
 Highest angular momentum                ...    3
 Maximum contraction depth               ...   13
 Integral package used                   ... LIBINT
 Integral threshhold            Thresh   ...  2.500e-11
 Primitive cut-off              TCut     ...  2.500e-12


------------------------------ INTEGRAL EVALUATION ----------------------------


 * One electron integrals 
 Pre-screening matrix                    ... done
 Shell pair data                         ... done (   0.014 sec)

-------------------------------------------------------------------------------
                                 ORCA SCF
-------------------------------------------------------------------------------

------------
SCF SETTINGS
------------
Hamiltonian:
 Ab initio Hamiltonian  Method          .... Hartree-Fock(GTOs)


General Settings:
 Integral files         IntName         .... G2_CONFS/Conf26.orca
 Hartree-Fock type      HFTyp           .... RHF
 Total Charge           Charge          ....    0
 Multiplicity           Mult            ....    1
 Number of Electrons    NEL             ....  154
 Basis Dimension        Dim             ....  828
 Nuclear Repulsion      ENuc            ....   1702.9419905109 Eh

Convergence Acceleration:
 DIIS                   CNVDIIS         .... on
   Start iteration      DIISMaxIt       ....    12
   Startup error        DIISStart       ....  0.200000
   # of expansion vecs  DIISMaxEq       ....     5
   Bias factor          DIISBfac        ....   1.050
   Max. coefficient     DIISMaxC        ....  10.000
 Newton-Raphson         CNVNR           .... off
 SOSCF                  CNVSOSCF        .... on
   Start iteration      SOSCFMaxIt      ....   150
   Startup grad/error   SOSCFStart      ....  0.003300
 Level Shifting         CNVShift        .... on
   Level shift para.    LevelShift      ....    0.2500
   Turn off err/grad.   ShiftErr        ....    0.0010
 Zerner damping         CNVZerner       .... off
 Static damping         CNVDamp         .... on
   Fraction old density DampFac         ....    0.7000
   Max. Damping (<1)    DampMax         ....    0.9800
   Min. Damping (>=0)   DampMin         ....    0.0000
   Turn off err/grad.   DampErr         ....    0.1000
 Fernandez-Rico         CNVRico         .... off

SCF Procedure:
 Maximum # iterations   MaxIter         ....   125
 SCF integral mode      SCFMode         .... Direct
   Integral package                     .... LIBINT
 Reset frequency        DirectResetFreq ....    20
 Integral Threshold     Thresh          ....  2.500e-11 Eh
 Primitive CutOff       TCut            ....  2.500e-12 Eh

Convergence Tolerance:
 Convergence Check Mode ConvCheckMode   .... Total+1el-Energy
 Convergence forced     ConvForced      .... 1
 Energy Change          TolE            ....  1.000e-08 Eh
 1-El. energy change                    ....  1.000e-05 Eh
 Orbital Gradient       TolG            ....  1.000e-05
 Orbital Rotation angle TolX            ....  1.000e-05
 DIIS Error             TolErr          ....  5.000e-07


Diagonalization of the overlap matrix:
Smallest eigenvalue                        ... 3.408e-05
Time for diagonalization                   ...    0.112 sec
Threshold for overlap eigenvalues          ... 1.000e-08
Number of eigenvalues below threshold      ... 0
Time for construction of square roots      ...    0.062 sec
Total time needed                          ...    0.177 sec

-------------------
DFT GRID GENERATION
-------------------

General Integration Accuracy     IntAcc      ...  4.340
Radial Grid Type                 RadialGrid  ... Gauss-Chebyshev
Angular Grid (max. acc.)         AngularGrid ... Lebedev-110
Angular grid pruning method      GridPruning ... 3 (G Style)
Weight generation scheme         WeightScheme... Becke
Basis function cutoff            BFCut       ...    1.0000e-11
Integration weight cutoff        WCut        ...    1.0000e-14
Grids for H and He will be reduced by one unit

# of grid points (after initial pruning)     ...  46246 (   0.0 sec)
# of grid points (after weights+screening)   ...  41326 (   0.3 sec)
nearest neighbour list constructed           ...    0.0 sec
Grid point re-assignment to atoms done       ...    0.0 sec
Grid point division into batches done        ...    0.0 sec
Reduced shell lists constructed in    0.9 sec

Total number of grid points                  ...    41326
Total number of batches                      ...      665
Average number of points per batch           ...       62
Average number of grid points per atom       ...     1148
Average number of shells per batch           ...   147.71 (49.57%)
Average number of basis functions per batch  ...   375.49 (45.35%)
Average number of large shells per batch     ...    94.57 (64.03%)
Average number of large basis fcns per batch ...   243.77 (64.92%)
Maximum spatial batch extension              ...  20.31, 22.19, 20.41 au
Average spatial batch extension              ...   3.63,  3.36,  3.55 au

Time for grid setup =    1.253 sec

------------------------------
INITIAL GUESS: MODEL POTENTIAL
------------------------------
Loading Hartree-Fock densities                     ... done
Calculating cut-offs                               ... done
Setting up the integral package                    ... done
Initializing the effective Hamiltonian             ... done
Starting the Coulomb interaction                   ... done (   3.0 sec)
Reading the grid                                   ... done
Mapping shells                                     ... done
Starting the XC term evaluation                    ... done (   1.3 sec)
Transforming the Hamiltonian                       ... done (   0.0 sec)
Diagonalizing the Hamiltonian                      ... done (   0.1 sec)
Back transforming the eigenvectors                 ... done (   0.0 sec)
Now organizing SCF variables                       ... done
                      ------------------
                      INITIAL GUESS DONE (   6.0 sec)
                      ------------------
--------------
SCF ITERATIONS
--------------
ITER       Energy         Delta-E        Max-DP      RMS-DP      [F,P]     Damp
               ***  Starting incremental Fock matrix formation  ***
  0  -1269.9529292983   0.000000000000 0.04934598  0.00043987  0.3052678 0.7000
  1  -1270.2215454967  -0.268616198484 0.03609873  0.00035698  0.1797735 0.7000
                               ***Turning on DIIS***
  2  -1270.3887472619  -0.167201765210 0.02584649  0.00024124  0.1096735 0.7000
  3  -1272.4968715111  -2.108124249111 0.06312717  0.00052187  0.0829381 0.0000
  4  -1270.7000820371   1.796789473954 0.00706550  0.00009372  0.0077032 0.0000
  5  -1270.7592107313  -0.059128694204 0.00323176  0.00004987  0.0047453 0.0000
                      *** Initiating the SOSCF procedure ***
                           *** Shutting down DIIS ***
                      *** Re-Reading the Fockian *** 
                      *** Removing any level shift *** 
ITER      Energy       Delta-E        Grad      Rot      Max-DP    RMS-DP
  6  -1270.73728492   0.0219258091  0.001624  0.001624  0.001663  0.000025
               *** Restarting incremental Fock matrix formation ***
  7  -1270.75200781  -0.0147228858  0.000777  0.001882  0.001224  0.000016
  8  -1270.75205652  -0.0000487115  0.000316  0.002034  0.001341  0.000016
  9  -1270.75207447  -0.0000179516  0.000147  0.000411  0.000331  0.000004
 10  -1270.75207680  -0.0000023312  0.000044  0.000128  0.000125  0.000002
 11  -1270.75207703  -0.0000002288  0.000027  0.000131  0.000103  0.000001
 12  -1270.75207711  -0.0000000752  0.000008  0.000036  0.000036  0.000000
 13  -1270.75207711  -0.0000000051  0.000003  0.000011  0.000008  0.000000
                  ***Gradient check signals convergence***
              ***Rediagonalizing the Fockian in SOSCF/NRSCF***

               *****************************************************
               *                     SUCCESS                       *
               *           SCF CONVERGED AFTER  14 CYCLES          *
               *****************************************************


----------------
TOTAL SCF ENERGY
----------------

Total Energy       :        -1270.75207710 Eh          -34578.92198 eV

Components:
Nuclear Repulsion  :         1702.94199051 Eh           46339.40741 eV
Electronic Energy  :        -2973.69406761 Eh          -80918.32939 eV
One Electron Energy:        -5127.03336853 Eh         -139513.67070 eV
Two Electron Energy:         2153.33930092 Eh           58595.34131 eV

Virial components:
Potential Energy   :        -2539.63409781 Eh          -69106.95713 eV
Kinetic Energy     :         1268.88202070 Eh           34528.03515 eV
Virial Ratio       :            2.00147378


---------------
SCF CONVERGENCE
---------------

  Last Energy change         ...    8.0536e-09  Tolerance :   1.0000e-08
  Last MAX-Density change    ...    2.4745e-06  Tolerance :   1.0000e-07
  Last RMS-Density change    ...    3.3067e-08  Tolerance :   5.0000e-09
  Last Orbital Gradient      ...    1.2615e-06  Tolerance :   1.0000e-05
  Last Orbital Rotation      ...    3.1347e-06  Tolerance :   1.0000e-05

             **** THE GBW FILE WAS UPDATED (G2_CONFS/Conf26.orca.gbw) ****
             **** DENSITY FILE WAS UPDATED (G2_CONFS/Conf26.orca.scfp) ****
             **** ENERGY FILE WAS UPDATED (G2_CONFS/Conf26.orca.en.tmp) ****
             **** THE GBW FILE WAS UPDATED (G2_CONFS/Conf26.orca.gbw) ****
             **** DENSITY FILE WAS UPDATED (G2_CONFS/Conf26.orca.scfp) ****
----------------
ORBITAL ENERGIES
----------------

  NO   OCC          E(Eh)            E(eV) 
   0   2.0000     -91.891408     -2500.4923 
   1   2.0000     -20.601694      -560.6006 
   2   2.0000     -20.591676      -560.3280 
   3   2.0000     -20.546190      -559.0902 
   4   2.0000     -15.629996      -425.3138 
   5   2.0000     -15.614506      -424.8923 
   6   2.0000     -11.396762      -310.1217 
   7   2.0000     -11.386894      -309.8531 
   8   2.0000     -11.337942      -308.5211 
   9   2.0000     -11.318317      -307.9871 
  10   2.0000     -11.311052      -307.7894 
  11   2.0000     -11.299110      -307.4644 
  12   2.0000     -11.265523      -306.5505 
  13   2.0000     -11.258766      -306.3666 
  14   2.0000     -11.253290      -306.2176 
  15   2.0000     -11.247832      -306.0691 
  16   2.0000     -11.236002      -305.7472 
  17   2.0000     -11.234923      -305.7178 
  18   2.0000     -11.234171      -305.6973 
  19   2.0000     -11.230503      -305.5975 
  20   2.0000      -8.896282      -242.0801 
  21   2.0000      -6.577827      -178.9918 
  22   2.0000      -6.575849      -178.9379 
  23   2.0000      -6.575252      -178.9217 
  24   2.0000      -1.456587       -39.6358 
  25   2.0000      -1.411772       -38.4163 
  26   2.0000      -1.359058       -36.9819 
  27   2.0000      -1.340494       -36.4767 
  28   2.0000      -1.240885       -33.7662 
  29   2.0000      -1.152064       -31.3493 
  30   2.0000      -1.120570       -30.4923 
  31   2.0000      -1.044934       -28.4341 
  32   2.0000      -1.039009       -28.2729 
  33   2.0000      -1.009062       -27.4580 
  34   2.0000      -0.995492       -27.0887 
  35   2.0000      -0.982877       -26.7454 
  36   2.0000      -0.924351       -25.1529 
  37   2.0000      -0.892136       -24.2763 
  38   2.0000      -0.847741       -23.0682 
  39   2.0000      -0.831065       -22.6144 
  40   2.0000      -0.827927       -22.5290 
  41   2.0000      -0.819522       -22.3003 
  42   2.0000      -0.767671       -20.8894 
  43   2.0000      -0.727158       -19.7870 
  44   2.0000      -0.721489       -19.6327 
  45   2.0000      -0.697135       -18.9700 
  46   2.0000      -0.691136       -18.8068 
  47   2.0000      -0.682822       -18.5805 
  48   2.0000      -0.678643       -18.4668 
  49   2.0000      -0.665295       -18.1036 
  50   2.0000      -0.650419       -17.6988 
  51   2.0000      -0.645163       -17.5558 
  52   2.0000      -0.634203       -17.2576 
  53   2.0000      -0.602813       -16.4034 
  54   2.0000      -0.598904       -16.2970 
  55   2.0000      -0.593403       -16.1473 
  56   2.0000      -0.590059       -16.0563 
  57   2.0000      -0.575301       -15.6547 
  58   2.0000      -0.569446       -15.4954 
  59   2.0000      -0.567546       -15.4437 
  60   2.0000      -0.553400       -15.0588 
  61   2.0000      -0.552481       -15.0338 
  62   2.0000      -0.545356       -14.8399 
  63   2.0000      -0.525072       -14.2879 
  64   2.0000      -0.516788       -14.0625 
  65   2.0000      -0.512667       -13.9504 
  66   2.0000      -0.506873       -13.7927 
  67   2.0000      -0.499435       -13.5903 
  68   2.0000      -0.486430       -13.2364 
  69   2.0000      -0.460496       -12.5307 
  70   2.0000      -0.454995       -12.3810 
  71   2.0000      -0.451259       -12.2794 
  72   2.0000      -0.346190        -9.4203 
  73   2.0000      -0.345487        -9.4012 
  74   2.0000      -0.328817        -8.9476 
  75   2.0000      -0.316149        -8.6028 
  76   2.0000      -0.309594        -8.4245 
  77   0.0000       0.067320         1.8319 
  78   0.0000       0.111867         3.0440 
  79   0.0000       0.124024         3.3749 
  80   0.0000       0.131528         3.5791 
  81   0.0000       0.138240         3.7617 
  82   0.0000       0.143764         3.9120 
  83   0.0000       0.152044         4.1373 
  84   0.0000       0.156749         4.2654 
  85   0.0000       0.164676         4.4811 
  86   0.0000       0.171591         4.6692 
  87   0.0000       0.179351         4.8804 
  88   0.0000       0.185344         5.0435 
  89   0.0000       0.197579         5.3764 
  90   0.0000       0.209493         5.7006 
  91   0.0000       0.210371         5.7245 
  92   0.0000       0.212276         5.7763 
  93   0.0000       0.219269         5.9666 
  94   0.0000       0.225009         6.1228 
  95   0.0000       0.237157         6.4534 
  96   0.0000       0.238508         6.4901 
  97   0.0000       0.244597         6.6558 
  98   0.0000       0.261926         7.1274 
  99   0.0000       0.274229         7.4622 
 100   0.0000       0.286824         7.8049 
 101   0.0000       0.298138         8.1128 
 102   0.0000       0.307440         8.3659 
 103   0.0000       0.315204         8.5771 
 104   0.0000       0.321121         8.7381 
 105   0.0000       0.330234         8.9861 
 106   0.0000       0.333659         9.0793 
 107   0.0000       0.355416         9.6714 
 108   0.0000       0.360084         9.7984 
 109   0.0000       0.367418         9.9980 
 110   0.0000       0.367498        10.0001 
 111   0.0000       0.384132        10.4528 
 112   0.0000       0.384602        10.4655 
 113   0.0000       0.390013        10.6128 
 114   0.0000       0.396770        10.7967 
 115   0.0000       0.407434        11.0868 
 116   0.0000       0.420417        11.4401 
 117   0.0000       0.421450        11.4682 
 118   0.0000       0.430411        11.7121 
 119   0.0000       0.435207        11.8426 
 120   0.0000       0.438421        11.9301 
 121   0.0000       0.451304        12.2806 
 122   0.0000       0.456775        12.4295 
 123   0.0000       0.463280        12.6065 
 124   0.0000       0.466993        12.7075 
 125   0.0000       0.468189        12.7401 
 126   0.0000       0.475371        12.9355 
 127   0.0000       0.479693        13.0531 
 128   0.0000       0.481799        13.1104 
 129   0.0000       0.490448        13.3458 
 130   0.0000       0.497625        13.5411 
 131   0.0000       0.507133        13.7998 
 132   0.0000       0.507310        13.8046 
 133   0.0000       0.519854        14.1459 
 134   0.0000       0.521594        14.1933 
 135   0.0000       0.526302        14.3214 
 136   0.0000       0.530858        14.4454 
 137   0.0000       0.539615        14.6837 
 138   0.0000       0.542307        14.7569 
 139   0.0000       0.547800        14.9064 
 140   0.0000       0.553121        15.0512 
 141   0.0000       0.554927        15.1003 
 142   0.0000       0.562948        15.3186 
 143   0.0000       0.568022        15.4567 
 144   0.0000       0.572844        15.5879 
 145   0.0000       0.575624        15.6635 
 146   0.0000       0.584083        15.8937 
 147   0.0000       0.589039        16.0286 
 148   0.0000       0.595074        16.1928 
 149   0.0000       0.598653        16.2902 
 150   0.0000       0.606444        16.5022 
 151   0.0000       0.610369        16.6090 
 152   0.0000       0.613973        16.7071 
 153   0.0000       0.618911        16.8414 
 154   0.0000       0.621816        16.9205 
 155   0.0000       0.627981        17.0882 
 156   0.0000       0.631146        17.1744 
 157   0.0000       0.636128        17.3099 
 158   0.0000       0.636533        17.3209 
 159   0.0000       0.644644        17.5416 
 160   0.0000       0.647990        17.6327 
 161   0.0000       0.649122        17.6635 
 162   0.0000       0.656570        17.8662 
 163   0.0000       0.658073        17.9071 
 164   0.0000       0.660593        17.9757 
 165   0.0000       0.668774        18.1983 
 166   0.0000       0.672217        18.2919 
 167   0.0000       0.679987        18.5034 
 168   0.0000       0.685463        18.6524 
 169   0.0000       0.694510        18.8986 
 170   0.0000       0.697084        18.9686 
 171   0.0000       0.702974        19.1289 
 172   0.0000       0.708747        19.2860 
 173   0.0000       0.718740        19.5579 
 174   0.0000       0.726731        19.7754 
 175   0.0000       0.736989        20.0545 
 176   0.0000       0.738667        20.1002 
 177   0.0000       0.746125        20.3031 
 178   0.0000       0.752094        20.4655 
 179   0.0000       0.758462        20.6388 
 180   0.0000       0.759515        20.6675 
 181   0.0000       0.770223        20.9588 
 182   0.0000       0.781960        21.2782 
 183   0.0000       0.785215        21.3668 
 184   0.0000       0.795799        21.6548 
 185   0.0000       0.805487        21.9184 
 186   0.0000       0.818012        22.2592 
 187   0.0000       0.825057        22.4509 
 188   0.0000       0.831707        22.6319 
 189   0.0000       0.837117        22.7791 
 190   0.0000       0.845122        22.9969 
 191   0.0000       0.850898        23.1541 
 192   0.0000       0.854417        23.2499 
 193   0.0000       0.860196        23.4071 
 194   0.0000       0.874863        23.8062 
 195   0.0000       0.876213        23.8430 
 196   0.0000       0.880924        23.9712 
 197   0.0000       0.888620        24.1806 
 198   0.0000       0.890443        24.2302 
 199   0.0000       0.899906        24.4877 
 200   0.0000       0.906771        24.6745 
 201   0.0000       0.910289        24.7702 
 202   0.0000       0.919727        25.0270 
 203   0.0000       0.931986        25.3606 
 204   0.0000       0.939747        25.5718 
 205   0.0000       0.948298        25.8045 
 206   0.0000       0.951092        25.8805 
 207   0.0000       0.959119        26.0990 
 208   0.0000       0.972780        26.4707 
 209   0.0000       0.976984        26.5851 
 210   0.0000       0.985852        26.8264 
 211   0.0000       0.989233        26.9184 
 212   0.0000       0.996814        27.1247 
 213   0.0000       1.004549        27.3352 
 214   0.0000       1.008572        27.4446 
 215   0.0000       1.014375        27.6026 
 216   0.0000       1.027355        27.9558 
 217   0.0000       1.033624        28.1263 
 218   0.0000       1.036268        28.1983 
 219   0.0000       1.045325        28.4447 
 220   0.0000       1.050844        28.5949 
 221   0.0000       1.058175        28.7944 
 222   0.0000       1.065274        28.9876 
 223   0.0000       1.069159        29.0933 
 224   0.0000       1.078321        29.3426 
 225   0.0000       1.086458        29.5640 
 226   0.0000       1.098377        29.8884 
 227   0.0000       1.101714        29.9791 
 228   0.0000       1.117400        30.4060 
 229   0.0000       1.121607        30.5205 
 230   0.0000       1.122947        30.5569 
 231   0.0000       1.134031        30.8586 
 232   0.0000       1.137592        30.9555 
 233   0.0000       1.143424        31.1142 
 234   0.0000       1.148587        31.2546 
 235   0.0000       1.157810        31.5056 
 236   0.0000       1.160042        31.5664 
 237   0.0000       1.169254        31.8170 
 238   0.0000       1.185303        32.2537 
 239   0.0000       1.191668        32.4269 
 240   0.0000       1.196743        32.5650 
 241   0.0000       1.209216        32.9044 
 242   0.0000       1.211025        32.9537 
 243   0.0000       1.217024        33.1169 
 244   0.0000       1.224784        33.3281 
 245   0.0000       1.229882        33.4668 
 246   0.0000       1.233710        33.5710 
 247   0.0000       1.242057        33.7981 
 248   0.0000       1.250172        34.0189 
 249   0.0000       1.251399        34.0523 
 250   0.0000       1.258792        34.2535 
 251   0.0000       1.264488        34.4085 
 252   0.0000       1.269596        34.5475 
 253   0.0000       1.279135        34.8070 
 254   0.0000       1.283177        34.9170 
 255   0.0000       1.295192        35.2440 
 256   0.0000       1.298706        35.3396 
 257   0.0000       1.314229        35.7620 
 258   0.0000       1.321105        35.9491 
 259   0.0000       1.337430        36.3933 
 260   0.0000       1.338050        36.4102 
 261   0.0000       1.349135        36.7118 
 262   0.0000       1.354270        36.8516 
 263   0.0000       1.365499        37.1571 
 264   0.0000       1.366849        37.1939 
 265   0.0000       1.370953        37.3055 
 266   0.0000       1.392034        37.8792 
 267   0.0000       1.393913        37.9303 
 268   0.0000       1.407352        38.2960 
 269   0.0000       1.415184        38.5091 
 270   0.0000       1.419791        38.6345 
 271   0.0000       1.430027        38.9130 
 272   0.0000       1.435372        39.0584 
 273   0.0000       1.441562        39.2269 
 274   0.0000       1.443824        39.2885 
 275   0.0000       1.462902        39.8076 
 276   0.0000       1.467875        39.9429 
 277   0.0000       1.470219        40.0067 
 278   0.0000       1.481819        40.3223 
 279   0.0000       1.489620        40.5346 
 280   0.0000       1.496712        40.7276 
 281   0.0000       1.499267        40.7971 
 282   0.0000       1.501146        40.8483 
 283   0.0000       1.505138        40.9569 
 284   0.0000       1.513419        41.1822 
 285   0.0000       1.523266        41.4502 
 286   0.0000       1.530267        41.6407 
 287   0.0000       1.533585        41.7310 
 288   0.0000       1.539205        41.8839 
 289   0.0000       1.550226        42.1838 
 290   0.0000       1.553835        42.2820 
 291   0.0000       1.559104        42.4254 
 292   0.0000       1.577289        42.9202 
 293   0.0000       1.581692        43.0400 
 294   0.0000       1.593101        43.3505 
 295   0.0000       1.596588        43.4454 
 296   0.0000       1.605113        43.6773 
 297   0.0000       1.611721        43.8572 
 298   0.0000       1.619968        44.0816 
 299   0.0000       1.630390        44.3652 
 300   0.0000       1.636909        44.5426 
 301   0.0000       1.640066        44.6285 
 302   0.0000       1.647583        44.8330 
 303   0.0000       1.654735        45.0276 
 304   0.0000       1.661361        45.2079 
 305   0.0000       1.669308        45.4242 
 306   0.0000       1.679103        45.6907 
 307   0.0000       1.683634        45.8140 
 308   0.0000       1.694414        46.1073 
 309   0.0000       1.707411        46.4610 
 310   0.0000       1.712989        46.6128 
 311   0.0000       1.716177        46.6996 
 312   0.0000       1.728870        47.0449 
 313   0.0000       1.741553        47.3901 
 314   0.0000       1.752058        47.6759 
 315   0.0000       1.766946        48.0811 
 316   0.0000       1.771989        48.2183 
 317   0.0000       1.778209        48.3875 
 318   0.0000       1.788993        48.6810 
 319   0.0000       1.792610        48.7794 
 320   0.0000       1.803643        49.0796 
 321   0.0000       1.808547        49.2131 
 322   0.0000       1.830734        49.8168 
 323   0.0000       1.834562        49.9210 
 324   0.0000       1.840726        50.0887 
 325   0.0000       1.862012        50.6679 
 326   0.0000       1.867757        50.8243 
 327   0.0000       1.887106        51.3508 
 328   0.0000       1.901595        51.7450 
 329   0.0000       1.911723        52.0206 
 330   0.0000       1.932084        52.5747 
 331   0.0000       1.935122        52.6574 
 332   0.0000       1.943001        52.8718 
 333   0.0000       1.959746        53.3274 
 334   0.0000       1.964177        53.4480 
 335   0.0000       1.973756        53.7086 
 336   0.0000       1.982005        53.9331 
 337   0.0000       1.989789        54.1449 
 338   0.0000       2.005075        54.5609 
 339   0.0000       2.016541        54.8729 
 340   0.0000       2.026861        55.1537 
 341   0.0000       2.034773        55.3690 
 342   0.0000       2.051901        55.8351 
 343   0.0000       2.060651        56.0732 
 344   0.0000       2.084866        56.7321 
 345   0.0000       2.113026        57.4984 
 346   0.0000       2.131599        58.0038 
 347   0.0000       2.142978        58.3134 
 348   0.0000       2.160986        58.8034 
 349   0.0000       2.182093        59.3778 
 350   0.0000       2.183540        59.4171 
 351   0.0000       2.197803        59.8053 
 352   0.0000       2.218661        60.3728 
 353   0.0000       2.221690        60.4553 
 354   0.0000       2.234700        60.8093 
 355   0.0000       2.254554        61.3495 
 356   0.0000       2.281382        62.0796 
 357   0.0000       2.284963        62.1770 
 358   0.0000       2.291054        62.3427 
 359   0.0000       2.307402        62.7876 
 360   0.0000       2.318631        63.0932 
 361   0.0000       2.331439        63.4417 
 362   0.0000       2.342965        63.7553 
 363   0.0000       2.352378        64.0115 
 364   0.0000       2.363831        64.3231 
 365   0.0000       2.376030        64.6551 
 366   0.0000       2.377291        64.6894 
 367   0.0000       2.384657        64.8898 
 368   0.0000       2.405164        65.4478 
 369   0.0000       2.426443        66.0269 
 370   0.0000       2.431884        66.1749 
 371   0.0000       2.456057        66.8327 
 372   0.0000       2.468368        67.1677 
 373   0.0000       2.479810        67.4791 
 374   0.0000       2.487090        67.6772 
 375   0.0000       2.497741        67.9670 
 376   0.0000       2.514106        68.4123 
 377   0.0000       2.518998        68.5454 
 378   0.0000       2.527440        68.7751 
 379   0.0000       2.534150        68.9577 
 380   0.0000       2.551578        69.4320 
 381   0.0000       2.568223        69.8849 
 382   0.0000       2.582559        70.2750 
 383   0.0000       2.597017        70.6684 
 384   0.0000       2.602019        70.8045 
 385   0.0000       2.607560        70.9553 
 386   0.0000       2.632369        71.6304 
 387   0.0000       2.639585        71.8268 
 388   0.0000       2.648939        72.0813 
 389   0.0000       2.661887        72.4336 
 390   0.0000       2.676558        72.8328 
 391   0.0000       2.679773        72.9203 
 392   0.0000       2.693457        73.2927 
 393   0.0000       2.708021        73.6890 
 394   0.0000       2.725179        74.1559 
 395   0.0000       2.729285        74.2676 
 396   0.0000       2.731837        74.3371 
 397   0.0000       2.744724        74.6877 
 398   0.0000       2.746899        74.7469 
 399   0.0000       2.757489        75.0351 
 400   0.0000       2.767399        75.3048 
 401   0.0000       2.781246        75.6816 
 402   0.0000       2.792202        75.9797 
 403   0.0000       2.796887        76.1072 
 404   0.0000       2.805772        76.3489 
 405   0.0000       2.814746        76.5931 
 406   0.0000       2.828120        76.9571 
 407   0.0000       2.841725        77.3273 
 408   0.0000       2.850614        77.5691 
 409   0.0000       2.870746        78.1170 
 410   0.0000       2.873518        78.1924 
 411   0.0000       2.881652        78.4137 
 412   0.0000       2.883543        78.4652 
 413   0.0000       2.901250        78.9470 
 414   0.0000       2.914668        79.3122 
 415   0.0000       2.917644        79.3931 
 416   0.0000       2.928700        79.6940 
 417   0.0000       2.938483        79.9602 
 418   0.0000       2.942651        80.0736 
 419   0.0000       2.945360        80.1473 
 420   0.0000       2.958867        80.5149 
 421   0.0000       2.973007        80.8996 
 422   0.0000       2.977574        81.0239 
 423   0.0000       2.986869        81.2768 
 424   0.0000       2.994836        81.4936 
 425   0.0000       3.009236        81.8855 
 426   0.0000       3.017505        82.1105 
 427   0.0000       3.023156        82.2643 
 428   0.0000       3.025123        82.3178 
 429   0.0000       3.039294        82.7034 
 430   0.0000       3.046719        82.9054 
 431   0.0000       3.050671        83.0130 
 432   0.0000       3.062950        83.3471 
 433   0.0000       3.068193        83.4898 
 434   0.0000       3.081270        83.8456 
 435   0.0000       3.087496        84.0150 
 436   0.0000       3.095203        84.2248 
 437   0.0000       3.100110        84.3583 
 438   0.0000       3.101753        84.4030 
 439   0.0000       3.110988        84.6543 
 440   0.0000       3.117871        84.8416 
 441   0.0000       3.125426        85.0472 
 442   0.0000       3.131757        85.2195 
 443   0.0000       3.137479        85.3752 
 444   0.0000       3.147897        85.6586 
 445   0.0000       3.150301        85.7241 
 446   0.0000       3.157562        85.9216 
 447   0.0000       3.171413        86.2985 
 448   0.0000       3.177795        86.4722 
 449   0.0000       3.183798        86.6355 
 450   0.0000       3.191110        86.8345 
 451   0.0000       3.198878        87.0459 
 452   0.0000       3.206637        87.2570 
 453   0.0000       3.207428        87.2786 
 454   0.0000       3.223364        87.7122 
 455   0.0000       3.237141        88.0871 
 456   0.0000       3.243591        88.2626 
 457   0.0000       3.249976        88.4363 
 458   0.0000       3.254629        88.5630 
 459   0.0000       3.258286        88.6625 
 460   0.0000       3.267798        88.9213 
 461   0.0000       3.276005        89.1446 
 462   0.0000       3.283783        89.3563 
 463   0.0000       3.285929        89.4147 
 464   0.0000       3.289901        89.5228 
 465   0.0000       3.301272        89.8322 
 466   0.0000       3.308682        90.0338 
 467   0.0000       3.317472        90.2730 
 468   0.0000       3.326098        90.5077 
 469   0.0000       3.329655        90.6045 
 470   0.0000       3.332951        90.6942 
 471   0.0000       3.338900        90.8561 
 472   0.0000       3.351199        91.1908 
 473   0.0000       3.353565        91.2551 
 474   0.0000       3.358658        91.3937 
 475   0.0000       3.367880        91.6447 
 476   0.0000       3.374620        91.8281 
 477   0.0000       3.376302        91.8738 
 478   0.0000       3.380109        91.9774 
 479   0.0000       3.386157        92.1420 
 480   0.0000       3.390746        92.2669 
 481   0.0000       3.400178        92.5236 
 482   0.0000       3.401440        92.5579 
 483   0.0000       3.409103        92.7664 
 484   0.0000       3.410429        92.8025 
 485   0.0000       3.417295        92.9893 
 486   0.0000       3.423653        93.1623 
 487   0.0000       3.427079        93.2556 
 488   0.0000       3.433561        93.4320 
 489   0.0000       3.441712        93.6537 
 490   0.0000       3.448113        93.8279 
 491   0.0000       3.453711        93.9803 
 492   0.0000       3.457739        94.0899 
 493   0.0000       3.462028        94.2066 
 494   0.0000       3.467587        94.3578 
 495   0.0000       3.475931        94.5849 
 496   0.0000       3.481198        94.7282 
 497   0.0000       3.487675        94.9045 
 498   0.0000       3.492854        95.0454 
 499   0.0000       3.501667        95.2852 
 500   0.0000       3.508486        95.4708 
 501   0.0000       3.525363        95.9300 
 502   0.0000       3.528191        96.0070 
 503   0.0000       3.532096        96.1132 
 504   0.0000       3.545934        96.4898 
 505   0.0000       3.551214        96.6334 
 506   0.0000       3.563402        96.9651 
 507   0.0000       3.570503        97.1583 
 508   0.0000       3.573224        97.2324 
 509   0.0000       3.578896        97.3867 
 510   0.0000       3.590902        97.7134 
 511   0.0000       3.599189        97.9389 
 512   0.0000       3.603813        98.0647 
 513   0.0000       3.607720        98.1710 
 514   0.0000       3.611579        98.2761 
 515   0.0000       3.620985        98.5320 
 516   0.0000       3.629506        98.7639 
 517   0.0000       3.632585        98.8477 
 518   0.0000       3.637407        98.9789 
 519   0.0000       3.640336        99.0586 
 520   0.0000       3.649863        99.3178 
 521   0.0000       3.656903        99.5094 
 522   0.0000       3.661436        99.6327 
 523   0.0000       3.665981        99.7564 
 524   0.0000       3.678320       100.0922 
 525   0.0000       3.684970       100.2731 
 526   0.0000       3.691719       100.4568 
 527   0.0000       3.700087       100.6845 
 528   0.0000       3.706291       100.8533 
 529   0.0000       3.709016       100.9275 
 530   0.0000       3.713711       101.0552 
 531   0.0000       3.721709       101.2729 
 532   0.0000       3.731991       101.5526 
 533   0.0000       3.734201       101.6128 
 534   0.0000       3.737324       101.6978 
 535   0.0000       3.743015       101.8526 
 536   0.0000       3.751532       102.0844 
 537   0.0000       3.754796       102.1732 
 538   0.0000       3.761318       102.3507 
 539   0.0000       3.767485       102.5185 
 540   0.0000       3.772650       102.6590 
 541   0.0000       3.783439       102.9526 
 542   0.0000       3.791618       103.1752 
 543   0.0000       3.801683       103.4491 
 544   0.0000       3.810516       103.6894 
 545   0.0000       3.811313       103.7111 
 546   0.0000       3.819226       103.9264 
 547   0.0000       3.823502       104.0428 
 548   0.0000       3.832500       104.2876 
 549   0.0000       3.843667       104.5915 
 550   0.0000       3.847757       104.7028 
 551   0.0000       3.853233       104.8518 
 552   0.0000       3.859187       105.0138 
 553   0.0000       3.867514       105.2404 
 554   0.0000       3.884509       105.7029 
 555   0.0000       3.894495       105.9746 
 556   0.0000       3.896921       106.0406 
 557   0.0000       3.912595       106.4671 
 558   0.0000       3.922804       106.7449 
 559   0.0000       3.925270       106.8120 
 560   0.0000       3.939407       107.1967 
 561   0.0000       3.941852       107.2633 
 562   0.0000       3.953056       107.5681 
 563   0.0000       3.960514       107.7711 
 564   0.0000       3.970442       108.0412 
 565   0.0000       3.974859       108.1614 
 566   0.0000       3.982933       108.3811 
 567   0.0000       4.011597       109.1611 
 568   0.0000       4.016534       109.2954 
 569   0.0000       4.024055       109.5001 
 570   0.0000       4.026484       109.5662 
 571   0.0000       4.034703       109.7898 
 572   0.0000       4.042205       109.9940 
 573   0.0000       4.053024       110.2884 
 574   0.0000       4.062401       110.5436 
 575   0.0000       4.068543       110.7107 
 576   0.0000       4.082847       111.0999 
 577   0.0000       4.092254       111.3559 
 578   0.0000       4.096638       111.4752 
 579   0.0000       4.102268       111.6284 
 580   0.0000       4.109864       111.8351 
 581   0.0000       4.112328       111.9021 
 582   0.0000       4.124965       112.2460 
 583   0.0000       4.126478       112.2872 
 584   0.0000       4.139944       112.6536 
 585   0.0000       4.144184       112.7690 
 586   0.0000       4.154777       113.0572 
 587   0.0000       4.159969       113.1985 
 588   0.0000       4.163439       113.2929 
 589   0.0000       4.172307       113.5343 
 590   0.0000       4.175256       113.6145 
 591   0.0000       4.181637       113.7881 
 592   0.0000       4.187567       113.9495 
 593   0.0000       4.196140       114.1828 
 594   0.0000       4.205085       114.4262 
 595   0.0000       4.210448       114.5721 
 596   0.0000       4.219634       114.8221 
 597   0.0000       4.224137       114.9446 
 598   0.0000       4.232240       115.1651 
 599   0.0000       4.234782       115.2343 
 600   0.0000       4.244547       115.5000 
 601   0.0000       4.265244       116.0632 
 602   0.0000       4.266218       116.0897 
 603   0.0000       4.275642       116.3461 
 604   0.0000       4.287757       116.6758 
 605   0.0000       4.291556       116.7792 
 606   0.0000       4.308915       117.2515 
 607   0.0000       4.311901       117.3328 
 608   0.0000       4.316023       117.4450 
 609   0.0000       4.325954       117.7152 
 610   0.0000       4.333482       117.9200 
 611   0.0000       4.341741       118.1448 
 612   0.0000       4.352861       118.4474 
 613   0.0000       4.369407       118.8976 
 614   0.0000       4.377141       119.1081 
 615   0.0000       4.382939       119.2658 
 616   0.0000       4.386638       119.3665 
 617   0.0000       4.396067       119.6231 
 618   0.0000       4.399549       119.7178 
 619   0.0000       4.406087       119.8957 
 620   0.0000       4.408465       119.9604 
 621   0.0000       4.417072       120.1946 
 622   0.0000       4.422828       120.3513 
 623   0.0000       4.427343       120.4741 
 624   0.0000       4.432667       120.6190 
 625   0.0000       4.438908       120.7888 
 626   0.0000       4.454172       121.2042 
 627   0.0000       4.455886       121.2508 
 628   0.0000       4.471349       121.6716 
 629   0.0000       4.478586       121.8685 
 630   0.0000       4.495554       122.3302 
 631   0.0000       4.499014       122.4244 
 632   0.0000       4.506245       122.6212 
 633   0.0000       4.517929       122.9391 
 634   0.0000       4.523962       123.1033 
 635   0.0000       4.534827       123.3989 
 636   0.0000       4.542420       123.6055 
 637   0.0000       4.554644       123.9382 
 638   0.0000       4.561456       124.1235 
 639   0.0000       4.565584       124.2358 
 640   0.0000       4.568933       124.3270 
 641   0.0000       4.574829       124.4874 
 642   0.0000       4.594408       125.0202 
 643   0.0000       4.599600       125.1615 
 644   0.0000       4.602140       125.2306 
 645   0.0000       4.618462       125.6747 
 646   0.0000       4.622186       125.7761 
 647   0.0000       4.632565       126.0585 
 648   0.0000       4.634348       126.1070 
 649   0.0000       4.637949       126.2050 
 650   0.0000       4.643809       126.3645 
 651   0.0000       4.657579       126.7392 
 652   0.0000       4.660974       126.8316 
 653   0.0000       4.678520       127.3090 
 654   0.0000       4.680753       127.3698 
 655   0.0000       4.695609       127.7740 
 656   0.0000       4.703177       127.9800 
 657   0.0000       4.720077       128.4398 
 658   0.0000       4.724739       128.5667 
 659   0.0000       4.740712       129.0013 
 660   0.0000       4.746348       129.1547 
 661   0.0000       4.758967       129.4981 
 662   0.0000       4.785722       130.2261 
 663   0.0000       4.791884       130.3938 
 664   0.0000       4.808113       130.8354 
 665   0.0000       4.821574       131.2017 
 666   0.0000       4.829675       131.4221 
 667   0.0000       4.834416       131.5511 
 668   0.0000       4.873934       132.6265 
 669   0.0000       4.884293       132.9084 
 670   0.0000       4.891622       133.1078 
 671   0.0000       4.911506       133.6489 
 672   0.0000       4.937815       134.3648 
 673   0.0000       4.968449       135.1984 
 674   0.0000       4.984490       135.6349 
 675   0.0000       4.991011       135.8123 
 676   0.0000       5.005926       136.2182 
 677   0.0000       5.009746       136.3221 
 678   0.0000       5.024471       136.7228 
 679   0.0000       5.027198       136.7970 
 680   0.0000       5.042513       137.2138 
 681   0.0000       5.057978       137.6346 
 682   0.0000       5.067444       137.8922 
 683   0.0000       5.095163       138.6464 
 684   0.0000       5.103545       138.8745 
 685   0.0000       5.130478       139.6074 
 686   0.0000       5.132154       139.6530 
 687   0.0000       5.136377       139.7679 
 688   0.0000       5.150581       140.1544 
 689   0.0000       5.164142       140.5234 
 690   0.0000       5.166970       140.6004 
 691   0.0000       5.177789       140.8948 
 692   0.0000       5.188212       141.1784 
 693   0.0000       5.194686       141.3546 
 694   0.0000       5.203628       141.5979 
 695   0.0000       5.221045       142.0719 
 696   0.0000       5.221914       142.0955 
 697   0.0000       5.229889       142.3125 
 698   0.0000       5.238731       142.5531 
 699   0.0000       5.245888       142.7479 
 700   0.0000       5.256589       143.0391 
 701   0.0000       5.279469       143.6617 
 702   0.0000       5.285553       143.8272 
 703   0.0000       5.315445       144.6406 
 704   0.0000       5.320530       144.7790 
 705   0.0000       5.341971       145.3624 
 706   0.0000       5.348424       145.5380 
 707   0.0000       5.353056       145.6640 
 708   0.0000       5.372208       146.1852 
 709   0.0000       5.378509       146.3567 
 710   0.0000       5.386172       146.5652 
 711   0.0000       5.394851       146.8014 
 712   0.0000       5.414583       147.3383 
 713   0.0000       5.464084       148.6853 
 714   0.0000       5.470499       148.8599 
 715   0.0000       5.476100       149.0123 
 716   0.0000       5.494511       149.5132 
 717   0.0000       5.500427       149.6742 
 718   0.0000       5.506739       149.8460 
 719   0.0000       5.521065       150.2358 
 720   0.0000       5.525870       150.3666 
 721   0.0000       5.537446       150.6816 
 722   0.0000       5.547034       150.9425 
 723   0.0000       5.570035       151.5683 
 724   0.0000       5.587414       152.0413 
 725   0.0000       5.593208       152.1989 
 726   0.0000       5.604706       152.5118 
 727   0.0000       5.615360       152.8017 
 728   0.0000       5.622824       153.0048 
 729   0.0000       5.635908       153.3609 
 730   0.0000       5.655954       153.9063 
 731   0.0000       5.659589       154.0052 
 732   0.0000       5.663087       154.1004 
 733   0.0000       5.673805       154.3921 
 734   0.0000       5.678331       154.5153 
 735   0.0000       5.688218       154.7843 
 736   0.0000       5.712392       155.4421 
 737   0.0000       5.722643       155.7210 
 738   0.0000       5.745521       156.3436 
 739   0.0000       5.760298       156.7457 
 740   0.0000       5.777319       157.2088 
 741   0.0000       5.786096       157.4477 
 742   0.0000       5.796162       157.7216 
 743   0.0000       5.813893       158.2041 
 744   0.0000       5.840099       158.9172 
 745   0.0000       5.855382       159.3331 
 746   0.0000       5.869710       159.7229 
 747   0.0000       5.874077       159.8418 
 748   0.0000       5.903711       160.6481 
 749   0.0000       5.932454       161.4303 
 750   0.0000       5.949571       161.8961 
 751   0.0000       5.968995       162.4246 
 752   0.0000       5.981830       162.7739 
 753   0.0000       5.999873       163.2648 
 754   0.0000       6.003761       163.3706 
 755   0.0000       6.014857       163.6726 
 756   0.0000       6.059206       164.8794 
 757   0.0000       6.062505       164.9692 
 758   0.0000       6.082779       165.5208 
 759   0.0000       6.104758       166.1189 
 760   0.0000       6.151002       167.3773 
 761   0.0000       6.192213       168.4987 
 762   0.0000       6.198486       168.6694 
 763   0.0000       6.218222       169.2064 
 764   0.0000       6.235024       169.6636 
 765   0.0000       6.262127       170.4011 
 766   0.0000       6.284855       171.0196 
 767   0.0000       6.289198       171.1378 
 768   0.0000       6.317367       171.9043 
 769   0.0000       6.332904       172.3271 
 770   0.0000       6.354799       172.9229 
 771   0.0000       6.372168       173.3955 
 772   0.0000       6.390450       173.8930 
 773   0.0000       6.458234       175.7375 
 774   0.0000       6.497640       176.8098 
 775   0.0000       6.502541       176.9431 
 776   0.0000       6.559529       178.4939 
 777   0.0000       6.568428       178.7360 
 778   0.0000       6.592863       179.4009 
 779   0.0000       6.617542       180.0725 
 780   0.0000       6.645240       180.8262 
 781   0.0000       6.672302       181.5626 
 782   0.0000       6.755766       183.8337 
 783   0.0000       6.762140       184.0072 
 784   0.0000       6.833516       185.9494 
 785   0.0000       6.877226       187.1388 
 786   0.0000       6.889202       187.4647 
 787   0.0000       6.914531       188.1540 
 788   0.0000       6.918389       188.2589 
 789   0.0000       7.002264       190.5413 
 790   0.0000       7.046232       191.7377 
 791   0.0000       7.090074       192.9307 
 792   0.0000       7.102318       193.2639 
 793   0.0000       7.134975       194.1525 
 794   0.0000       7.241674       197.0560 
 795   0.0000       7.248093       197.2306 
 796   0.0000       7.285552       198.2500 
 797   0.0000       7.290747       198.3913 
 798   0.0000       7.339631       199.7215 
 799   0.0000       7.362782       200.3515 
 800   0.0000       7.428486       202.1394 
 801   0.0000       7.522958       204.7101 
 802   0.0000       7.581317       206.2981 
 803   0.0000       7.595473       206.6833 
 804   0.0000       7.703630       209.6264 
 805   0.0000       7.820220       212.7990 
 806   0.0000       7.875402       214.3006 
 807   0.0000       7.930212       215.7921 
 808   0.0000       7.941438       216.0975 
 809   0.0000       9.458104       257.3681 
 810   0.0000       9.541183       259.6288 
 811   0.0000      10.753612       292.6207 
 812   0.0000      11.417069       310.6743 
 813   0.0000      11.909462       324.0729 
 814   0.0000      12.611810       343.1848 
 815   0.0000      12.760213       347.2230 
 816   0.0000      12.982085       353.2605 
 817   0.0000      13.162847       358.1793 
 818   0.0000      13.230715       360.0260 
 819   0.0000      13.349237       363.2512 
 820   0.0000      13.505196       367.4951 
 821   0.0000      13.683858       372.3567 
 822   0.0000      13.815264       375.9325 
 823   0.0000      13.880955       377.7200 
 824   0.0000      13.984429       380.5357 
 825   0.0000      14.605900       397.4467 
 826   0.0000      14.732997       400.9052 
 827   0.0000      15.853209       431.3878 

                    ********************************
                    * MULLIKEN POPULATION ANALYSIS *
                    ********************************

-----------------------
MULLIKEN ATOMIC CHARGES
-----------------------
   0 C :   -0.285816
   1 C :    0.038591
   2 O :   -0.336351
   3 C :    0.451024
   4 O :   -0.425070
   5 C :   -0.196887
   6 C :    0.129935
   7 C :   -0.277114
   8 N :   -0.113493
   9 C :    0.203743
  10 S :   -0.432355
  11 N :   -0.204674
  12 C :    0.065059
  13 C :    0.055404
  14 C :   -0.199562
  15 C :   -0.125950
  16 C :   -0.282289
  17 C :    0.314729
  18 O :   -0.359926
  19 C :   -0.258235
  20 H :    0.088664
  21 H :    0.105692
  22 H :    0.110133
  23 H :    0.093005
  24 H :    0.099812
  25 H :    0.135578
  26 H :    0.095947
  27 H :    0.130993
  28 H :    0.198741
  29 H :    0.188075
  30 H :    0.182080
  31 H :    0.127221
  32 H :    0.155456
  33 H :    0.124973
  34 H :    0.243245
  35 H :    0.159618
Sum of atomic charges:   -0.0000000

--------------------------------
MULLIKEN REDUCED ORBITAL CHARGES
--------------------------------
  0 C s       :     3.258347  s :     3.258347
      pz      :     1.025064  p :     2.949676
      px      :     1.008042
      py      :     0.916570
      dz2     :     0.017773  d :     0.073320
      dxz     :     0.008036
      dyz     :     0.013263
      dx2y2   :     0.018574
      dxy     :     0.015675
      f0      :     0.000774  f :     0.004474
      f+1     :     0.000639
      f-1     :     0.000507
      f+2     :     0.000472
      f-2     :     0.000228
      f+3     :     0.000977
      f-3     :     0.000877
  1 C s       :     3.172342  s :     3.172342
      pz      :     0.807068  p :     2.624847
      px      :     0.985797
      py      :     0.831982
      dz2     :     0.035511  d :     0.152342
      dxz     :     0.021209
      dyz     :     0.037135
      dx2y2   :     0.035329
      dxy     :     0.023159
      f0      :     0.001685  f :     0.011877
      f+1     :     0.001569
      f-1     :     0.002321
      f+2     :     0.002076
      f-2     :     0.001714
      f+3     :     0.001318
      f-3     :     0.001194
  2 O s       :     3.709858  s :     3.709858
      pz      :     1.570863  p :     4.588965
      px      :     1.776919
      py      :     1.241184
      dz2     :     0.008012  d :     0.035226
      dxz     :     0.003823
      dyz     :     0.008707
      dx2y2   :     0.008888
      dxy     :     0.005795
      f0      :     0.000175  f :     0.002302
      f+1     :     0.000135
      f-1     :     0.000431
      f+2     :     0.000379
      f-2     :     0.000220
      f+3     :     0.000378
      f-3     :     0.000584
  3 C s       :     3.059109  s :     3.059109
      pz      :     0.723202  p :     2.165269
      px      :     0.750244
      py      :     0.691823
      dz2     :     0.062674  d :     0.297912
      dxz     :     0.032289
      dyz     :     0.054874
      dx2y2   :     0.077066
      dxy     :     0.071010
      f0      :     0.002301  f :     0.026686
      f+1     :     0.003733
      f-1     :     0.002648
      f+2     :     0.005196
      f-2     :     0.002727
      f+3     :     0.006204
      f-3     :     0.003877
  4 O s       :     3.769246  s :     3.769246
      pz      :     1.449965  p :     4.618342
      px      :     1.427839
      py      :     1.740538
      dz2     :     0.007761  d :     0.035080
      dxz     :     0.008626
      dyz     :     0.005368
      dx2y2   :     0.006483
      dxy     :     0.006842
      f0      :     0.000227  f :     0.002403
      f+1     :     0.000415
      f-1     :     0.000219
      f+2     :     0.000351
      f-2     :     0.000565
      f+3     :     0.000263
      f-3     :     0.000364
  5 C s       :     3.181256  s :     3.181256
      pz      :     1.109235  p :     2.920919
      px      :     0.938884
      py      :     0.872800
      dz2     :     0.008931  d :     0.084025
      dxz     :     0.008063
      dyz     :     0.021690
      dx2y2   :     0.014837
      dxy     :     0.030504
      f0      :     0.001267  f :     0.010687
      f+1     :     0.000996
      f-1     :     0.001377
      f+2     :     0.001614
      f-2     :     0.001703
      f+3     :     0.001862
      f-3     :     0.001869
  6 C s       :     3.197366  s :     3.197366
      pz      :     0.787390  p :     2.482747
      px      :     0.841014
      py      :     0.854343
      dz2     :     0.025322  d :     0.175729
      dxz     :     0.022216
      dyz     :     0.046112
      dx2y2   :     0.033088
      dxy     :     0.048992
      f0      :     0.001482  f :     0.014223
      f+1     :     0.001889
      f-1     :     0.001355
      f+2     :     0.002041
      f-2     :     0.001997
      f+3     :     0.002846
      f-3     :     0.002613
  7 C s       :     3.275319  s :     3.275319
      pz      :     1.016346  p :     2.926975
      px      :     0.972237
      py      :     0.938391
      dz2     :     0.020675  d :     0.070126
      dxz     :     0.008745
      dyz     :     0.010012
      dx2y2   :     0.018313
      dxy     :     0.012382
      f0      :     0.001242  f :     0.004695
      f+1     :     0.000275
      f-1     :     0.000412
      f+2     :     0.000211
      f-2     :     0.000814
      f+3     :     0.000896
      f-3     :     0.000845
  8 N s       :     3.334794  s :     3.334794
      pz      :     1.540967  p :     3.714035
      px      :     1.095214
      py      :     1.077855
      dz2     :     0.006652  d :     0.059729
      dxz     :     0.010259
      dyz     :     0.005500
      dx2y2   :     0.021447
      dxy     :     0.015872
      f0      :     0.000704  f :     0.004935
      f+1     :     0.000865
      f-1     :     0.000451
      f+2     :     0.000604
      f-2     :     0.000693
      f+3     :     0.000755
      f-3     :     0.000863
  9 C s       :     3.162837  s :     3.162837
      pz      :     0.714472  p :     2.353027
      px      :     0.828398
      py      :     0.810157
      dz2     :     0.030706  d :     0.262852
      dxz     :     0.039138
      dyz     :     0.055711
      dx2y2   :     0.077212
      dxy     :     0.060086
      f0      :     0.001891  f :     0.017540
      f+1     :     0.002416
      f-1     :     0.001637
      f+2     :     0.002899
      f-2     :     0.001787
      f+3     :     0.003647
      f-3     :     0.003262
 10 S s       :     5.857087  s :     5.857087
      pz      :     3.514448  p :    10.480508
      px      :     3.367801
      py      :     3.598259
      dz2     :     0.011543  d :     0.084650
      dxz     :     0.018950
      dyz     :     0.013142
      dx2y2   :     0.007917
      dxy     :     0.033097
      f0      :     0.001021  f :     0.010109
      f+1     :     0.001226
      f-1     :     0.000696
      f+2     :     0.000591
      f-2     :     0.002783
      f+3     :     0.001157
      f-3     :     0.002634
 11 N s       :     3.380715  s :     3.380715
      pz      :     1.497578  p :     3.760605
      px      :     1.242832
      py      :     1.020195
      dz2     :     0.004922  d :     0.059004
      dxz     :     0.007711
      dyz     :     0.013109
      dx2y2   :     0.015158
      dxy     :     0.018104
      f0      :     0.000690  f :     0.004350
      f+1     :     0.000330
      f-1     :     0.000604
      f+2     :     0.000626
      f-2     :     0.000599
      f+3     :     0.000678
      f-3     :     0.000823
 12 C s       :     3.114097  s :     3.114097
      pz      :     0.902488  p :     2.636935
      px      :     0.807242
      py      :     0.927206
      dz2     :     0.028135  d :     0.173204
      dxz     :     0.028194
      dyz     :     0.045474
      dx2y2   :     0.036310
      dxy     :     0.035091
      f0      :     0.001385  f :     0.010705
      f+1     :     0.001626
      f-1     :     0.001433
      f+2     :     0.001142
      f-2     :     0.002161
      f+3     :     0.001374
[...]
      f+2     :     0.007779
      f-2     :     0.004562
      f+3     :     0.005724
      f-3     :     0.005203
 15 C s       :     2.703590  s :     2.703590
      pz      :     0.959970  p :     2.795015
      px      :     0.862754
      py      :     0.972291
      dz2     :     0.125912  d :     0.426195
      dxz     :     0.075761
      dyz     :     0.090790
      dx2y2   :     0.090045
      dxy     :     0.043686
      f0      :     0.006437  f :     0.042317
      f+1     :     0.005396
      f-1     :     0.008426
      f+2     :     0.007577
      f-2     :     0.007168
      f+3     :     0.002751
      f-3     :     0.004560
 16 C s       :     2.700378  s :     2.700378
      pz      :     0.962610  p :     2.875261
      px      :     0.933141
      py      :     0.979510
      dz2     :     0.074384  d :     0.393830
      dxz     :     0.046461
      dyz     :     0.120238
      dx2y2   :     0.074339
      dxy     :     0.078408
      f0      :     0.006850  f :     0.041039
      f+1     :     0.004553
      f-1     :     0.006198
      f+2     :     0.007263
      f-2     :     0.004554
      f+3     :     0.006639
      f-3     :     0.004983
 17 C s       :     2.704737  s :     2.704737
      pz      :     0.854496  p :     2.676558
      px      :     0.812358
      py      :     1.009704
      dz2     :     0.160975  d :     0.705690
      dxz     :     0.106166
      dyz     :     0.190410
      dx2y2   :     0.115428
      dxy     :     0.132711
      f0      :     0.018591  f :     0.098906
      f+1     :     0.012146
      f-1     :     0.015577
      f+2     :     0.019015
      f-2     :     0.014285
      f+3     :     0.010657
      f-3     :     0.008635
 18 O s       :     3.178784  s :     3.178784
      pz      :     1.310680  p :     4.350366
      px      :     1.537715
      py      :     1.501971
      dz2     :     0.014085  d :     0.075679
      dxz     :     0.015085
      dyz     :     0.027875
      dx2y2   :     0.008609
      dxy     :     0.010025
      f0      :     0.000798  f :     0.005093
      f+1     :     0.000555
      f-1     :     0.000925
      f+2     :     0.001080
      f-2     :     0.000977
      f+3     :     0.000383
      f-3     :     0.000374
 19 C s       :     2.699383  s :     2.699383
      pz      :     0.965552  p :     2.856124
      px      :     0.922119
      py      :     0.968453
      dz2     :     0.102554  d :     0.380099
      dxz     :     0.065730
      dyz     :     0.090562
      dx2y2   :     0.073906
      dxy     :     0.047347
      f0      :     0.005905  f :     0.039391
      f+1     :     0.006093
      f-1     :     0.007620
      f+2     :     0.006622
      f-2     :     0.006701
      f+3     :     0.002915
      f-3     :     0.003536
 20 H s       :     0.853262  s :     0.853262
      pz      :     0.040021  p :     0.152256
      px      :     0.071779
      py      :     0.040456
      dz2     :     0.002553  d :     0.027538
      dxz     :     0.008916
      dyz     :     0.000229
      dx2y2   :     0.007096
      dxy     :     0.008743
 21 H s       :     0.845615  s :     0.845615
      pz      :     0.050862  p :     0.150577
      px      :     0.047323
      py      :     0.052392
      dz2     :     0.006743  d :     0.027384
      dxz     :     0.004006
      dyz     :     0.005352
      dx2y2   :     0.006514
      dxy     :     0.004769
 22 H s       :     0.844706  s :     0.844706
      pz      :     0.070963  p :     0.149701
      px      :     0.041290
      py      :     0.037448
      dz2     :     0.009083  d :     0.027441
      dxz     :     0.008042
      dyz     :     0.008445
      dx2y2   :     0.001297
      dxy     :     0.000573
 23 H s       :     0.860087  s :     0.860087
      pz      :     0.067839  p :     0.144929
      px      :     0.042704
      py      :     0.034386
      dz2     :     0.008869  d :     0.026812
      dxz     :     0.007438
      dyz     :     0.006928
      dx2y2   :     0.002626
      dxy     :     0.000951
 24 H s       :     0.853205  s :     0.853205
      pz      :     0.030747  p :     0.146665
      px      :     0.080275
      py      :     0.035643
      dz2     :     0.002589  d :     0.027297
      dxz     :     0.008119
      dyz     :     0.000179
      dx2y2   :     0.008152
      dxy     :     0.008258
 25 H s       :     0.822200  s :     0.822200
      pz      :     0.074946  p :     0.151509
      px      :     0.038476
      py      :     0.038087
      dz2     :     0.009618  d :     0.027709
      dxz     :     0.009085
      dyz     :     0.008460
      dx2y2   :     0.000405
      dxy     :     0.000140
 26 H s       :     0.845150  s :     0.845150
      pz      :     0.041834  p :     0.150593
      px      :     0.038926
      py      :     0.069833
      dz2     :     0.003079  d :     0.027685
      dxz     :     0.000414
      dyz     :     0.008540
      dx2y2   :     0.007293
      dxy     :     0.008359
 27 H s       :     0.829125  s :     0.829125
      pz      :     0.041893  p :     0.151459
      px      :     0.071185
      py      :     0.038382
      dz2     :     0.003864  d :     0.027836
      dxz     :     0.008300
      dyz     :     0.000642
      dx2y2   :     0.007077
      dxy     :     0.007953
 28 H s       :     0.741137  s :     0.741137
      pz      :     0.082701  p :     0.253087
      px      :     0.048768
      py      :     0.121618
      dz2     :     0.004989  d :     0.061550
      dxz     :     0.000232
      dyz     :     0.023038
      dx2y2   :     0.016356
      dxy     :     0.016935
 29 H s       :     0.748095  s :     0.748095
      pz      :     0.094288  p :     0.255270
      px      :     0.109200
      py      :     0.051782
      dz2     :     0.011510  d :     0.061722
      dxz     :     0.015122
      dyz     :     0.006902
      dx2y2   :     0.015353
      dxy     :     0.012836
 30 H s       :     0.810953  s :     0.810953
      pz      :     0.060120  p :     0.178998
      px      :     0.034023
      py      :     0.084856
      dz2     :     0.006839  d :     0.031698
      dxz     :     0.002334
      dyz     :     0.009363
      dx2y2   :     0.007327
      dxy     :     0.005836
 31 H s       :     0.847866  s :     0.847866
      pz      :     0.063354  p :     0.161115
      px      :     0.054339
      py      :     0.043422
      dz2     :     0.007788  d :     0.028068
      dxz     :     0.005940
      dyz     :     0.006978
      dx2y2   :     0.003675
      dxy     :     0.003688
 32 H s       :     0.843954  s :     0.843954
      pz      :     0.034316  p :     0.149802
      px      :     0.038078
      py      :     0.077408
      dz2     :     0.002706  d :     0.026218
      dxz     :     0.000125
      dyz     :     0.008261
      dx2y2   :     0.007578
      dxy     :     0.007550
 33 H s       :     0.849062  s :     0.849062
      pz      :     0.060525  p :     0.158856
      px      :     0.051500
      py      :     0.046831
      dz2     :     0.007485  d :     0.027655
      dxz     :     0.005541
      dyz     :     0.006775
      dx2y2   :     0.004010
      dxy     :     0.003844
 34 H s       :     0.705445  s :     0.705445
      pz      :     0.105101  p :     0.345942
      px      :     0.097131
      py      :     0.143710
      dz2     :     0.023464  d :     0.099042
      dxz     :     0.014199
      dyz     :     0.024320
      dx2y2   :     0.017425
      dxy     :     0.019633
 35 H s       :     0.843011  s :     0.843011
      pz      :     0.036597  p :     0.160137
      px      :     0.044004
      py      :     0.079536
      dz2     :     0.002784  d :     0.028499
      dxz     :     0.000324
      dyz     :     0.008761
      dx2y2   :     0.007869
      dxy     :     0.008761


                      *****************************
                      * MAYER POPULATION ANALYSIS *
                      *****************************

  NA   - Mulliken gross atomic population
  ZA   - Total nuclear charge
  QA   - Mulliken gross atomic charge
  VA   - Mayer's total valence
  BVA  - Mayer's bonded valence
  FA   - Mayer's free valence

  ATOM       NA         ZA         QA         VA         BVA        FA
  0 C      6.2858     6.0000    -0.2858     3.8871     3.8871    -0.0000
  1 C      5.9614     6.0000     0.0386     3.8685     3.8685    -0.0000
  2 O      8.3364     8.0000    -0.3364     2.0733     2.0733    -0.0000
  3 C      5.5490     6.0000     0.4510     4.2483     4.2483    -0.0000
  4 O      8.4251     8.0000    -0.4251     2.0893     2.0893     0.0000
  5 C      6.1969     6.0000    -0.1969     3.6423     3.6423    -0.0000
  6 C      5.8701     6.0000     0.1299     3.8999     3.8999    -0.0000
  7 C      6.2771     6.0000    -0.2771     3.9027     3.9027     0.0000
  8 N      7.1135     7.0000    -0.1135     3.2988     3.2988    -0.0000
  9 C      5.7963     6.0000     0.2037     4.1456     4.1456    -0.0000
 10 S     16.4324    16.0000    -0.4324     1.7640     1.7640     0.0000
 11 N      7.2047     7.0000    -0.2047     3.2616     3.2616     0.0000
 12 C      5.9349     6.0000     0.0651     3.9052     3.9052    -0.0000
 13 C      5.9446     6.0000     0.0554     3.7166     3.7166     0.0000
 14 C      6.1996     6.0000    -0.1996     3.8543     3.8543    -0.0000
 15 C      6.1259     6.0000    -0.1259     3.8090     3.8090    -0.0000
 16 C      6.2823     6.0000    -0.2823     3.7847     3.7847    -0.0000
 17 C      5.6853     6.0000     0.3147     3.8742     3.8742    -0.0000
 18 O      8.3599     8.0000    -0.3599     2.1143     2.1143     0.0000
 19 C      6.2582     6.0000    -0.2582     3.8525     3.8525     0.0000
 20 H      0.9113     1.0000     0.0887     0.9824     0.9824    -0.0000
 21 H      0.8943     1.0000     0.1057     0.9833     0.9833     0.0000
 22 H      0.8899     1.0000     0.1101     0.9826     0.9826    -0.0000
 23 H      0.9070     1.0000     0.0930     0.9792     0.9792     0.0000
 24 H      0.9002     1.0000     0.0998     0.9810     0.9810     0.0000
 25 H      0.8644     1.0000     0.1356     0.9806     0.9806     0.0000
 26 H      0.9041     1.0000     0.0959     0.9846     0.9846    -0.0000
 27 H      0.8690     1.0000     0.1310     0.9797     0.9797     0.0000
 28 H      0.8013     1.0000     0.1987     1.0225     1.0225    -0.0000
 29 H      0.8119     1.0000     0.1881     1.0257     1.0257    -0.0000
 30 H      0.8179     1.0000     0.1821     0.9930     0.9930     0.0000
 31 H      0.8728     1.0000     0.1272     0.9891     0.9891    -0.0000
 32 H      0.8445     1.0000     0.1555     0.9787     0.9787     0.0000
 33 H      0.8750     1.0000     0.1250     0.9928     0.9928    -0.0000
 34 H      0.7568     1.0000     0.2432     1.0088     1.0088    -0.0000
 35 H      0.8404     1.0000     0.1596     0.9916     0.9916     0.0000

  Mayer bond orders larger than 0.100000
B(  0-C ,  1-C ) :   0.9682 B(  0-C , 20-H ) :   0.9808 B(  0-C , 21-H ) :   0.9795 
B(  0-C , 22-H ) :   0.9720 B(  1-C ,  2-O ) :   0.9098 B(  1-C , 23-H ) :   0.9736 
B(  1-C , 24-H ) :   0.9834 B(  2-O ,  3-C ) :   1.1758 B(  3-C ,  4-O ) :   1.9784 
B(  3-C ,  5-C ) :   1.0450 B(  5-C ,  6-C ) :   1.6672 B(  5-C , 12-C ) :   0.9796 
B(  6-C ,  7-C ) :   0.9683 B(  6-C ,  8-N ) :   1.1571 B(  7-C , 25-H ) :   0.9539 
B(  7-C , 26-H ) :   0.9884 B(  7-C , 27-H ) :   0.9672 B(  8-N ,  9-C ) :   1.1796 
B(  8-N , 28-H ) :   0.9464 B(  9-C , 10-S ) :   1.6117 B(  9-C , 11-N ) :   1.3010 
B( 11-N , 12-C ) :   0.9911 B( 11-N , 29-H ) :   0.9523 B( 12-C , 13-C ) :   0.8977 
B( 12-C , 30-H ) :   0.9810 B( 13-C , 14-C ) :   1.3693 B( 13-C , 19-C ) :   1.3834 
B( 14-C , 15-C ) :   1.3851 B( 14-C , 31-H ) :   0.9769 B( 15-C , 16-C ) :   1.3643 
B( 15-C , 32-H ) :   0.9719 B( 16-C , 17-C ) :   1.3197 B( 16-C , 33-H ) :   0.9884 
B( 17-C , 18-O ) :   1.1029 B( 17-C , 19-C ) :   1.3868 B( 18-O , 34-H ) :   0.9780 
B( 19-C , 35-H ) :   0.9549 

-------
TIMINGS
-------

Total SCF time: 0 days 1 hours 31 min 44 sec 

Total time                  ....    5504.397 sec
Sum of individual times     ....    5500.367 sec  ( 99.9%)

Fock matrix formation       ....    5489.307 sec  ( 99.7%)
Diagonalization             ....       1.172 sec  (  0.0%)
Density matrix formation    ....       0.209 sec  (  0.0%)
Population analysis         ....       0.233 sec  (  0.0%)
Initial guess               ....       4.702 sec  (  0.1%)
Orbital Transformation      ....       0.000 sec  (  0.0%)
Orbital Orthonormalization  ....       0.000 sec  (  0.0%)
DIIS solution               ....       1.426 sec  (  0.0%)
SOSCF solution              ....       2.066 sec  (  0.0%)

------------------------------------------------------------------------------
                                ORCA  MP2 
------------------------------------------------------------------------------

Freezing NCore=48 chemical core electrons

-------------
RI-MP2 ENERGY
-------------
Dimension of the basis                    ...  828
Memory devoted to MP2                     ...  256 MB   
Data format for buffers                   ... DOUBLE
Compression type for matrix containers    ... UNCOMPRESSED
Overall scaling of the MP2 energy         ...   1.000e+00
Calculating two index integrals           ... done (    0.040 sec)
Cholesky decomposition of V**-1           ... done (    0.518 sec)

-----------------
RI-TRANSFORMATION (AUX index driven)
-----------------

Dimension of the orbital-basis         ... 828
Dimension of the aux-basis             ... 2141
Transformation of internal/external MOs...   24-  76 to   77- 827
Number Format for Storage              ... Double (8 Byte)
Integral mode                          ... Direct

First Phase: integral generation and transformation of MO indices
  Aux angular momentum 0               ... done (    4.454 sec)
  Aux angular momentum 1               ... done (    7.253 sec)
  Aux angular momentum 2               ... done (    9.455 sec)
  Aux angular momentum 3               ... done (    7.361 sec)
  Aux angular momentum 4               ... done (    2.560 sec)
Closing buffer VIA ( 0.63 GB; CompressionRatio= 1.00)
  Phase 1 completed in    31.342 sec
Second Phase: sorting and transformation of aux index

IA-Transformation
Memory available                       ... 167 MB 
Max. # MO pairs treated in a batch     ... 12    
# of internal orbitals                 ... 53
# batches for internal orbitals        ... 5
Closing buffer IAV ( 0.63 GB; CompressionRatio= 1.00)
(ia|v) transformation done in    19.794 sec

  Phase 2 completed in    19.813 sec
RI-Integral transformation completed in    51.159 sec
Opening buffers                              ... done

Starting loop over batches of integrals:

Operator 0  - window                       ... ( 24- 76)x( 77-827)
Operator 0  - Memory available             ...   256 MB
Operator 0  - Memory needed per MO         ...  12.3 MB
Operator 0  - Number of orbitals per batch ... 13
Operator 0  - Number of batches            ... 5

OPERATOR  0   PASS   0:  MOs    24 ...   36
  Reading integrals       ... ok
  Internal MO  26
  Internal MO  29
  Internal MO  32
  Internal MO  35
OPERATOR  0   PASS   1:  MOs    37 ...   49
  Reading integrals       ... ok
  Internal MO  38
  Internal MO  41
  Internal MO  44
  Internal MO  47
OPERATOR  0   PASS   2:  MOs    50 ...   62
  Reading integrals       ... ok
  Internal MO  50
  Internal MO  53
  Internal MO  56
  Internal MO  59
  Internal MO  62
OPERATOR  0   PASS   3:  MOs    63 ...   75
  Reading integrals       ... ok
  Internal MO  65
  Internal MO  68
  Internal MO  71
  Internal MO  74
OPERATOR  0   PASS   4:  MOs    76 ...   76
  Reading integrals       ... ok
Time spent in pair loops =    80.086 sec
Deleting buffer (Ka|jb)[aa] ...done

-----------------------------------------------
 RI-MP2 CORRELATION ENERGY:     -3.544134258 Eh
-----------------------------------------------


-------
TIMINGS
-------

Total time                :  131.895 sec
Integral trafo            :   51.163 sec ( 38.8%)
I/O of integrals          :    1.730 sec (  1.3%)
K(i,j) Operators          :   52.035 sec ( 39.5%)
T(i,j) pair energies      :    8.132 sec (  6.2%)
V-calculation             :    0.040 sec (  0.0%)
V**(-1/2)                 :    0.518 sec (  0.4%)
Gamma(ia|P)               :    0.000 sec (  0.0%)
Gamma-Trafo               :    0.000 sec (  0.0%)
D(virtual)                :    0.000 sec (  0.0%)
D(internal)               :    0.000 sec (  0.0%)
W(virtual)                :    0.000 sec (  0.0%)
W(internal)               :    0.000 sec (  0.0%)
L(virtual)                :    0.000 sec (  0.0%)
L(internal)               :    0.000 sec (  0.0%)
G(D)                      :    0.000 sec (  0.0%)
G(Z)                      :    0.000 sec (  0.0%)
Z-Vector Solution         :    0.000 sec (  0.0%)
3-Index Derivative        :    0.000 sec (  0.0%)
2-Index Derivative        :    0.000 sec (  0.0%)
Separable Gradient        :    0.000 sec (  0.0%)


---------------------------------------
MP2 TOTAL ENERGY:    -1274.296211362 Eh
---------------------------------------

-------------------------   --------------------
FINAL SINGLE POINT ENERGY     -1274.296211361551
-------------------------   --------------------


                            ***************************************
                            *     ORCA property calculations      *
                            ***************************************


  WARNING: The energy has been calculated at the MP2 level but the densities
           used in the property calculations are still SCF densities
           MP2 response densities have not been calculated 
           use %mp2 Density relaxed end
           or  %mp2 Density unrelaxed end

                                    ---------------------
                                    Active property flags
                                    ---------------------
   (+) Dipole Moment


------------------------------------------------------------------------------
                       ORCA ELECTRIC PROPERTIES CALCULATION
------------------------------------------------------------------------------

Dipole Moment Calculation                       ... on
Quadrupole Moment Calculation                   ... off
Polarizability Calculation                      ... off
GBWName                                         ... G2_CONFS/Conf26.orca.gbw
Electron density file                           ... G2_CONFS/Conf26.orca.scfp
The origin for moment calculation is the CENTER OF MASS  = (32.812244, 31.613312 35.252689)

-------------
DIPOLE MOMENT
-------------
                                X             Y             Z
Electronic contribution:      8.42270      12.19838       7.30871
Nuclear contribution   :     -9.37586     -13.85239      -7.85233
                        -----------------------------------------
Total Dipole Moment    :     -0.95316      -1.65401      -0.54362
                        -----------------------------------------
Magnitude (a.u.)       :      1.98489
Magnitude (Debye)      :      5.04519



--------------------
Rotational spectrum 
--------------------
 
Rotational constants in cm-1:     0.011272     0.008786     0.006254 
Rotational constants in MHz :   337.922670   263.409492   187.491368 

 Dipole components along the rotational axes: 
x,y,z [a.u.] :    -1.980570     0.095334    -0.089712 
x,y,z [Debye]:    -5.034210     0.242320    -0.228029 

 

Timings for individual modules:

Sum of individual times         ...     5638.408 sec (=  93.973 min)
GTO integral calculation        ...        1.222 sec (=   0.020 min)   0.0 %
SCF iterations                  ...     5504.444 sec (=  91.741 min)  97.6 %
MP2 module                      ...      132.743 sec (=   2.212 min)   2.4 %
                             ****ORCA TERMINATED NORMALLY****
TOTAL RUN TIME: 0 days 1 hours 33 minutes 58 seconds 982 msec
