
                                 *****************
                                 * O   R   C   A *
                                 *****************

           --- An Ab Initio, DFT and Semiempirical electronic structure package ---

                  #######################################################
                  #                        -***-                        #
                  #          Department of theory and spectroscopy      #
                  #               Directorship: Frank Neese             #
                  #        Max Planck Institute fuer Kohlenforschung    #
                  #                Kaiser Wilhelm Platz 1               #
                  #                 D-45470 Muelheim/Ruhr               #
                  #                      Germany                        #
                  #                                                     #
                  #                  All rights reserved                #
                  #                        -***-                        #
                  #######################################################


                         Program Version 4.2.0 -  RELEASE  -


 With contributions from (in alphabetic order):
   Daniel Aravena         : Magnetic Suceptibility
   Michael Atanasov       : Ab Initio Ligand Field Theory (pilot matlab implementation)
   Alexander A. Auer      : GIAO ZORA, VPT2
   Ute Becker             : Parallelization
   Giovanni Bistoni       : ED, misc. LED, open-shell LED, HFLED
   Martin Brehm           : Molecular dynamics
   Dmytro Bykov           : SCF Hessian
   Vijay G. Chilkuri      : MRCI spin determinant printing, contributions to CSF-ICE
   Dipayan Datta          : RHF DLPNO-CCSD density
   Achintya Kumar Dutta   : EOM-CC, STEOM-CC
   Dmitry Ganyushin       : Spin-Orbit,Spin-Spin,Magnetic field MRCI
   Miquel Garcia          : C-PCM Hessian, Gaussian charge scheme
   Yang Guo               : DLPNO-NEVPT2, CIM, IAO-localization
   Andreas Hansen         : Spin unrestricted coupled pair/coupled cluster methods
   Benjamin Helmich-Paris : CASSCF linear response (MC-RPA)
   Lee Huntington         : MR-EOM, pCC
   Robert Izsak           : Overlap fitted RIJCOSX, COSX-SCS-MP3, EOM
   Christian Kollmar      : KDIIS, OOCD, Brueckner-CCSD(T), CCSD density
   Simone Kossmann        : Meta GGA functionals, TD-DFT gradient, OOMP2, MP2 Hessian
   Martin Krupicka        : AUTO-CI
   Lucas Lang             : DCDCAS
   Dagmar Lenk            : GEPOL surface, SMD
   Dimitrios Liakos       : Extrapolation schemes; Compound Job, initial MDCI parallelization
   Dimitrios Manganas     : Further ROCIS development; embedding schemes
   Dimitrios Pantazis     : SARC Basis sets
   Taras Petrenko         : DFT Hessian,TD-DFT gradient, ASA, ECA, R-Raman, ABS, FL, XAS/XES, NRVS
   Peter Pinski           : DLPNO-MP2, DLPNO-MP2 Gradient
   Christoph Reimann      : Effective Core Potentials
   Marius Retegan         : Local ZFS, SOC
   Christoph Riplinger    : Optimizer, TS searches, QM/MM, DLPNO-CCSD(T), (RO)-DLPNO pert. Triples
   Tobias Risthaus        : Range-separated hybrids, TD-DFT gradient, RPA, STAB
   Michael Roemelt        : Original ROCIS implementation
   Masaaki Saitow         : Open-shell DLPNO-CCSD energy and density
   Barbara Sandhoefer     : DKH picture change effects
   Avijit Sen             : IP-ROCIS
   Kantharuban Sivalingam : CASSCF convergence, NEVPT2, FIC-MRCI
   Bernardo de Souza      : ESD, SOC TD-DFT
   Georgi Stoychev        : AutoAux, RI-MP2 NMR
   Willem Van den Heuvel  : Paramagnetic NMR
   Boris Wezisla          : Elementary symmetry handling
   Frank Wennmohs         : Technical directorship


 We gratefully acknowledge several colleagues who have allowed us to
 interface, adapt or use parts of their codes:
   Stefan Grimme, W. Hujo, H. Kruse,             : VdW corrections, initial TS optimization,
                  C. Bannwarth                     DFT functionals, gCP, sTDA/sTD-DF
   Ed Valeev, F. Pavosevic, A. Kumar             : LibInt (2-el integral package), F12 methods
   Garnet Chan, S. Sharma, J. Yang, R. Olivares  : DMRG
   Ulf Ekstrom                                   : XCFun DFT Library
   Mihaly Kallay                                 : mrcc  (arbitrary order and MRCC methods)
   Andreas Klamt, Michael Diedenhofen            : otool_cosmo (COSMO solvation model)
   Jiri Pittner, Ondrej Demel                    : Mk-CCSD
   Frank Weinhold                                : gennbo (NPA and NBO analysis)
   Christopher J. Cramer and Donald G. Truhlar   : smd solvation model
   Lars Goerigk                                  : TD-DFT with DH, B97 family of functionals
   V. Asgeirsson, H. Jonsson                     : NEB implementation
   FAccTs GmbH                                   : IRC, NEB, NEB-TS, Multilevel, MM, QM/MM, CI optimization
   S Lehtola, MJT Oliveira, MAL Marques          : LibXC Library


 Your calculation uses the libint2 library for the computation of 2-el integrals
 For citations please refer to: http://libint.valeyev.net

 Your ORCA version has been built with support for libXC version: 4.2.3
 For citations please refer to: https://tddft.org/programs/libxc/

 This ORCA versions uses:
   CBLAS   interface :  Fast vector & matrix operations
   LAPACKE interface :  Fast linear algebra routines
   SCALAPACK package :  Parallel linear algebra routines


----- Orbital basis set information -----
Your calculation utilizes the basis: cc-pVTZ 
       H, B-Ne : Obtained from the ccRepo (grant-hill.group.shef.ac.uk/ccrepo) Feb. 2017
                 T. H. Dunning, Jr., J. Chem. Phys. 90, 1007 (1989)
            He : Obtained from the ccRepo (grant-hill.group.shef.ac.uk/ccrepo) Feb. 2017
                 D. E. Woon, T. H. Dunning, Jr., J. Chem. Phys. 100, 2975 (1994)
  Li-Be, Na-Mg : Obtained from the ccRepo (grant-hill.group.shef.ac.uk/ccrepo) Feb. 2017
                 B. P. Prascher, D. E. Woon, K. A. Peterson, T. H. Dunning, Jr., A. K. Wilson, Theor. Chem. Acc. 128, 69 (2011)
         Al-Ar : Obtained from the ccRepo (grant-hill.group.shef.ac.uk/ccrepo) Feb. 2017
                 D. E. Woon, T. H. Dunning, Jr., J. Chem. Phys. 98, 1358 (1993)
            Ca : Obtained from the Peterson Research Group Website (tyr0.chem.wsu.edu/~kipeters) Feb. 2017
                 J. Koput, K. A. Peterson, J. Phys. Chem. 106, 9595 (2002)
         Sc-Zn : Obtained from the ccRepo (grant-hill.group.shef.ac.uk/ccrepo) Feb. 2017
                 N. B. Balabanov, K. A. Peterson, J. Chem. Phys. 123, 064107 (2005)
                 N. B. Balabanov, K. A. Peterson, J. Chem. Phys. 125, 074110 (2006)
         Ga-Kr : Obtained from the ccRepo (grant-hill.group.shef.ac.uk/ccrepo) Feb. 2017
                 A. K. Wilson, D. E. Woon, K. A. Peterson, T. H. Dunning, Jr., J. Chem. Phys. 110, 7667 (1999)
             Y : Obtained from the ccRepo (grant-hill.group.shef.ac.uk/ccrepo) Feb. 2017
                 K. A. Peterson, D. Figgen, M. Dolg, H. Stoll, J. Chem. Phys. 126, 124101 (2007)
        Ag, Au : Obtained from the Peterson Research Group Website (tyr0.chem.wsu.edu/~kipeters) Feb. 2017
                 K. A. Peterson, C. Puzzarini, Theor. Chem. Acc. 114, 283 (2005)

----- AuxC basis set information -----
Your calculation utilizes the auxiliary basis: cc-pVTZ/C 
  Obtained from the EMSL Basis Set Exchange (bse.pnl.gov) Feb. 2017
  H-He, B-F, Al-Ar, Ga-Kr : F. Weigend, A. Kohn, C. Hattig, J. Chem. Phys. 116, 3175 (2002)
             Li-Be, Na-Mg : C. Haettig, Phys. Chem. Chem. Phys. 7, 59 (2005)
                       Ne : C. Haettig, Phys. Chem. Chem. Phys. 7, 59 (2005)
                            F. Weigend, A. Kohn, C. Hattig, J. Chem. Phys. 116, 3175 (2002)
                    Sc-Zn : J. G. Hill, J. A. Platts, J. Chem. Phys. 128, 044104 (2008)

================================================================================
                                        WARNINGS
                       Please study these warnings very carefully!
================================================================================


WARNING: No MP2 level density has been requested!
         To caclulate MP2 level properties use
         %mp2 Density relaxed end
         or
         %mp2 Density unrelaxed end

WARNING: Post HF methods need fully converged wavefunctions
  ===> : Setting SCFConvForced true
         You can overwrite this default with %scf ConvForced false 


INFO   : the flag for use of LIBINT has been found!

================================================================================
                                       INPUT FILE
================================================================================
NAME = G2_CONFS/Conf89.orca
|  1> ! ri-mp2 cc-pvtz cc-pvtz/c TightSCF  NoKeepInts
|  2> 
|  3> %scf
|  4>   MaxCore 4096
|  5> end
|  6> *xyz  0  1
|  7>     C       14.7160966   14.6125768   15.6546706
|  8>     C       14.9483189   14.9828834   17.1295562
|  9>     O       16.1386420   15.7535129   17.2678293
| 10>     C       17.4101383   15.8074891   16.7058387
| 11>     O       17.9982560   15.1082972   15.9070353
| 12>     C       17.8178561   16.9395032   17.5540934
| 13>     C       17.1959913   18.1579608   17.5569817
| 14>     C       16.2885308   18.6813000   16.4378306
| 15>     N       17.6330357   19.1468173   18.4322929
| 16>     C       18.7276605   19.0351985   19.2702461
| 17>     S       18.9527957   20.1081910   20.5100446
| 18>     N       19.5102550   17.8898118   19.1273576
| 19>     C       19.0658467   16.7071426   18.3595552
| 20>     C       18.3889918   15.8843360   19.4955214
| 21>     C       18.6589598   14.4838188   19.4704088
| 22>     C       17.9278278   13.5569214   20.2196756
| 23>     C       16.8986296   14.0089143   21.0336935
| 24>     C       16.6093997   15.3751442   21.1032021
| 25>     O       15.5667901   15.7656570   21.8657258
| 26>     C       17.3357366   16.3141208   20.3395209
| 27>     H       13.6691231   14.6696348   15.3097358
| 28>     H       15.0334708   13.5609657   15.5568566
| 29>     H       15.3949918   15.1902893   15.0083311
| 30>     H       14.1500151   15.6810938   17.4832526
| 31>     H       14.8971525   14.1386307   17.8296262
| 32>     H       15.2946757   18.9730899   16.7904712
| 33>     H       16.1555172   17.9485357   15.6337433
| 34>     H       16.7317129   19.5641612   15.9470959
| 35>     H       17.0528325   19.9647050   18.5865581
| 36>     H       20.1555063   17.7473899   19.8972802
| 37>     H       19.7040586   15.8462053   18.1589159
| 38>     H       19.4121099   14.0559115   18.8069039
| 39>     H       18.1472406   12.4947067   20.1249796
| 40>     H       16.3036297   13.2896237   21.5912063
| 41>     H       15.2235552   14.9584465   22.2857714
| 42>     H       17.0316481   17.3490110   20.3821933
| 43> *
| 44> 
| 45>                          ****END OF INPUT****
================================================================================

                       ****************************
                       * Single Point Calculation *
                       ****************************

---------------------------------
CARTESIAN COORDINATES (ANGSTROEM)
---------------------------------
  C     14.716097   14.612577   15.654671
  C     14.948319   14.982883   17.129556
  O     16.138642   15.753513   17.267829
  C     17.410138   15.807489   16.705839
  O     17.998256   15.108297   15.907035
  C     17.817856   16.939503   17.554093
  C     17.195991   18.157961   17.556982
  C     16.288531   18.681300   16.437831
  N     17.633036   19.146817   18.432293
  C     18.727660   19.035198   19.270246
  S     18.952796   20.108191   20.510045
  N     19.510255   17.889812   19.127358
  C     19.065847   16.707143   18.359555
  C     18.388992   15.884336   19.495521
  C     18.658960   14.483819   19.470409
  C     17.927828   13.556921   20.219676
  C     16.898630   14.008914   21.033693
  C     16.609400   15.375144   21.103202
  O     15.566790   15.765657   21.865726
  C     17.335737   16.314121   20.339521
  H     13.669123   14.669635   15.309736
  H     15.033471   13.560966   15.556857
  H     15.394992   15.190289   15.008331
  H     14.150015   15.681094   17.483253
  H     14.897153   14.138631   17.829626
  H     15.294676   18.973090   16.790471
  H     16.155517   17.948536   15.633743
  H     16.731713   19.564161   15.947096
  H     17.052832   19.964705   18.586558
  H     20.155506   17.747390   19.897280
  H     19.704059   15.846205   18.158916
  H     19.412110   14.055912   18.806904
  H     18.147241   12.494707   20.124980
  H     16.303630   13.289624   21.591206
  H     15.223555   14.958446   22.285771
  H     17.031648   17.349011   20.382193

----------------------------
CARTESIAN COORDINATES (A.U.)
----------------------------
  NO LB      ZA    FRAG     MASS         X           Y           Z
   0 C     6.0000    0    12.011   27.809392   27.613768   29.583040
   1 C     6.0000    0    12.011   28.248229   28.313546   32.370170
   2 O     8.0000    0    15.999   30.497614   29.769825   32.631468
   3 C     6.0000    0    12.011   32.900393   29.871825   31.569460
   4 O     8.0000    0    15.999   34.011775   28.550544   30.059940
   5 C     6.0000    0    12.011   33.670868   32.011022   33.172429
   6 C     6.0000    0    12.011   32.495714   34.313573   33.177887
   7 C     6.0000    0    12.011   30.780862   35.302541   31.062998
   8 N     7.0000    0    14.007   33.321608   36.182241   34.831986
   9 C     6.0000    0    12.011   35.390149   35.971312   36.415488
  10 S    16.0000    0    32.060   35.815593   37.998974   38.758367
  11 N     7.0000    0    14.007   36.869039   33.806845   36.145468
  12 C     6.0000    0    12.011   36.029229   31.571924   34.694531
  13 C     6.0000    0    12.011   34.750158   30.017045   36.841196
  14 C     6.0000    0    12.011   35.260324   27.370451   36.793740
  15 C     6.0000    0    12.011   33.878685   25.618869   38.209649
  16 C     6.0000    0    12.011   31.933782   26.473011   39.747920
  17 C     6.0000    0    12.011   31.387217   29.054812   39.879273
  18 O     8.0000    0    15.999   29.416970   29.792774   41.320233
  19 C     6.0000    0    12.011   32.759795   30.829220   38.436124
  20 H     1.0000    0     1.008   25.830899   27.721592   28.931208
  21 H     1.0000    0     1.008   28.409143   25.626511   29.398198
  22 H     1.0000    0     1.008   29.092318   28.705487   28.361636
  23 H     1.0000    0     1.008   26.739653   29.632973   33.038559
  24 H     1.0000    0     1.008   28.151538   26.718140   33.693111
  25 H     1.0000    0     1.008   28.902748   35.853944   31.729392
  26 H     1.0000    0     1.008   30.529503   33.917817   29.543493
  27 H     1.0000    0     1.008   31.618355   36.970907   30.135644
  28 H     1.0000    0     1.008   32.225183   37.727825   35.123505
  29 H     1.0000    0     1.008   38.088387   33.537707   37.600410
  30 H     1.0000    0     1.008   37.235274   29.944988   34.315378
  31 H     1.0000    0     1.008   36.683571   26.561823   35.539898
  32 H     1.0000    0     1.008   34.293315   23.611574   38.030700
  33 H     1.0000    0     1.008   30.809395   25.113749   40.801467
  34 H     1.0000    0     1.008   28.768350   28.267367   42.114005
  35 H     1.0000    0     1.008   32.185151   32.784879   38.516763

--------------------------------
INTERNAL COORDINATES (ANGSTROEM)
--------------------------------
 C      0   0   0     0.000000000000     0.00000000     0.00000000
 C      1   0   0     1.538291814874     0.00000000     0.00000000
 O      2   1   0     1.424730977710   110.44957601     0.00000000
 C      3   2   1     1.391204408262   138.19032357   323.23704705
 O      4   3   2     1.213605625370   133.34908448   354.17457337
 C      4   3   2     1.472150047756    92.87716712   180.00000270
 C      6   4   3     1.367977739129   124.07123482   299.69963159
 C      7   6   4     1.532927807155   124.86521640   340.92929944
 N      7   6   4     1.391048051654   119.45093453   177.78895851
 C      9   7   6     1.383050170702   124.92720903     4.33150298
 S     10   9   7     1.655022381703   120.61106458   194.40150938
 N     10   9   7     1.394554397433   116.63820871     6.08994704
 C     12  10   9     1.478420000941   122.78916628   346.54434073
 C     13  12  10     1.557421736140   100.04754188   268.55914826
 C     14  13  12     1.426520869528   115.06175927   221.91639914
 C     15  14  13     1.398246590961   122.84892033   193.95446904
 C     16  15  14     1.387865864576   119.08895771   359.53790535
 C     17  16  15     1.398238005556   120.05111674   359.62194882
 O     18  17  16     1.349435962926   118.07816012   177.41363273
 C     18  17  16     1.411542178924   121.10779187     0.99152078
 H      1   2   3     1.103806659392   115.49039894   220.36074660
 H      1   2   3     1.102805452954   105.73245877   102.11106250
 H      1   2   3     1.101092718394   110.08559299   348.37162647
 H      2   1   3     1.117983838495   110.23518020   113.38274179
 H      2   1   3     1.097942906916   114.78402449   230.64554146
 H      8   7   6     1.094186774873   113.16911163   124.40263143
 H      8   7   6     1.095989289711   112.28531758     2.17050425
 H      8   7   6     1.103029835503   111.11328894   245.00562914
 H      9   7   6     1.014580600560   119.27899538   193.72527008
 H     12  10   9     1.014600437484   113.23043209   193.82646476
 H     13  12  10     1.090313529466   123.45477197   173.83749580
 H     15  14  13     1.091136326426   121.75922931     9.66509419
 H     16  15  14     1.088765070213   119.65340206   177.08351760
 H     17  16  15     1.087301416541   119.41291028   177.82557895
 H     19  18  17     0.972541666957   106.05391737     3.06164110
 H     20  18  17     1.079485282720   118.12471336   176.19180978

---------------------------
INTERNAL COORDINATES (A.U.)
---------------------------
 C      0   0   0     0.000000000000     0.00000000     0.00000000
 C      1   0   0     2.906950244164     0.00000000     0.00000000
 O      2   1   0     2.692351362386   110.44957601     0.00000000
 C      3   2   1     2.628995327920   138.19032357   323.23704705
 O      4   3   2     2.293382266536   133.34908448   354.17457337
 C      4   3   2     2.781960418298    92.87716712   180.00000270
 C      6   4   3     2.585103284255   124.07123482   299.69963159
 C      7   6   4     2.896813738595   124.86521640   340.92929944
 N      7   6   4     2.628699856750   119.45093453   177.78895851
 C      9   7   6     2.613586052100   124.92720903     4.33150298
 S     10   9   7     3.127539046929   120.61106458   194.40150938
 N     10   9   7     2.635325890004   116.63820871     6.08994704
 C     12  10   9     2.793808912691   122.78916628   346.54434073
 C     13  12  10     2.943100556320   100.04754188   268.55914826
 C     14  13  12     2.695733767731   115.06175927   221.91639914
 C     15  14  13     2.642303124605   122.84892033   193.95446904
 C     16  15  14     2.622686394666   119.08895771   359.53790535
 C     17  16  15     2.642286900542   120.05111674   359.62194882
 O     18  17  16     2.550064405194   118.07816012   177.41363273
 C     18  17  16     2.667428144646   121.10779187     0.99152078
 H      1   2   3     2.085892291049   115.49039894   220.36074660
 H      1   2   3     2.084000285078   105.73245877   102.11106250
 H      1   2   3     2.080763685819   110.08559299   348.37162647
 H      2   1   3     2.112683276905   110.23518020   113.38274179
 H      2   1   3     2.074811404752   114.78402449   230.64554146
 H      8   7   6     2.067713343868   113.16911163   124.40263143
 H      8   7   6     2.071119603264   112.28531758     2.17050425
 H      8   7   6     2.084424306645   111.11328894   245.00562914
 H      9   7   6     1.917279475848   119.27899538   193.72527008
 H     12  10   9     1.917316962201   113.23043209   193.82646476
 H     13  12  10     2.060393970800   123.45477197   173.83749580
 H     15  14  13     2.061948831719   121.75922931     9.66509419
 H     16  15  14     2.057467806882   119.65340206   177.08351760
 H     17  16  15     2.054701902287   119.41291028   177.82557895
 H     19  18  17     1.837837404376   106.05391737     3.06164110
 H     20  18  17     2.039931549940   118.12471336   176.19180978

---------------------
BASIS SET INFORMATION
---------------------
There are 5 groups of distinct atoms

 Group   1 Type C   : 18s5p2d1f contracted to 4s3p2d1f pattern {8811/311/11/1}
 Group   2 Type O   : 18s5p2d1f contracted to 4s3p2d1f pattern {8811/311/11/1}
 Group   3 Type N   : 18s5p2d1f contracted to 4s3p2d1f pattern {8811/311/11/1}
 Group   4 Type S   : 41s16p2d1f contracted to 5s4p2d1f pattern {13131311/7711/11/1}
 Group   5 Type H   : 5s2p1d contracted to 3s2p1d pattern {311/11/1}

Atom   0C    basis set group =>   1
Atom   1C    basis set group =>   1
Atom   2O    basis set group =>   2
Atom   3C    basis set group =>   1
Atom   4O    basis set group =>   2
Atom   5C    basis set group =>   1
Atom   6C    basis set group =>   1
Atom   7C    basis set group =>   1
Atom   8N    basis set group =>   3
Atom   9C    basis set group =>   1
Atom  10S    basis set group =>   4
Atom  11N    basis set group =>   3
Atom  12C    basis set group =>   1
Atom  13C    basis set group =>   1
Atom  14C    basis set group =>   1
Atom  15C    basis set group =>   1
Atom  16C    basis set group =>   1
Atom  17C    basis set group =>   1
Atom  18O    basis set group =>   2
Atom  19C    basis set group =>   1
Atom  20H    basis set group =>   5
Atom  21H    basis set group =>   5
Atom  22H    basis set group =>   5
Atom  23H    basis set group =>   5
Atom  24H    basis set group =>   5
Atom  25H    basis set group =>   5
Atom  26H    basis set group =>   5
Atom  27H    basis set group =>   5
Atom  28H    basis set group =>   5
Atom  29H    basis set group =>   5
Atom  30H    basis set group =>   5
Atom  31H    basis set group =>   5
Atom  32H    basis set group =>   5
Atom  33H    basis set group =>   5
Atom  34H    basis set group =>   5
Atom  35H    basis set group =>   5
---------------------------------
AUXILIARY/C BASIS SET INFORMATION
---------------------------------
There are 5 groups of distinct atoms

 Group   1 Type C   : 8s6p5d3f1g contracted to 8s6p5d3f1g pattern {11111111/111111/11111/111/1}
 Group   2 Type O   : 8s6p5d3f1g contracted to 8s6p5d3f1g pattern {11111111/111111/11111/111/1}
 Group   3 Type N   : 8s6p5d3f1g contracted to 8s6p5d3f1g pattern {11111111/111111/11111/111/1}
 Group   4 Type S   : 10s8p7d5f2g contracted to 10s8p7d5f2g pattern {1111111111/11111111/1111111/11111/11}
 Group   5 Type H   : 4s3p2d1f contracted to 4s3p2d1f pattern {1111/111/11/1}

Atom   0C    basis set group =>   1
Atom   1C    basis set group =>   1
Atom   2O    basis set group =>   2
Atom   3C    basis set group =>   1
Atom   4O    basis set group =>   2
Atom   5C    basis set group =>   1
Atom   6C    basis set group =>   1
Atom   7C    basis set group =>   1
Atom   8N    basis set group =>   3
Atom   9C    basis set group =>   1
Atom  10S    basis set group =>   4
Atom  11N    basis set group =>   3
Atom  12C    basis set group =>   1
Atom  13C    basis set group =>   1
Atom  14C    basis set group =>   1
Atom  15C    basis set group =>   1
Atom  16C    basis set group =>   1
Atom  17C    basis set group =>   1
Atom  18O    basis set group =>   2
Atom  19C    basis set group =>   1
Atom  20H    basis set group =>   5
Atom  21H    basis set group =>   5
Atom  22H    basis set group =>   5
Atom  23H    basis set group =>   5
Atom  24H    basis set group =>   5
Atom  25H    basis set group =>   5
Atom  26H    basis set group =>   5
Atom  27H    basis set group =>   5
Atom  28H    basis set group =>   5
Atom  29H    basis set group =>   5
Atom  30H    basis set group =>   5
Atom  31H    basis set group =>   5
Atom  32H    basis set group =>   5
Atom  33H    basis set group =>   5
Atom  34H    basis set group =>   5
Atom  35H    basis set group =>   5

Checking for AutoStart:
The File: G2_CONFS/Conf89.orca.gbw exists
Trying to determine its content:
     ... Fine, the file contains calculation information
     ... Fine, the calculation information was read
     ... Fine, the file contains a basis set
     ... Fine, the basis set was read
     ... Fine, the file contains a geometry
     ... Fine, the geometry was read
     ... The file does not contain orbitals - skipping AutoStart
------------------------------------------------------------------------------
                           ORCA GTO INTEGRAL CALCULATION
------------------------------------------------------------------------------

                         BASIS SET STATISTICS AND STARTUP INFO

 # of primitive gaussian shells          ...  682
 # of primitive gaussian functions       ... 1312
 # of contracted shells                  ...  298
 # of contracted basis functions         ...  828
 Highest angular momentum                ...    3
 Maximum contraction depth               ...   13
 Integral package used                   ... LIBINT
 Integral threshhold            Thresh   ...  2.500e-11
 Primitive cut-off              TCut     ...  2.500e-12


------------------------------ INTEGRAL EVALUATION ----------------------------


 * One electron integrals 
 Pre-screening matrix                    ... done
 Shell pair data                         ... done (   0.014 sec)

-------------------------------------------------------------------------------
                                 ORCA SCF
-------------------------------------------------------------------------------

------------
SCF SETTINGS
------------
Hamiltonian:
 Ab initio Hamiltonian  Method          .... Hartree-Fock(GTOs)


General Settings:
 Integral files         IntName         .... G2_CONFS/Conf89.orca
 Hartree-Fock type      HFTyp           .... RHF
 Total Charge           Charge          ....    0
 Multiplicity           Mult            ....    1
 Number of Electrons    NEL             ....  154
 Basis Dimension        Dim             ....  828
 Nuclear Repulsion      ENuc            ....   1748.9288580544 Eh

Convergence Acceleration:
 DIIS                   CNVDIIS         .... on
   Start iteration      DIISMaxIt       ....    12
   Startup error        DIISStart       ....  0.200000
   # of expansion vecs  DIISMaxEq       ....     5
   Bias factor          DIISBfac        ....   1.050
   Max. coefficient     DIISMaxC        ....  10.000
 Newton-Raphson         CNVNR           .... off
 SOSCF                  CNVSOSCF        .... on
   Start iteration      SOSCFMaxIt      ....   150
   Startup grad/error   SOSCFStart      ....  0.003300
 Level Shifting         CNVShift        .... on
   Level shift para.    LevelShift      ....    0.2500
   Turn off err/grad.   ShiftErr        ....    0.0010
 Zerner damping         CNVZerner       .... off
 Static damping         CNVDamp         .... on
   Fraction old density DampFac         ....    0.7000
   Max. Damping (<1)    DampMax         ....    0.9800
   Min. Damping (>=0)   DampMin         ....    0.0000
   Turn off err/grad.   DampErr         ....    0.1000
 Fernandez-Rico         CNVRico         .... off

SCF Procedure:
 Maximum # iterations   MaxIter         ....   125
 SCF integral mode      SCFMode         .... Direct
   Integral package                     .... LIBINT
 Reset frequency        DirectResetFreq ....    20
 Integral Threshold     Thresh          ....  2.500e-11 Eh
 Primitive CutOff       TCut            ....  2.500e-12 Eh

Convergence Tolerance:
 Convergence Check Mode ConvCheckMode   .... Total+1el-Energy
 Convergence forced     ConvForced      .... 1
 Energy Change          TolE            ....  1.000e-08 Eh
 1-El. energy change                    ....  1.000e-05 Eh
 Orbital Gradient       TolG            ....  1.000e-05
 Orbital Rotation angle TolX            ....  1.000e-05
 DIIS Error             TolErr          ....  5.000e-07


Diagonalization of the overlap matrix:
Smallest eigenvalue                        ... 3.330e-05
Time for diagonalization                   ...    0.111 sec
Threshold for overlap eigenvalues          ... 1.000e-08
Number of eigenvalues below threshold      ... 0
Time for construction of square roots      ...    0.058 sec
Total time needed                          ...    0.171 sec

-------------------
DFT GRID GENERATION
-------------------

General Integration Accuracy     IntAcc      ...  4.340
Radial Grid Type                 RadialGrid  ... Gauss-Chebyshev
Angular Grid (max. acc.)         AngularGrid ... Lebedev-110
Angular grid pruning method      GridPruning ... 3 (G Style)
Weight generation scheme         WeightScheme... Becke
Basis function cutoff            BFCut       ...    1.0000e-11
Integration weight cutoff        WCut        ...    1.0000e-14
Grids for H and He will be reduced by one unit

# of grid points (after initial pruning)     ...  46246 (   0.0 sec)
# of grid points (after weights+screening)   ...  41160 (   0.3 sec)
nearest neighbour list constructed           ...    0.0 sec
Grid point re-assignment to atoms done       ...    0.0 sec
Grid point division into batches done        ...    0.0 sec
Reduced shell lists constructed in    1.0 sec

Total number of grid points                  ...    41160
Total number of batches                      ...      660
Average number of points per batch           ...       62
Average number of grid points per atom       ...     1143
Average number of shells per batch           ...   154.36 (51.80%)
Average number of basis functions per batch  ...   393.05 (47.47%)
Average number of large shells per batch     ...    98.86 (64.05%)
Average number of large basis fcns per batch ...   253.56 (64.51%)
Maximum spatial batch extension              ...  20.85, 25.60, 21.09 au
Average spatial batch extension              ...   3.43,  3.32,  3.39 au

Time for grid setup =    1.310 sec

------------------------------
INITIAL GUESS: MODEL POTENTIAL
------------------------------
Loading Hartree-Fock densities                     ... done
Calculating cut-offs                               ... done
Setting up the integral package                    ... done
Initializing the effective Hamiltonian             ... done
Starting the Coulomb interaction                   ... done (   3.3 sec)
Reading the grid                                   ... done
Mapping shells                                     ... done
Starting the XC term evaluation                    ... 