
                                 *****************
                                 * O   R   C   A *
                                 *****************

           --- An Ab Initio, DFT and Semiempirical electronic structure package ---

                  #######################################################
                  #                        -***-                        #
                  #          Department of theory and spectroscopy      #
                  #               Directorship: Frank Neese             #
                  #        Max Planck Institute fuer Kohlenforschung    #
                  #                Kaiser Wilhelm Platz 1               #
                  #                 D-45470 Muelheim/Ruhr               #
                  #                      Germany                        #
                  #                                                     #
                  #                  All rights reserved                #
                  #                        -***-                        #
                  #######################################################


                         Program Version 4.2.0 -  RELEASE  -


 With contributions from (in alphabetic order):
   Daniel Aravena         : Magnetic Suceptibility
   Michael Atanasov       : Ab Initio Ligand Field Theory (pilot matlab implementation)
   Alexander A. Auer      : GIAO ZORA, VPT2
   Ute Becker             : Parallelization
   Giovanni Bistoni       : ED, misc. LED, open-shell LED, HFLED
   Martin Brehm           : Molecular dynamics
   Dmytro Bykov           : SCF Hessian
   Vijay G. Chilkuri      : MRCI spin determinant printing, contributions to CSF-ICE
   Dipayan Datta          : RHF DLPNO-CCSD density
   Achintya Kumar Dutta   : EOM-CC, STEOM-CC
   Dmitry Ganyushin       : Spin-Orbit,Spin-Spin,Magnetic field MRCI
   Miquel Garcia          : C-PCM Hessian, Gaussian charge scheme
   Yang Guo               : DLPNO-NEVPT2, CIM, IAO-localization
   Andreas Hansen         : Spin unrestricted coupled pair/coupled cluster methods
   Benjamin Helmich-Paris : CASSCF linear response (MC-RPA)
   Lee Huntington         : MR-EOM, pCC
   Robert Izsak           : Overlap fitted RIJCOSX, COSX-SCS-MP3, EOM
   Christian Kollmar      : KDIIS, OOCD, Brueckner-CCSD(T), CCSD density
   Simone Kossmann        : Meta GGA functionals, TD-DFT gradient, OOMP2, MP2 Hessian
   Martin Krupicka        : AUTO-CI
   Lucas Lang             : DCDCAS
   Dagmar Lenk            : GEPOL surface, SMD
   Dimitrios Liakos       : Extrapolation schemes; Compound Job, initial MDCI parallelization
   Dimitrios Manganas     : Further ROCIS development; embedding schemes
   Dimitrios Pantazis     : SARC Basis sets
   Taras Petrenko         : DFT Hessian,TD-DFT gradient, ASA, ECA, R-Raman, ABS, FL, XAS/XES, NRVS
   Peter Pinski           : DLPNO-MP2, DLPNO-MP2 Gradient
   Christoph Reimann      : Effective Core Potentials
   Marius Retegan         : Local ZFS, SOC
   Christoph Riplinger    : Optimizer, TS searches, QM/MM, DLPNO-CCSD(T), (RO)-DLPNO pert. Triples
   Tobias Risthaus        : Range-separated hybrids, TD-DFT gradient, RPA, STAB
   Michael Roemelt        : Original ROCIS implementation
   Masaaki Saitow         : Open-shell DLPNO-CCSD energy and density
   Barbara Sandhoefer     : DKH picture change effects
   Avijit Sen             : IP-ROCIS
   Kantharuban Sivalingam : CASSCF convergence, NEVPT2, FIC-MRCI
   Bernardo de Souza      : ESD, SOC TD-DFT
   Georgi Stoychev        : AutoAux, RI-MP2 NMR
   Willem Van den Heuvel  : Paramagnetic NMR
   Boris Wezisla          : Elementary symmetry handling
   Frank Wennmohs         : Technical directorship


 We gratefully acknowledge several colleagues who have allowed us to
 interface, adapt or use parts of their codes:
   Stefan Grimme, W. Hujo, H. Kruse,             : VdW corrections, initial TS optimization,
                  C. Bannwarth                     DFT functionals, gCP, sTDA/sTD-DF
   Ed Valeev, F. Pavosevic, A. Kumar             : LibInt (2-el integral package), F12 methods
   Garnet Chan, S. Sharma, J. Yang, R. Olivares  : DMRG
   Ulf Ekstrom                                   : XCFun DFT Library
   Mihaly Kallay                                 : mrcc  (arbitrary order and MRCC methods)
   Andreas Klamt, Michael Diedenhofen            : otool_cosmo (COSMO solvation model)
   Jiri Pittner, Ondrej Demel                    : Mk-CCSD
   Frank Weinhold                                : gennbo (NPA and NBO analysis)
   Christopher J. Cramer and Donald G. Truhlar   : smd solvation model
   Lars Goerigk                                  : TD-DFT with DH, B97 family of functionals
   V. Asgeirsson, H. Jonsson                     : NEB implementation
   FAccTs GmbH                                   : IRC, NEB, NEB-TS, Multilevel, MM, QM/MM, CI optimization
   S Lehtola, MJT Oliveira, MAL Marques          : LibXC Library


 Your calculation uses the libint2 library for the computation of 2-el integrals
 For citations please refer to: http://libint.valeyev.net

 Your ORCA version has been built with support for libXC version: 4.2.3
 For citations please refer to: https://tddft.org/programs/libxc/

 This ORCA versions uses:
   CBLAS   interface :  Fast vector & matrix operations
   LAPACKE interface :  Fast linear algebra routines
   SCALAPACK package :  Parallel linear algebra routines


----- Orbital basis set information -----
Your calculation utilizes the basis: cc-pVTZ 
       H, B-Ne : Obtained from the ccRepo (grant-hill.group.shef.ac.uk/ccrepo) Feb. 2017
                 T. H. Dunning, Jr., J. Chem. Phys. 90, 1007 (1989)
            He : Obtained from the ccRepo (grant-hill.group.shef.ac.uk/ccrepo) Feb. 2017
                 D. E. Woon, T. H. Dunning, Jr., J. Chem. Phys. 100, 2975 (1994)
  Li-Be, Na-Mg : Obtained from the ccRepo (grant-hill.group.shef.ac.uk/ccrepo) Feb. 2017
                 B. P. Prascher, D. E. Woon, K. A. Peterson, T. H. Dunning, Jr., A. K. Wilson, Theor. Chem. Acc. 128, 69 (2011)
         Al-Ar : Obtained from the ccRepo (grant-hill.group.shef.ac.uk/ccrepo) Feb. 2017
                 D. E. Woon, T. H. Dunning, Jr., J. Chem. Phys. 98, 1358 (1993)
            Ca : Obtained from the Peterson Research Group Website (tyr0.chem.wsu.edu/~kipeters) Feb. 2017
                 J. Koput, K. A. Peterson, J. Phys. Chem. 106, 9595 (2002)
         Sc-Zn : Obtained from the ccRepo (grant-hill.group.shef.ac.uk/ccrepo) Feb. 2017
                 N. B. Balabanov, K. A. Peterson, J. Chem. Phys. 123, 064107 (2005)
                 N. B. Balabanov, K. A. Peterson, J. Chem. Phys. 125, 074110 (2006)
         Ga-Kr : Obtained from the ccRepo (grant-hill.group.shef.ac.uk/ccrepo) Feb. 2017
                 A. K. Wilson, D. E. Woon, K. A. Peterson, T. H. Dunning, Jr., J. Chem. Phys. 110, 7667 (1999)
             Y : Obtained from the ccRepo (grant-hill.group.shef.ac.uk/ccrepo) Feb. 2017
                 K. A. Peterson, D. Figgen, M. Dolg, H. Stoll, J. Chem. Phys. 126, 124101 (2007)
        Ag, Au : Obtained from the Peterson Research Group Website (tyr0.chem.wsu.edu/~kipeters) Feb. 2017
                 K. A. Peterson, C. Puzzarini, Theor. Chem. Acc. 114, 283 (2005)

----- AuxC basis set information -----
Your calculation utilizes the auxiliary basis: cc-pVTZ/C 
  Obtained from the EMSL Basis Set Exchange (bse.pnl.gov) Feb. 2017
  H-He, B-F, Al-Ar, Ga-Kr : F. Weigend, A. Kohn, C. Hattig, J. Chem. Phys. 116, 3175 (2002)
             Li-Be, Na-Mg : C. Haettig, Phys. Chem. Chem. Phys. 7, 59 (2005)
                       Ne : C. Haettig, Phys. Chem. Chem. Phys. 7, 59 (2005)
                            F. Weigend, A. Kohn, C. Hattig, J. Chem. Phys. 116, 3175 (2002)
                    Sc-Zn : J. G. Hill, J. A. Platts, J. Chem. Phys. 128, 044104 (2008)

================================================================================
                                        WARNINGS
                       Please study these warnings very carefully!
================================================================================


WARNING: No MP2 level density has been requested!
         To caclulate MP2 level properties use
         %mp2 Density relaxed end
         or
         %mp2 Density unrelaxed end

WARNING: Post HF methods need fully converged wavefunctions
  ===> : Setting SCFConvForced true
         You can overwrite this default with %scf ConvForced false 


INFO   : the flag for use of LIBINT has been found!

================================================================================
                                       INPUT FILE
================================================================================
NAME = G2_CONFS/Conf30.orca
|  1> ! ri-mp2 cc-pvtz cc-pvtz/c TightSCF  NoKeepInts
|  2> 
|  3> %scf
|  4>   MaxCore 4096
|  5> end
|  6> *xyz  0  1
|  7>     C       14.5866327   14.4000780   16.8090603
|  8>     C       15.5859584   15.5576817   16.7499166
|  9>     O       16.9087910   14.9799154   16.6072842
| 10>     C       18.0624277   15.7243224   16.5209579
| 11>     O       19.1357789   15.2155182   16.2553621
| 12>     C       17.9546313   16.8308339   17.4949723
| 13>     C       17.4190837   17.9972659   17.0277212
| 14>     C       16.9299639   18.3192100   15.6220426
| 15>     N       17.6211312   19.1324883   17.8217044
| 16>     C       18.3046220   19.2105473   19.0049481
| 17>     S       18.3745983   20.6322447   19.8493122
| 18>     N       18.8944924   18.0541176   19.4531845
| 19>     C       18.8415579   16.7662054   18.7282314
| 20>     C       17.9987144   15.8500487   19.6625751
| 21>     C       18.4094622   14.4904514   19.7576575
| 22>     C       17.7082526   13.5426745   20.5164488
| 23>     C       16.5486883   13.9328242   21.1942225
| 24>     C       16.1039408   15.2588788   21.0936459
| 25>     O       14.9640646   15.6178016   21.7349755
| 26>     C       16.8107548   16.2096822   20.3340417
| 27>     H       14.9547891   13.6238387   17.4904393
| 28>     H       14.4585338   13.9623573   15.8121516
| 29>     H       13.6099049   14.7440880   17.1714465
| 30>     H       15.2997825   16.2990422   15.9942232
| 31>     H       15.5468240   16.0441678   17.7370363
| 32>     H       17.0388789   17.4813312   14.9209540
| 33>     H       17.5017216   19.1487982   15.1786946
| 34>     H       15.8764557   18.6172219   15.6338555
| 35>     H       17.2584530   20.0156992   17.4919641
| 36>     H       19.3340983   18.1233792   20.3606457
| 37>     H       19.6686318   16.0524868   18.7256741
| 38>     H       19.2855191   14.1368109   19.2145921
| 39>     H       18.0607994   12.5114828   20.5659141
| 40>     H       15.9993976   13.2015920   21.7807781
| 41>     H       14.6669599   14.8492311   22.2482450
| 42>     H       16.4227035   17.2176842   20.2691200
| 43> *
| 44> 
| 45>                          ****END OF INPUT****
================================================================================

                       ****************************
                       * Single Point Calculation *
                       ****************************

---------------------------------
CARTESIAN COORDINATES (ANGSTROEM)
---------------------------------
  C     14.586633   14.400078   16.809060
  C     15.585958   15.557682   16.749917
  O     16.908791   14.979915   16.607284
  C     18.062428   15.724322   16.520958
  O     19.135779   15.215518   16.255362
  C     17.954631   16.830834   17.494972
  C     17.419084   17.997266   17.027721
  C     16.929964   18.319210   15.622043
  N     17.621131   19.132488   17.821704
  C     18.304622   19.210547   19.004948
  S     18.374598   20.632245   19.849312
  N     18.894492   18.054118   19.453184
  C     18.841558   16.766205   18.728231
  C     17.998714   15.850049   19.662575
  C     18.409462   14.490451   19.757658
  C     17.708253   13.542675   20.516449
  C     16.548688   13.932824   21.194222
  C     16.103941   15.258879   21.093646
  O     14.964065   15.617802   21.734976
  C     16.810755   16.209682   20.334042
  H     14.954789   13.623839   17.490439
  H     14.458534   13.962357   15.812152
  H     13.609905   14.744088   17.171446
  H     15.299782   16.299042   15.994223
  H     15.546824   16.044168   17.737036
  H     17.038879   17.481331   14.920954
  H     17.501722   19.148798   15.178695
  H     15.876456   18.617222   15.633855
  H     17.258453   20.015699   17.491964
  H     19.334098   18.123379   20.360646
  H     19.668632   16.052487   18.725674
  H     19.285519   14.136811   19.214592
  H     18.060799   12.511483   20.565914
  H     15.999398   13.201592   21.780778
  H     14.666960   14.849231   22.248245
  H     16.422704   17.217684   20.269120

----------------------------
CARTESIAN COORDINATES (A.U.)
----------------------------
  NO LB      ZA    FRAG     MASS         X           Y           Z
   0 C     6.0000    0    12.011   27.564741   27.212204   31.764521
   1 C     6.0000    0    12.011   29.453193   29.399758   31.652755
   2 O     8.0000    0    15.999   31.952984   28.307938   31.383219
   3 C     6.0000    0    12.011   34.133042   29.714663   31.220086
   4 O     8.0000    0    15.999   36.161381   28.753162   30.718183
   5 C     6.0000    0    12.011   33.929336   31.805667   33.060706
   6 C     6.0000    0    12.011   32.917298   34.009904   32.177730
   7 C     6.0000    0    12.011   31.992995   34.618290   29.521382
   8 N     7.0000    0    14.007   33.299112   36.155163   33.678141
   9 C     6.0000    0    12.011   34.590723   36.302673   35.914147
  10 S    16.0000    0    32.060   34.722959   38.989292   37.509764
  11 N     7.0000    0    14.007   35.705416   34.117338   36.761191
  12 C     6.0000    0    12.011   35.605384   31.683537   35.391228
  13 C     6.0000    0    12.011   34.012641   29.952251   37.156882
  14 C     6.0000    0    12.011   34.788842   27.382985   37.336562
  15 C     6.0000    0    12.011   33.463748   25.591946   38.770469
  16 C     6.0000    0    12.011   31.272489   26.329222   40.051276
  17 C     6.0000    0    12.011   30.432038   28.835102   39.861214
  18 O     8.0000    0    15.999   28.277984   29.513368   41.073151
  19 C     6.0000    0    12.011   31.767723   30.631860   38.425770
  20 H     1.0000    0     1.008   28.260456   25.745324   33.052140
  21 H     1.0000    0     1.008   27.322669   26.385031   29.880636
  22 H     1.0000    0     1.008   25.718993   27.862288   32.449331
  23 H     1.0000    0     1.008   28.912399   30.800726   30.224702
  24 H     1.0000    0     1.008   29.379240   30.319083   33.518141
  25 H     1.0000    0     1.008   32.198815   33.034928   28.196517
  26 H     1.0000    0     1.008   33.073461   36.185984   28.683576
  27 H     1.0000    0     1.008   30.002153   35.181451   29.543705
  28 H     1.0000    0     1.008   32.613750   37.824190   33.055022
  29 H     1.0000    0     1.008   36.536151   34.248223   38.476044
  30 H     1.0000    0     1.008   37.168328   30.334804   35.386396
  31 H     1.0000    0     1.008   36.444349   26.714701   36.310317
  32 H     1.0000    0     1.008   34.129965   23.643276   38.863945
  33 H     1.0000    0     1.008   30.234480   24.947393   41.159706
  34 H     1.0000    0     1.008   27.716537   28.060980   42.043090
  35 H     1.0000    0     1.008   31.034412   32.536708   38.303086

--------------------------------
INTERNAL COORDINATES (ANGSTROEM)
--------------------------------
 C      0   0   0     0.000000000000     0.00000000     0.00000000
 C      1   0   0     1.530423522488     0.00000000     0.00000000
 O      2   1   0     1.450532311453   107.33787606     0.00000000
 C      3   2   1     1.375671344220   123.73867659   179.99999879
 O      4   3   2     1.217171163582   121.80316303   188.22106936
 C      4   3   2     1.478070301066   107.61281512    41.06955581
 C      6   4   3     1.365905718906   116.26115529   268.60003107
 C      7   6   4     1.522766728286   128.48151574   359.15541702
 N      7   6   4     1.399986575507   116.22320190   195.63154342
 C      9   7   6     1.368692271753   127.48902732     0.71158271
 S     10   9   7     1.655013870968   120.74144860   183.19503625
 N     10   9   7     1.373387276089   116.65460404     1.96394847
 C     12  10   9     1.478876902720   123.91309607     0.77158847
 C     13  12  10     1.556510974641   103.75161937   246.11978938
 C     14  13  12     1.423467328800   116.48939167   218.25299687
 C     15  14  13     1.402048569865   122.51347021   182.79478968
 C     16  15  14     1.398636243866   119.23147616     0.95227490
 C     17  16  15     1.402261314237   119.47105477     0.51782685
 O     18  17  16     1.356262136728   118.87532039   178.74819285
 C     18  17  16     1.407342061016   121.21886032   359.32265238
 H      1   2   3     1.096523564437   109.89136608    45.56222825
 H      1   2   3     1.096282671361   110.06998377   285.80225313
 H      1   2   3     1.097116143963   110.91070384   165.40088754
 H      2   1   3     1.096624161463   111.56659117   128.20489050
 H      2   1   3     1.101183694433   106.04042157   245.60783027
 H      8   7   6     1.097920118116   113.34401845   359.92898918
 H      8   7   6     1.100763779470   111.36398857   241.21633686
 H      8   7   6     1.094911030456   110.89421001   121.67940426
 H      9   7   6     1.010111694853   118.16782586   178.42097788
 H     12  10   9     1.010710812278   114.96977103   184.28521522
 H     13  12  10     1.092452294533   122.88843133   145.10086193
 H     15  14  13     1.089705154597   120.57453978     1.41164544
 H     16  15  14     1.090913554890   120.12584086   180.29601063
 H     17  16  15     1.086493568925   119.53936039   179.77936106
 H     19  18  17     0.970781847720   107.32032728     4.57716193
 H     20  18  17     1.082065927089   118.79202147   178.93037919

---------------------------
INTERNAL COORDINATES (A.U.)
---------------------------
 C      0   0   0     0.000000000000     0.00000000     0.00000000
 C      1   0   0     2.892081326413     0.00000000     0.00000000
 O      2   1   0     2.741108817049   107.33787606     0.00000000
 C      3   2   1     2.599642090859   123.73867659   179.99999879
 O      4   3   2     2.300120157277   121.80316303   188.22106936
 C      4   3   2     2.793148075697   107.61281512    41.06955581
 C      6   4   3     2.581187733490   116.26115529   268.60003107
 C      7   6   4     2.877612082308   128.48151574   359.15541702
 N      7   6   4     2.645591218875   116.22320190   195.63154342
 C      9   7   6     2.586453555227   127.48902732     0.71158271
 S     10   9   7     3.127522963971   120.74144860   183.19503625
 N     10   9   7     2.595325827620   116.65460404     1.96394847
 C     12  10   9     2.794672331923   123.91309607     0.77158847
 C     13  12  10     2.941379466514   103.75161937   246.11978938
 C     14  13  12     2.689963412017   116.48939167   218.25299687
 C     15  14  13     2.649487823501   122.51347021   182.79478968
 C     16  15  14     2.643039461883   119.23147616     0.95227490
 C     17  16  15     2.649889852100   119.47105477     0.51782685
 O     18  17  16     2.562964004223   118.87532039   178.74819285
 C     18  17  16     2.659491072069   121.21886032   359.32265238
 H      1   2   3     2.072129236178   109.89136608    45.56222825
 H      1   2   3     2.071674014235   110.06998377   285.80225313
 H      1   2   3     2.073249049193   110.91070384   165.40088754
 H      2   1   3     2.072319337006   111.56659117   128.20489050
 H      2   1   3     2.080935605618   106.04042157   245.60783027
 H      8   7   6     2.074768340162   113.34401845   359.92898918
 H      8   7   6     2.080142081338   111.36398857   241.21633686
 H      8   7   6     2.069081988572   110.89421001   121.67940426
 H      9   7   6     1.908834467943   118.16782586   178.42097788
 H     12  10   9     1.909966635798   114.96977103   184.28521522
 H     13  12  10     2.064435651041   122.88843133   145.10086193
 H     15  14  13     2.059244308910   120.57453978     1.41164544
 H     16  15  14     2.061527854525   120.12584086   180.29601063
 H     17  16  15     2.053175291534   119.53936039   179.77936106
 H     19  18  17     1.834511827973   107.32032728     4.57716193
 H     20  18  17     2.044808261045   118.79202147   178.93037919

---------------------
BASIS SET INFORMATION
---------------------
There are 5 groups of distinct atoms

 Group   1 Type C   : 18s5p2d1f contracted to 4s3p2d1f pattern {8811/311/11/1}
 Group   2 Type O   : 18s5p2d1f contracted to 4s3p2d1f pattern {8811/311/11/1}
 Group   3 Type N   : 18s5p2d1f contracted to 4s3p2d1f pattern {8811/311/11/1}
 Group   4 Type S   : 41s16p2d1f contracted to 5s4p2d1f pattern {13131311/7711/11/1}
 Group   5 Type H   : 5s2p1d contracted to 3s2p1d pattern {311/11/1}

Atom   0C    basis set group =>   1
Atom   1C    basis set group =>   1
Atom   2O    basis set group =>   2
Atom   3C    basis set group =>   1
Atom   4O    basis set group =>   2
Atom   5C    basis set group =>   1
Atom   6C    basis set group =>   1
Atom   7C    basis set group =>   1
Atom   8N    basis set group =>   3
Atom   9C    basis set group =>   1
Atom  10S    basis set group =>   4
Atom  11N    basis set group =>   3
Atom  12C    basis set group =>   1
Atom  13C    basis set group =>   1
Atom  14C    basis set group =>   1
Atom  15C    basis set group =>   1
Atom  16C    basis set group =>   1
Atom  17C    basis set group =>   1
Atom  18O    basis set group =>   2
Atom  19C    basis set group =>   1
Atom  20H    basis set group =>   5
Atom  21H    basis set group =>   5
Atom  22H    basis set group =>   5
Atom  23H    basis set group =>   5
Atom  24H    basis set group =>   5
Atom  25H    basis set group =>   5
Atom  26H    basis set group =>   5
Atom  27H    basis set group =>   5
Atom  28H    basis set group =>   5
Atom  29H    basis set group =>   5
Atom  30H    basis set group =>   5
Atom  31H    basis set group =>   5
Atom  32H    basis set group =>   5
Atom  33H    basis set group =>   5
Atom  34H    basis set group =>   5
Atom  35H    basis set group =>   5
---------------------------------
AUXILIARY/C BASIS SET INFORMATION
---------------------------------
There are 5 groups of distinct atoms

 Group   1 Type C   : 8s6p5d3f1g contracted to 8s6p5d3f1g pattern {11111111/111111/11111/111/1}
 Group   2 Type O   : 8s6p5d3f1g contracted to 8s6p5d3f1g pattern {11111111/111111/11111/111/1}
 Group   3 Type N   : 8s6p5d3f1g contracted to 8s6p5d3f1g pattern {11111111/111111/11111/111/1}
 Group   4 Type S   : 10s8p7d5f2g contracted to 10s8p7d5f2g pattern {1111111111/11111111/1111111/11111/11}
 Group   5 Type H   : 4s3p2d1f contracted to 4s3p2d1f pattern {1111/111/11/1}

Atom   0C    basis set group =>   1
Atom   1C    basis set group =>   1
Atom   2O    basis set group =>   2
Atom   3C    basis set group =>   1
Atom   4O    basis set group =>   2
Atom   5C    basis set group =>   1
Atom   6C    basis set group =>   1
Atom   7C    basis set group =>   1
Atom   8N    basis set group =>   3
Atom   9C    basis set group =>   1
Atom  10S    basis set group =>   4
Atom  11N    basis set group =>   3
Atom  12C    basis set group =>   1
Atom  13C    basis set group =>   1
Atom  14C    basis set group =>   1
Atom  15C    basis set group =>   1
Atom  16C    basis set group =>   1
Atom  17C    basis set group =>   1
Atom  18O    basis set group =>   2
Atom  19C    basis set group =>   1
Atom  20H    basis set group =>   5
Atom  21H    basis set group =>   5
Atom  22H    basis set group =>   5
Atom  23H    basis set group =>   5
Atom  24H    basis set group =>   5
Atom  25H    basis set group =>   5
Atom  26H    basis set group =>   5
Atom  27H    basis set group =>   5
Atom  28H    basis set group =>   5
Atom  29H    basis set group =>   5
Atom  30H    basis set group =>   5
Atom  31H    basis set group =>   5
Atom  32H    basis set group =>   5
Atom  33H    basis set group =>   5
Atom  34H    basis set group =>   5
Atom  35H    basis set group =>   5
------------------------------------------------------------------------------
                           ORCA GTO INTEGRAL CALCULATION
------------------------------------------------------------------------------

                         BASIS SET STATISTICS AND STARTUP INFO

 # of primitive gaussian shells          ...  682
 # of primitive gaussian functions       ... 1312
 # of contracted shells                  ...  298
 # of contracted basis functions         ...  828
 Highest angular momentum                ...    3
 Maximum contraction depth               ...   13
 Integral package used                   ... LIBINT
 Integral threshhold            Thresh   ...  2.500e-11
 Primitive cut-off              TCut     ...  2.500e-12


------------------------------ INTEGRAL EVALUATION ----------------------------


 * One electron integrals 
 Pre-screening matrix                    ... done
 Shell pair data                         ... done (   0.015 sec)

-------------------------------------------------------------------------------
                                 ORCA SCF
-------------------------------------------------------------------------------

------------
SCF SETTINGS
------------
Hamiltonian:
 Ab initio Hamiltonian  Method          .... Hartree-Fock(GTOs)


General Settings:
 Integral files         IntName         .... G2_CONFS/Conf30.orca
 Hartree-Fock type      HFTyp           .... RHF
 Total Charge           Charge          ....    0
 Multiplicity           Mult            ....    1
 Number of Electrons    NEL             ....  154
 Basis Dimension        Dim             ....  828
 Nuclear Repulsion      ENuc            ....   1733.4185151729 Eh

Convergence Acceleration:
 DIIS                   CNVDIIS         .... on
   Start iteration      DIISMaxIt       ....    12
   Startup error        DIISStart       ....  0.200000
   # of expansion vecs  DIISMaxEq       ....     5
   Bias factor          DIISBfac        ....   1.050
   Max. coefficient     DIISMaxC        ....  10.000
 Newton-Raphson         CNVNR           .... off
 SOSCF                  CNVSOSCF        .... on
   Start iteration      SOSCFMaxIt      ....   150
   Startup grad/error   SOSCFStart      ....  0.003300
 Level Shifting         CNVShift        .... on
   Level shift para.    LevelShift      ....    0.2500
   Turn off err/grad.   ShiftErr        ....    0.0010
 Zerner damping         CNVZerner       .... off
 Static damping         CNVDamp         .... on
   Fraction old density DampFac         ....    0.7000
   Max. Damping (<1)    DampMax         ....    0.9800
   Min. Damping (>=0)   DampMin         ....    0.0000
   Turn off err/grad.   DampErr         ....    0.1000
 Fernandez-Rico         CNVRico         .... off

SCF Procedure:
 Maximum # iterations   MaxIter         ....   125
 SCF integral mode      SCFMode         .... Direct
   Integral package                     .... LIBINT
 Reset frequency        DirectResetFreq ....    20
 Integral Threshold     Thresh          ....  2.500e-11 Eh
 Primitive CutOff       TCut            ....  2.500e-12 Eh

Convergence Tolerance:
 Convergence Check Mode ConvCheckMode   .... Total+1el-Energy
 Convergence forced     ConvForced      .... 1
 Energy Change          TolE            ....  1.000e-08 Eh
 1-El. energy change                    ....  1.000e-05 Eh
 Orbital Gradient       TolG            ....  1.000e-05
 Orbital Rotation angle TolX            ....  1.000e-05
 DIIS Error             TolErr          ....  5.000e-07


Diagonalization of the overlap matrix:
Smallest eigenvalue                        ... 3.312e-05
Time for diagonalization                   ...    0.125 sec
Threshold for overlap eigenvalues          ... 1.000e-08
Number of eigenvalues below threshold      ... 0
Time for construction of square roots      ...    0.077 sec
Total time needed                          ...    0.206 sec

-------------------
DFT GRID GENERATION
-------------------

General Integration Accuracy     IntAcc      ...  4.340
Radial Grid Type                 RadialGrid  ... Gauss-Chebyshev
Angular Grid (max. acc.)         AngularGrid ... Lebedev-110
Angular grid pruning method      GridPruning ... 3 (G Style)
Weight generation scheme         WeightScheme... Becke
Basis function cutoff            BFCut       ...    1.0000e-11
Integration weight cutoff        WCut        ...    1.0000e-14
Grids for H and He will be reduced by one unit

# of grid points (after initial pruning)     ...  46246 (   0.0 sec)
# of grid points (after weights+screening)   ...  41131 (   0.3 sec)
nearest neighbour list constructed           ...    0.0 sec
Grid point re-assignment to atoms done       ...    0.0 sec
Grid point division into batches done        ...    0.0 sec
Reduced shell lists constructed in    1.0 sec

Total number of grid points                  ...    41131
Total number of batches                      ...      660
Average number of points per batch           ...       62
Average number of grid points per atom       ...     1143
Average number of shells per batch           ...   154.53 (51.86%)
Average number of basis functions per batch  ...   393.41 (47.51%)
Average number of large shells per batch     ...    99.55 (64.42%)
Average number of large basis fcns per batch ...   254.51 (64.69%)
Maximum spatial batch extension              ...  19.30, 25.58, 19.27 au
Average spatial batch extension              ...   3.40,  3.37,  3.30 au

Time for grid setup =    1.333 sec

------------------------------
INITIAL GUESS: MODEL POTENTIAL
------------------------------
Loading Hartree-Fock densities                     ... done
Calculating cut-offs                               ... done
Setting up the integral package                    ... done
Initializing the effective Hamiltonian             ... done
Starting the Coulomb interaction                   ... done (   3.3 sec)
Reading the grid                                   ... done
Mapping shells                                     ... done
Starting the XC term evaluation                    ... done (   1.5 sec)
Transforming the Hamiltonian                       ... done (   0.1 sec)
Diagonalizing the Hamiltonian                      ... done (   0.1 sec)
Back transforming the eigenvectors                 ... done (   0.0 sec)
Now organizing SCF variables                       ... done
                      ------------------
                      INITIAL GUESS DONE (   6.5 sec)
                      ------------------
--------------
SCF ITERATIONS
--------------
ITER       Energy         Delta-E        Max-DP      RMS-DP      [F,P]     Damp
               ***  Starting incremental Fock matrix formation  ***
  0  -1269.9308125162   0.000000000000 0.04929908  0.00045768  0.3059356 0.7000
  1  -1270.1987632492  -0.267950732990 0.03608548  0.00037396  0.1814783 0.7000
                               ***Turning on DIIS***
  2  -1270.3653986980  -0.166635448764 0.02585307  0.00024757  0.1098452 0.7000
  3  -1272.4815311317  -2.116132433772 0.06322065  0.00051869  0.0829242 0.0000
  4  -1270.6774765495   1.804054582196 0.01380934  0.00010485  0.0068289 0.0000
  5  -1270.7343708769  -0.056894327371 0.00538778  0.00005383  0.0036464 0.0000
                      *** Initiating the SOSCF procedure ***
                           *** Shutting down DIIS ***
                      *** Re-Reading the Fockian *** 
                      *** Removing any level shift *** 
ITER      Energy       Delta-E        Grad      Rot      Max-DP    RMS-DP
  6  -1270.71231579   0.0220550884  0.001365  0.001365  0.002460  0.000028
               *** Restarting incremental Fock matrix formation ***
  7  -1270.72738708  -0.0150712933  0.000758  0.001933  0.001482  0.000018
  8  -1270.72743597  -0.0000488855  0.000377  0.002283  0.001531  0.000020
  9  -1270.72745538  -0.0000194153  0.000147  0.000284  0.000414  0.000005
 10  -1270.72745793  -0.0000025443  0.000039  0.000115  0.000138  0.000002
 11  -1270.72745817  -0.0000002422  0.000018  0.000087  0.000066  0.000001
 12  -1270.72745824  -0.0000000739  0.000009  0.000034  0.000034  0.000000
 13  -1270.72745825  -0.0000000064  0.000004  0.000014  0.000008  0.000000
                  ***Gradient check signals convergence***
              ***Rediagonalizing the Fockian in SOSCF/NRSCF***

               *****************************************************
               *                     SUCCESS                       *
               *           SCF CONVERGED AFTER  14 CYCLES          *
               *****************************************************


----------------
TOTAL SCF ENERGY
----------------

Total Energy       :        -1270.72745824 Eh          -34578.25206 eV

Components:
Nuclear Repulsion  :         1733.41851517 Eh           47168.71581 eV
Electronic Energy  :        -3004.14597341 Eh          -81746.96787 eV
One Electron Energy:        -5187.47582929 Eh         -141158.39367 eV
Two Electron Energy:         2183.32985587 Eh           59411.42580 eV

Virial components:
Potential Energy   :        -2539.69320368 Eh          -69108.56548 eV
Kinetic Energy     :         1268.96574543 Eh           34530.31342 eV
Virial Ratio       :            2.00138831


---------------
SCF CONVERGENCE
---------------

  Last Energy change         ...    9.1181e-09  Tolerance :   1.0000e-08
  Last MAX-Density change    ...    4.7251e-06  Tolerance :   1.0000e-07
  Last RMS-Density change    ...    4.2700e-08  Tolerance :   5.0000e-09
  Last Orbital Gradient      ...    1.8936e-06  Tolerance :   1.0000e-05
  Last Orbital Rotation      ...    4.3089e-06  Tolerance :   1.0000e-05

             **** THE GBW FILE WAS UPDATED (G2_CONFS/Conf30.orca.gbw) ****
             **** DENSITY FILE WAS UPDATED (G2_CONFS/Conf30.orca.scfp) ****
             **** ENERGY FILE WAS UPDATED (G2_CONFS/Conf30.orca.en.tmp) ****
             **** THE GBW FILE WAS UPDATED (G2_CONFS/Conf30.orca.gbw) ****
             **** DENSITY FILE WAS UPDATED (G2_CONFS/Conf30.orca.scfp) ****
----------------
ORBITAL ENERGIES
----------------

  NO   OCC          E(Eh)            E(eV) 
   0   2.0000     -91.890180     -2500.4589 
   1   2.0000     -20.600266      -560.5617 
   2   2.0000     -20.597219      -560.4788 
   3   2.0000     -20.557643      -559.4019 
   4   2.0000     -15.623265      -425.1307 
   5   2.0000     -15.616057      -424.9345 
   6   2.0000     -11.396188      -310.1060 
   7   2.0000     -11.387549      -309.8710 
   8   2.0000     -11.329343      -308.2871 
   9   2.0000     -11.321870      -308.0837 
  10   2.0000     -11.316087      -307.9264 
  11   2.0000     -11.303422      -307.5817 
  12   2.0000     -11.276736      -306.8556 
  13   2.0000     -11.265371      -306.5463 
  14   2.0000     -11.262019      -306.4551 
  15   2.0000     -11.253203      -306.2152 
  16   2.0000     -11.241156      -305.8874 
  17   2.0000     -11.240154      -305.8601 
  18   2.0000     -11.235360      -305.7297 
  19   2.0000     -11.231567      -305.6265 
  20   2.0000      -8.895219      -242.0512 
  21   2.0000      -6.576806      -178.9640 
  22   2.0000      -6.574768      -178.9085 
  23   2.0000      -6.574204      -178.8932 
  24   2.0000      -1.448203       -39.4076 
  25   2.0000      -1.417147       -38.5625 
  26   2.0000      -1.362988       -37.0888 
  27   2.0000      -1.339587       -36.4520 
  28   2.0000      -1.240594       -33.7583 
  29   2.0000      -1.158589       -31.5268 
  30   2.0000      -1.125042       -30.6139 
  31   2.0000      -1.049747       -28.5651 
  32   2.0000      -1.042917       -28.3792 
  33   2.0000      -1.015817       -27.6418 
  34   2.0000      -1.003412       -27.3042 
  35   2.0000      -0.988639       -26.9022 
  36   2.0000      -0.931158       -25.3381 
  37   2.0000      -0.879935       -23.9442 
  38   2.0000      -0.856785       -23.3143 
  39   2.0000      -0.839554       -22.8454 
  40   2.0000      -0.834176       -22.6991 
  41   2.0000      -0.832117       -22.6430 
  42   2.0000      -0.754105       -20.5202 
  43   2.0000      -0.738117       -20.0852 
  44   2.0000      -0.725836       -19.7510 
  45   2.0000      -0.697301       -18.9745 
  46   2.0000      -0.693396       -18.8683 
  47   2.0000      -0.683041       -18.5865 
  48   2.0000      -0.676588       -18.4109 
  49   2.0000      -0.666983       -18.1495 
  50   2.0000      -0.655653       -17.8412 
  51   2.0000      -0.648140       -17.6368 
  52   2.0000      -0.638521       -17.3750 
  53   2.0000      -0.611003       -16.6262 
  54   2.0000      -0.608281       -16.5522 
  55   2.0000      -0.600842       -16.3497 
  56   2.0000      -0.597611       -16.2618 
  57   2.0000      -0.587511       -15.9870 
  58   2.0000      -0.574780       -15.6406 
  59   2.0000      -0.564682       -15.3658 
  60   2.0000      -0.559718       -15.2307 
  61   2.0000      -0.556147       -15.1335 
  62   2.0000      -0.555433       -15.1141 
  63   2.0000      -0.527046       -14.3416 
  64   2.0000      -0.517166       -14.0728 
  65   2.0000      -0.514188       -13.9918 
  66   2.0000      -0.504287       -13.7223 
  67   2.0000      -0.500655       -13.6235 
  68   2.0000      -0.487273       -13.2594 
  69   2.0000      -0.464243       -12.6327 
  70   2.0000      -0.457709       -12.4549 
  71   2.0000      -0.448432       -12.2024 
  72   2.0000      -0.352814        -9.6006 
  73   2.0000      -0.345693        -9.4068 
  74   2.0000      -0.329605        -8.9690 
  75   2.0000      -0.320717        -8.7272 
  76   2.0000      -0.312491        -8.5033 
  77   0.0000       0.080625         2.1939 
  78   0.0000       0.105557         2.8724 
  79   0.0000       0.109438         2.9780 
  80   0.0000       0.128962         3.5092 
  81   0.0000       0.130094         3.5400 
  82   0.0000       0.143016         3.8917 
  83   0.0000       0.144951         3.9443 
  84   0.0000       0.150259         4.0888 
  85   0.0000       0.158711         4.3188 
  86   0.0000       0.166144         4.5210 
  87   0.0000       0.173413         4.7188 
  88   0.0000       0.182317         4.9611 
  89   0.0000       0.188840         5.1386 
  90   0.0000       0.193301         5.2600 
  91   0.0000       0.204938         5.5767 
  92   0.0000       0.211735         5.7616 
  93   0.0000       0.213732         5.8159 
  94   0.0000       0.221005         6.0139 
  95   0.0000       0.228981         6.2309 
  96   0.0000       0.236491         6.4352 
  97   0.0000       0.244963         6.6658 
  98   0.0000       0.253212         6.8903 
  99   0.0000       0.265012         7.2114 
 100   0.0000       0.274496         7.4694 
 101   0.0000       0.293908         7.9976 
 102   0.0000       0.303716         8.2645 
 103   0.0000       0.310623         8.4525 
 104   0.0000       0.319492         8.6938 
 105   0.0000       0.333382         9.0718 
 106   0.0000       0.341116         9.2823 
 107   0.0000       0.348973         9.4960 
 108   0.0000       0.353914         9.6305 
 109   0.0000       0.356559         9.7025 
 110   0.0000       0.361948         9.8491 
 111   0.0000       0.375307        10.2126 
 112   0.0000       0.380769        10.3612 
 113   0.0000       0.390899        10.6369 
 114   0.0000       0.394023        10.7219 
 115   0.0000       0.409311        11.1379 
 116   0.0000       0.420087        11.4312 
 117   0.0000       0.426130        11.5956 
 118   0.0000       0.432655        11.7731 
 119   0.0000       0.441181        12.0051 
 120   0.0000       0.445359        12.1188 
 121   0.0000       0.447685        12.1821 
 122   0.0000       0.452625        12.3166 
 123   0.0000       0.458245        12.4695 
 124   0.0000       0.464854        12.6493 
 125   0.0000       0.470569        12.8048 
 126   0.0000       0.478658        13.0249 
 127   0.0000       0.482731        13.1358 
 128   0.0000       0.483966        13.1694 
 129   0.0000       0.491986        13.3876 
 130   0.0000       0.499713        13.5979 
 131   0.0000       0.503721        13.7069 
 132   0.0000       0.508164        13.8279 
 133   0.0000       0.516509        14.0549 
 134   0.0000       0.520767        14.1708 
 135   0.0000       0.522713        14.2237 
 136   0.0000       0.531857        14.4726 
 137   0.0000       0.536388        14.5959 
 138   0.0000       0.539369        14.6770 
 139   0.0000       0.549219        14.9450 
 140   0.0000       0.552284        15.0284 
 141   0.0000       0.559911        15.2360 
 142   0.0000       0.563394        15.3307 
 143   0.0000       0.569947        15.5091 
 144   0.0000       0.571581        15.5535 
 145   0.0000       0.579877        15.7793 
 146   0.0000       0.586473        15.9587 
 147   0.0000       0.591069        16.0838 
 148   0.0000       0.592761        16.1299 
 149   0.0000       0.596975        16.2445 
 150   0.0000       0.599582        16.3154 
 151   0.0000       0.604012        16.4360 
 152   0.0000       0.607949        16.5431 
 153   0.0000       0.610952        16.6249 
 154   0.0000       0.616026        16.7629 
 155   0.0000       0.619201        16.8493 
 156   0.0000       0.628321        17.0975 
 157   0.0000       0.636512        17.3204 
 158   0.0000       0.643446        17.5091 
 159   0.0000       0.649767        17.6811 
 160   0.0000       0.651178        17.7195 
 161   0.0000       0.655307        17.8318 
 162   0.0000       0.660580        17.9753 
 163   0.0000       0.664658        18.0863 
 164   0.0000       0.670664        18.2497 
 165   0.0000       0.672934        18.3115 
 166   0.0000       0.679878        18.5004 
 167   0.0000       0.686769        18.6879 
 168   0.0000       0.692550        18.8453 
 169   0.0000       0.696022        18.9397 
 170   0.0000       0.705763        19.2048 
 171   0.0000       0.711040        19.3484 
 172   0.0000       0.715911        19.4809 
 173   0.0000       0.727480        19.7957 
 174   0.0000       0.732248        19.9255 
 175   0.0000       0.736523        20.0418 
 176   0.0000       0.739555        20.1243 
 177   0.0000       0.748291        20.3620 
 178   0.0000       0.761447        20.7200 
 179   0.0000       0.765018        20.8172 
 180   0.0000       0.770196        20.9581 
 181   0.0000       0.780540        21.2396 
 182   0.0000       0.790550        21.5119 
 183   0.0000       0.792743        21.5716 
 184   0.0000       0.797119        21.6907 
 185   0.0000       0.812781        22.1169 
 186   0.0000       0.815182        22.1822 
 187   0.0000       0.827794        22.5254 
 188   0.0000       0.831995        22.6397 
 189   0.0000       0.834128        22.6978 
 190   0.0000       0.845101        22.9964 
 191   0.0000       0.847183        23.0530 
 192   0.0000       0.862474        23.4691 
 193   0.0000       0.869721        23.6663 
 194   0.0000       0.876938        23.8627 
 195   0.0000       0.878674        23.9099 
 196   0.0000       0.885495        24.0955 
 197   0.0000       0.890118        24.2213 
 198   0.0000       0.903339        24.5811 
 199   0.0000       0.906606        24.6700 
 200   0.0000       0.915940        24.9240 
 201   0.0000       0.920829        25.0570 
 202   0.0000       0.933725        25.4079 
 203   0.0000       0.935611        25.4593 
 204   0.0000       0.946097        25.7446 
 205   0.0000       0.952458        25.9177 
 206   0.0000       0.959762        26.1165 
 207   0.0000       0.960431        26.1347 
 208   0.0000       0.974973        26.5304 
 209   0.0000       0.981524        26.7086 
 210   0.0000       0.987483        26.8708 
 211   0.0000       0.991372        26.9766 
 212   0.0000       0.993406        27.0320 
 213   0.0000       0.999820        27.2065 
 214   0.0000       1.012821        27.5603 
 215   0.0000       1.017931        27.6993 
 216   0.0000       1.023034        27.8382 
 217   0.0000       1.030192        28.0329 
 218   0.0000       1.035263        28.1709 
 219   0.0000       1.038372        28.2555 
 220   0.0000       1.047922        28.5154 
 221   0.0000       1.057314        28.7710 
 222   0.0000       1.064096        28.9555 
 223   0.0000       1.068237        29.0682 
 224   0.0000       1.078974        29.3604 
 225   0.0000       1.082324        29.4515 
 226   0.0000       1.097834        29.8736 
 227   0.0000       1.101841        29.9826 
 228   0.0000       1.106025        30.0965 
 229   0.0000       1.116895        30.3923 
 230   0.0000       1.123654        30.5762 
 231   0.0000       1.127544        30.6820 
 232   0.0000       1.140491        31.0343 
 233   0.0000       1.142673        31.0937 
 234   0.0000       1.156865        31.4799 
 235   0.0000       1.161618        31.6092 
 236   0.0000       1.163216        31.6527 
 237   0.0000       1.170599        31.8536 
 238   0.0000       1.180407        32.1205 
 239   0.0000       1.183122        32.1944 
 240   0.0000       1.193709        32.4825 
 241   0.0000       1.196151        32.5489 
 242   0.0000       1.203534        32.7498 
 243   0.0000       1.214796        33.0563 
 244   0.0000       1.219927        33.1959 
 245   0.0000       1.223974        33.3060 
 246   0.0000       1.234883        33.6029 
 247   0.0000       1.249350        33.9965 
 248   0.0000       1.251680        34.0599 
 249   0.0000       1.263609        34.3846 
 250   0.0000       1.265291        34.4303 
 251   0.0000       1.272270        34.6202 
 252   0.0000       1.284394        34.9501 
 253   0.0000       1.292834        35.1798 
 254   0.0000       1.302051        35.4306 
 255   0.0000       1.306777        35.5592 
 256   0.0000       1.313135        35.7322 
 257   0.0000       1.320139        35.9228 
 258   0.0000       1.330731        36.2110 
 259   0.0000       1.336403        36.3654 
 260   0.0000       1.346796        36.6482 
 261   0.0000       1.349034        36.7091 
 262   0.0000       1.360593        37.0236 
 263   0.0000       1.366461        37.1833 
 264   0.0000       1.377909        37.4948 
 265   0.0000       1.388707        37.7886 
 266   0.0000       1.392790        37.8997 
 267   0.0000       1.405961        38.2582 
 268   0.0000       1.415557        38.5193 
 269   0.0000       1.421451        38.6797 
 270   0.0000       1.428336        38.8670 
 271   0.0000       1.435529        39.0627 
 272   0.0000       1.439337        39.1663 
 273   0.0000       1.450295        39.4645 
 274   0.0000       1.460759        39.7493 
 275   0.0000       1.461496        39.7693 
 276   0.0000       1.475125        40.1402 
 277   0.0000       1.481661        40.3180 
 278   0.0000       1.486446        40.4483 
 279   0.0000       1.490830        40.5675 
 280   0.0000       1.495667        40.6992 
 281   0.0000       1.505034        40.9541 
 282   0.0000       1.509705        41.0812 
 283   0.0000       1.517818        41.3019 
 284   0.0000       1.523100        41.4457 
 285   0.0000       1.530823        41.6558 
 286   0.0000       1.531923        41.6857 
 287   0.0000       1.542311        41.9684 
 288   0.0000       1.544761        42.0351 
 289   0.0000       1.555063        42.3154 
 290   0.0000       1.564085        42.5609 
 291   0.0000       1.572815        42.7985 
 292   0.0000       1.575016        42.8584 
 293   0.0000       1.582317        43.0570 
 294   0.0000       1.588827        43.2342 
 295   0.0000       1.599212        43.5168 
 296   0.0000       1.610899        43.8348 
 297   0.0000       1.613744        43.9122 
 298   0.0000       1.627092        44.2754 
 299   0.0000       1.638820        44.5946 
 300   0.0000       1.643491        44.7217 
 301   0.0000       1.651765        44.9468 
 302   0.0000       1.653141        44.9843 
 303   0.0000       1.661747        45.2184 
 304   0.0000       1.665525        45.3212 
 305   0.0000       1.677615        45.6502 
 306   0.0000       1.687202        45.9111 
 307   0.0000       1.694553        46.1111 
 308   0.0000       1.706324        46.4314 
 309   0.0000       1.713889        46.6373 
 310   0.0000       1.722969        46.8844 
 311   0.0000       1.732680        47.1486 
 312   0.0000       1.734393        47.1952 
 313   0.0000       1.746327        47.5200 
 314   0.0000       1.754694        47.7477 
 315   0.0000       1.761587        47.9352 
 316   0.0000       1.773465        48.2584 
 317   0.0000       1.784808        48.5671 
 318   0.0000       1.787000        48.6267 
 319   0.0000       1.810362        49.2625 
 320   0.0000       1.817589        49.4591 
 321   0.0000       1.820557        49.5399 
 322   0.0000       1.834552        49.9207 
 323   0.0000       1.842035        50.1243 
 324   0.0000       1.852239        50.4020 
 325   0.0000       1.874911        51.0189 
 326   0.0000       1.892074        51.4860 
 327   0.0000       1.904385        51.8210 
 328   0.0000       1.907828        51.9146 
 329   0.0000       1.918217        52.1973 
 330   0.0000       1.941498        52.8309 
 331   0.0000       1.944547        52.9138 
 332   0.0000       1.948228        53.0140 
 333   0.0000       1.963595        53.4321 
 334   0.0000       1.967417        53.5361 
 335   0.0000       1.987304        54.0773 
 336   0.0000       1.993294        54.2403 
 337   0.0000       2.002138        54.4810 
 338   0.0000       2.013133        54.7801 
 339   0.0000       2.017379        54.8957 
 340   0.0000       2.037665        55.4477 
 341   0.0000       2.056594        55.9628 
 342   0.0000       2.068908        56.2979 
 343   0.0000       2.081982        56.6536 
 344   0.0000       2.100744        57.1641 
 345   0.0000       2.108138        57.3653 
 346   0.0000       2.132458        58.0271 
 347   0.0000       2.144630        58.3583 
 348   0.0000       2.155148        58.6446 
 349   0.0000       2.173873        59.1541 
 350   0.0000       2.186303        59.4923 
 351   0.0000       2.190024        59.5936 
 352   0.0000       2.208300        60.0909 
 353   0.0000       2.220433        60.4210 
 354   0.0000       2.246964        61.1430 
 355   0.0000       2.264673        61.6249 
 356   0.0000       2.281798        62.0909 
 357   0.0000       2.290108        62.3170 
 358   0.0000       2.298480        62.5448 
 359   0.0000       2.301390        62.6240 
 360   0.0000       2.320507        63.1442 
 361   0.0000       2.330183        63.4075 
 362   0.0000       2.332628        63.4740 
 363   0.0000       2.349475        63.9325 
 364   0.0000       2.359089        64.1941 
 365   0.0000       2.370322        64.4997 
 366   0.0000       2.373165        64.5771 
 367   0.0000       2.394714        65.1635 
 368   0.0000       2.407231        65.5041 
 369   0.0000       2.420984        65.8783 
 370   0.0000       2.441159        66.4273 
 371   0.0000       2.452424        66.7339 
 372   0.0000       2.469456        67.1973 
 373   0.0000       2.473577        67.3095 
 374   0.0000       2.486199        67.6529 
 375   0.0000       2.492299        67.8189 
 376   0.0000       2.509695        68.2923 
 377   0.0000       2.518849        68.5414 
 378   0.0000       2.527747        68.7835 
 379   0.0000       2.546370        69.2903 
 380   0.0000       2.567855        69.8749 
 381   0.0000       2.575045        70.0705 
 382   0.0000       2.585509        70.3553 
 383   0.0000       2.592472        70.5447 
 384   0.0000       2.604969        70.8848 
 385   0.0000       2.618823        71.2618 
 386   0.0000       2.626679        71.4756 
 387   0.0000       2.636855        71.7525 
 388   0.0000       2.652564        72.1799 
 389   0.0000       2.654896        72.2434 
 390   0.0000       2.673193        72.7413 
 391   0.0000       2.683922        73.0332 
 392   0.0000       2.701622        73.5149 
 393   0.0000       2.716313        73.9146 
 394   0.0000       2.718135        73.9642 
 395   0.0000       2.731868        74.3379 
 396   0.0000       2.745837        74.7180 
 397   0.0000       2.750015        74.8317 
 398   0.0000       2.758910        75.0738 
 399   0.0000       2.763362        75.1949 
 400   0.0000       2.770887        75.3997 
 401   0.0000       2.780654        75.6655 
 402   0.0000       2.797205        76.1158 
 403   0.0000       2.801846        76.2421 
 404   0.0000       2.812931        76.5437 
 405   0.0000       2.821785        76.7847 
 406   0.0000       2.831545        77.0503 
 407   0.0000       2.846845        77.4666 
 408   0.0000       2.863156        77.9104 
 409   0.0000       2.871565        78.1392 
 410   0.0000       2.875123        78.2361 
 411   0.0000       2.890654        78.6587 
 412   0.0000       2.900723        78.9327 
 413   0.0000       2.909364        79.1678 
 414   0.0000       2.923360        79.5487 
 415   0.0000       2.929636        79.7194 
 416   0.0000       2.935263        79.8726 
 417   0.0000       2.944673        80.1286 
 418   0.0000       2.957884        80.4881 
 419   0.0000       2.959953        80.5444 
 420   0.0000       2.976139        80.9849 
 421   0.0000       2.983505        81.1853 
 422   0.0000       2.993751        81.4641 
 423   0.0000       2.995848        81.5212 
 424   0.0000       3.012623        81.9776 
 425   0.0000       3.019458        82.1636 
 426   0.0000       3.029206        82.4289 
 427   0.0000       3.036381        82.6241 
 428   0.0000       3.047045        82.9143 
 429   0.0000       3.049971        82.9939 
 430   0.0000       3.053392        83.0870 
 431   0.0000       3.060544        83.2816 
 432   0.0000       3.068750        83.5049 
 433   0.0000       3.071066        83.5680 
 434   0.0000       3.080943        83.8367 
 435   0.0000       3.086713        83.9937 
 436   0.0000       3.091936        84.1358 
 437   0.0000       3.099131        84.3316 
 438   0.0000       3.101096        84.3851 
 439   0.0000       3.111983        84.6814 
 440   0.0000       3.121873        84.9505 
 441   0.0000       3.126001        85.0628 
 442   0.0000       3.136350        85.3444 
 443   0.0000       3.141701        85.4900 
 444   0.0000       3.146335        85.6161 
 445   0.0000       3.150342        85.7252 
 446   0.0000       3.155998        85.8791 
 447   0.0000       3.165423        86.1355 
 448   0.0000       3.175422        86.4076 
 449   0.0000       3.185055        86.6698 
 450   0.0000       3.188346        86.7593 
 451   0.0000       3.194581        86.9290 
 452   0.0000       3.206188        87.2448 
 453   0.0000       3.219958        87.6195 
 454   0.0000       3.226893        87.8082 
 455   0.0000       3.239278        88.1452 
 456   0.0000       3.243319        88.2552 
 457   0.0000       3.248330        88.3916 
 458   0.0000       3.251905        88.4888 
 459   0.0000       3.259268        88.6892 
 460   0.0000       3.276128        89.1480 
 461   0.0000       3.280267        89.2606 
 462   0.0000       3.284678        89.3806 
 463   0.0000       3.292965        89.6061 
 464   0.0000       3.297234        89.7223 
 465   0.0000       3.303068        89.8810 
 466   0.0000       3.311912        90.1217 
 467   0.0000       3.315450        90.2180 
 468   0.0000       3.318559        90.3026 
 469   0.0000       3.327681        90.5508 
 470   0.0000       3.334426        90.7343 
 471   0.0000       3.342679        90.9589 
 472   0.0000       3.346967        91.0756 
 473   0.0000       3.353156        91.2440 
 474   0.0000       3.354913        91.2918 
 475   0.0000       3.363829        91.5344 
 476   0.0000       3.365318        91.5750 
 477   0.0000       3.380576        91.9902 
 478   0.0000       3.382721        92.0485 
 479   0.0000       3.389891        92.2436 
 480   0.0000       3.390853        92.2698 
 481   0.0000       3.397948        92.4629 
 482   0.0000       3.403011        92.6006 
 483   0.0000       3.411541        92.8327 
 484   0.0000       3.414848        92.9227 
 485   0.0000       3.421780        93.1114 
 486   0.0000       3.424987        93.1986 
 487   0.0000       3.434512        93.4578 
 488   0.0000       3.435567        93.4865 
 489   0.0000       3.439848        93.6030 
 490   0.0000       3.450101        93.8820 
 491   0.0000       3.454447        94.0003 
 492   0.0000       3.459321        94.1329 
 493   0.0000       3.471005        94.4508 
 494   0.0000       3.473963        94.5313 
 495   0.0000       3.482885        94.7741 
 496   0.0000       3.492437        95.0340 
 497   0.0000       3.503014        95.3219 
 498   0.0000       3.510379        95.5223 
 499   0.0000       3.513426        95.6052 
 500   0.0000       3.519897        95.7813 
 501   0.0000       3.528666        96.0199 
 502   0.0000       3.530539        96.0709 
 503   0.0000       3.535867        96.2158 
 504   0.0000       3.546781        96.5128 
 505   0.0000       3.552535        96.6694 
 506   0.0000       3.560110        96.8755 
 507   0.0000       3.574489        97.2668 
 508   0.0000       3.582610        97.4878 
 509   0.0000       3.585927        97.5780 
 510   0.0000       3.599136        97.9375 
 511   0.0000       3.603748        98.0630 
 512   0.0000       3.608789        98.2001 
 513   0.0000       3.616498        98.4099 
 514   0.0000       3.618897        98.4752 
 515   0.0000       3.625734        98.6612 
 516   0.0000       3.630492        98.7907 
 517   0.0000       3.635306        98.9217 
 518   0.0000       3.642051        99.1052 
 519   0.0000       3.645800        99.2073 
 520   0.0000       3.655679        99.4761 
 521   0.0000       3.661108        99.6238 
 522   0.0000       3.664853        99.7257 
 523   0.0000       3.672081        99.9224 
 524   0.0000       3.684227       100.2529 
 525   0.0000       3.684933       100.2721 
 526   0.0000       3.696416       100.5846 
 527   0.0000       3.703548       100.7787 
 528   0.0000       3.710251       100.9611 
 529   0.0000       3.719694       101.2180 
 530   0.0000       3.723207       101.3136 
 531   0.0000       3.731219       101.5316 
 532   0.0000       3.737006       101.6891 
 533   0.0000       3.742546       101.8399 
 534   0.0000       3.749189       102.0206 
 535   0.0000       3.751419       102.0813 
 536   0.0000       3.758584       102.2763 
 537   0.0000       3.769883       102.5837 
 538   0.0000       3.772409       102.6525 
 539   0.0000       3.779820       102.8541 
 540   0.0000       3.785777       103.0162 
 541   0.0000       3.790017       103.1316 
 542   0.0000       3.801110       103.4335 
 543   0.0000       3.805877       103.5632 
 544   0.0000       3.807649       103.6114 
 545   0.0000       3.812236       103.7362 
 546   0.0000       3.814679       103.8027 
 547   0.0000       3.836088       104.3853 
 548   0.0000       3.846690       104.6738 
 549   0.0000       3.850303       104.7721 
 550   0.0000       3.859028       105.0095 
 551   0.0000       3.865937       105.1975 
 552   0.0000       3.872455       105.3748 
 553   0.0000       3.881739       105.6275 
 554   0.0000       3.889289       105.8329 
 555   0.0000       3.898434       106.0818 
 556   0.0000       3.907429       106.3265 
 557   0.0000       3.914589       106.5214 
 558   0.0000       3.934110       107.0526 
 559   0.0000       3.940689       107.2316 
 560   0.0000       3.954470       107.6066 
 561   0.0000       3.960111       107.7601 
 562   0.0000       3.966512       107.9343 
 563   0.0000       3.974880       108.1620 
 564   0.0000       3.984505       108.4239 
 565   0.0000       3.985675       108.4557 
 566   0.0000       4.005663       108.9996 
 567   0.0000       4.010080       109.1198 
 568   0.0000       4.014712       109.2459 
 569   0.0000       4.028727       109.6272 
 570   0.0000       4.030491       109.6752 
 571   0.0000       4.038857       109.9029 
 572   0.0000       4.048486       110.1649 
 573   0.0000       4.058547       110.4387 
 574   0.0000       4.061171       110.5101 
 575   0.0000       4.068790       110.7174 
 576   0.0000       4.081133       111.0533 
 577   0.0000       4.092647       111.3666 
 578   0.0000       4.094978       111.4300 
 579   0.0000       4.100573       111.5823 
 580   0.0000       4.112403       111.9042 
 581   0.0000       4.115834       111.9975 
 582   0.0000       4.122044       112.1665 
 583   0.0000       4.132790       112.4589 
 584   0.0000       4.137171       112.5781 
 585   0.0000       4.148367       112.8828 
 586   0.0000       4.155072       113.0653 
 587   0.0000       4.158616       113.1617 
 588   0.0000       4.166043       113.3638 
 589   0.0000       4.168175       113.4218 
 590   0.0000       4.179610       113.7330 
 591   0.0000       4.186910       113.9316 
 592   0.0000       4.195046       114.1530 
 593   0.0000       4.202005       114.3424 
 594   0.0000       4.206201       114.4565 
 595   0.0000       4.221398       114.8701 
 596   0.0000       4.227496       115.0360 
 597   0.0000       4.239613       115.3657 
 598   0.0000       4.245904       115.5369 
 599   0.0000       4.249148       115.6252 
 600   0.0000       4.262453       115.9872 
 601   0.0000       4.270836       116.2154 
 602   0.0000       4.280029       116.4655 
 603   0.0000       4.282849       116.5423 
 604   0.0000       4.298016       116.9550 
 605   0.0000       4.311118       117.3115 
 606   0.0000       4.318277       117.5063 
 607   0.0000       4.329181       117.8030 
 608   0.0000       4.332135       117.8834 
 609   0.0000       4.340004       118.0975 
 610   0.0000       4.345557       118.2486 
 611   0.0000       4.356723       118.5525 
 612   0.0000       4.360224       118.6477 
 613   0.0000       4.363711       118.7426 
 614   0.0000       4.367505       118.8459 
 615   0.0000       4.384101       119.2975 
 616   0.0000       4.392175       119.5172 
 617   0.0000       4.397030       119.6493 
 618   0.0000       4.401952       119.7832 
 619   0.0000       4.413492       120.0972 
 620   0.0000       4.416041       120.1666 
 621   0.0000       4.421214       120.3074 
 622   0.0000       4.429706       120.5384 
 623   0.0000       4.440612       120.8352 
 624   0.0000       4.456407       121.2650 
 625   0.0000       4.461662       121.4080 
 626   0.0000       4.464352       121.4812 
 627   0.0000       4.473414       121.7278 
 628   0.0000       4.486752       122.0907 
 629   0.0000       4.491722       122.2260 
 630   0.0000       4.495776       122.3363 
 631   0.0000       4.511238       122.7570 
 632   0.0000       4.517266       122.9211 
 633   0.0000       4.520603       123.0118 
 634   0.0000       4.532934       123.3474 
 635   0.0000       4.543336       123.6305 
 636   0.0000       4.550288       123.8196 
 637   0.0000       4.565773       124.2410 
 638   0.0000       4.569889       124.3530 
 639   0.0000       4.578052       124.5751 
 640   0.0000       4.581692       124.6742 
 641   0.0000       4.590166       124.9048 
 642   0.0000       4.599516       125.1592 
 643   0.0000       4.609767       125.4381 
 644   0.0000       4.610920       125.4695 
 645   0.0000       4.621777       125.7649 
 646   0.0000       4.634007       126.0978 
 647   0.0000       4.643987       126.3693 
 648   0.0000       4.651358       126.5699 
 649   0.0000       4.656943       126.7219 
 650   0.0000       4.664772       126.9349 
 651   0.0000       4.672756       127.1522 
 652   0.0000       4.692915       127.7007 
 653   0.0000       4.698116       127.8422 
 654   0.0000       4.700747       127.9138 
 655   0.0000       4.711582       128.2087 
 656   0.0000       4.725946       128.5995 
 657   0.0000       4.726191       128.6062 
 658   0.0000       4.734453       128.8310 
 659   0.0000       4.740264       128.9891 
 660   0.0000       4.749155       129.2311 
 661   0.0000       4.769592       129.7872 
 662   0.0000       4.804757       130.7441 
 663   0.0000       4.821543       131.2009 
 664   0.0000       4.836264       131.6014 
 665   0.0000       4.847003       131.8937 
 666   0.0000       4.860692       132.2662 
 667   0.0000       4.870847       132.5425 
 668   0.0000       4.888140       133.0130 
 669   0.0000       4.900894       133.3601 
 670   0.0000       4.910868       133.6315 
 671   0.0000       4.925619       134.0329 
 672   0.0000       4.930570       134.1676 
 673   0.0000       4.956518       134.8737 
 674   0.0000       4.957931       134.9122 
 675   0.0000       4.998539       136.0172 
 676   0.0000       5.004804       136.1876 
 677   0.0000       5.016258       136.4993 
 678   0.0000       5.031504       136.9142 
 679   0.0000       5.037282       137.0714 
 680   0.0000       5.045926       137.3066 
 681   0.0000       5.050254       137.4244 
 682   0.0000       5.061744       137.7370 
 683   0.0000       5.096909       138.6939 
 684   0.0000       5.100368       138.7881 
 685   0.0000       5.107202       138.9740 
 686   0.0000       5.125225       139.4645 
 687   0.0000       5.132342       139.6581 
 688   0.0000       5.142412       139.9321 
 689   0.0000       5.162358       140.4749 
 690   0.0000       5.169579       140.6714 
 691   0.0000       5.179833       140.9504 
 692   0.0000       5.183651       141.0543 
 693   0.0000       5.190843       141.2500 
 694   0.0000       5.204739       141.6281 
 695   0.0000       5.210077       141.7734 
 696   0.0000       5.218279       141.9966 
 697   0.0000       5.224931       142.1776 
 698   0.0000       5.236312       142.4873 
 699   0.0000       5.242035       142.6430 
 700   0.0000       5.259927       143.1299 
 701   0.0000       5.265849       143.2910 
 702   0.0000       5.280081       143.6783 
 703   0.0000       5.287388       143.8771 
 704   0.0000       5.321724       144.8115 
 705   0.0000       5.326259       144.9349 
 706   0.0000       5.333484       145.1315 
 707   0.0000       5.358208       145.8043 
 708   0.0000       5.369263       146.1051 
 709   0.0000       5.376845       146.3114 
 710   0.0000       5.387797       146.6094 
 711   0.0000       5.400434       146.9533 
 712   0.0000       5.443969       148.1379 
 713   0.0000       5.459767       148.5678 
 714   0.0000       5.465379       148.7205 
 715   0.0000       5.482178       149.1777 
 716   0.0000       5.491159       149.4220 
 717   0.0000       5.499402       149.6463 
 718   0.0000       5.501725       149.7095 
 719   0.0000       5.516989       150.1249 
 720   0.0000       5.533541       150.5753 
 721   0.0000       5.537762       150.6902 
 722   0.0000       5.544085       150.8622 
 723   0.0000       5.552869       151.1012 
 724   0.0000       5.581035       151.8677 
 725   0.0000       5.599223       152.3626 
 726   0.0000       5.600799       152.4055 
 727   0.0000       5.617283       152.8540 
 728   0.0000       5.632549       153.2695 
 729   0.0000       5.640740       153.4924 
 730   0.0000       5.648981       153.7166 
 731   0.0000       5.664348       154.1347 
 732   0.0000       5.671989       154.3427 
 733   0.0000       5.677969       154.5054 
 734   0.0000       5.682993       154.6421 
 735   0.0000       5.699865       155.1012 
 736   0.0000       5.704510       155.2276 
 737   0.0000       5.731714       155.9679 
 738   0.0000       5.748082       156.4133 
 739   0.0000       5.763515       156.8332 
 740   0.0000       5.773729       157.1111 
 741   0.0000       5.800247       157.8327 
 742   0.0000       5.814539       158.2217 
 743   0.0000       5.829288       158.6230 
 744   0.0000       5.832874       158.7206 
 745   0.0000       5.851383       159.2242 
 746   0.0000       5.868954       159.7024 
 747   0.0000       5.883429       160.0962 
 748   0.0000       5.893102       160.3595 
 749   0.0000       5.913697       160.9199 
 750   0.0000       5.941246       161.6695 
 751   0.0000       5.968422       162.4090 
 752   0.0000       5.971937       162.5047 
 753   0.0000       5.978480       162.6827 
 754   0.0000       5.998391       163.2245 
 755   0.0000       6.006458       163.4440 
 756   0.0000       6.054408       164.7488 
 757   0.0000       6.061403       164.9392 
 758   0.0000       6.074360       165.2917 
 759   0.0000       6.101621       166.0335 
 760   0.0000       6.132034       166.8611 
 761   0.0000       6.168973       167.8663 
 762   0.0000       6.229755       169.5203 
 763   0.0000       6.233265       169.6158 
 764   0.0000       6.237525       169.7317 
 765   0.0000       6.261276       170.3780 
 766   0.0000       6.287157       171.0823 
 767   0.0000       6.320155       171.9802 
 768   0.0000       6.339338       172.5022 
 769   0.0000       6.352259       172.8538 
 770   0.0000       6.362075       173.1209 
 771   0.0000       6.386936       173.7974 
 772   0.0000       6.395702       174.0359 
 773   0.0000       6.448943       175.4846 
 774   0.0000       6.475379       176.2040 
 775   0.0000       6.494868       176.7344 
 776   0.0000       6.518413       177.3750 
 777   0.0000       6.546670       178.1440 
 778   0.0000       6.586015       179.2146 
 779   0.0000       6.598063       179.5424 
 780   0.0000       6.661118       181.2582 
 781   0.0000       6.685314       181.9166 
 782   0.0000       6.724784       182.9907 
 783   0.0000       6.787328       184.6926 
 784   0.0000       6.806527       185.2150 
 785   0.0000       6.863052       186.7532 
 786   0.0000       6.891647       187.5312 
 787   0.0000       6.914133       188.1431 
 788   0.0000       6.939952       188.8457 
 789   0.0000       6.957764       189.3304 
 790   0.0000       7.017789       190.9637 
 791   0.0000       7.078560       192.6174 
 792   0.0000       7.088866       192.8978 
 793   0.0000       7.121041       193.7734 
 794   0.0000       7.214840       196.3258 
 795   0.0000       7.251586       197.3257 
 796   0.0000       7.275925       197.9880 
 797   0.0000       7.281215       198.1319 
 798   0.0000       7.337176       199.6547 
 799   0.0000       7.356136       200.1706 
 800   0.0000       7.394631       201.2181 
 801   0.0000       7.502688       204.1585 
 802   0.0000       7.529004       204.8746 
 803   0.0000       7.565208       205.8598 
 804   0.0000       7.588229       206.4862 
 805   0.0000       7.791112       212.0069 
 806   0.0000       7.815459       212.6695 
 807   0.0000       7.928587       215.7478 
 808   0.0000       7.969941       216.8731 
 809   0.0000       9.519592       259.0413 
 810   0.0000       9.695064       263.8161 
 811   0.0000      10.877052       295.9796 
 812   0.0000      11.264646       306.5266 
 813   0.0000      12.096071       329.1508 
 814   0.0000      12.485866       339.7577 
 815   0.0000      12.765689       347.3720 
 816   0.0000      13.013164       354.1062 
 817   0.0000      13.268936       361.0661 
 818   0.0000      13.411804       364.9537 
 819   0.0000      13.546323       368.6142 
 820   0.0000      13.610179       370.3518 
 821   0.0000      13.773804       374.8043 
 822   0.0000      13.936726       379.2376 
 823   0.0000      14.063117       382.6769 
 824   0.0000      14.183634       385.9563 
 825   0.0000      14.449564       393.1926 
 826   0.0000      14.596309       397.1858 
 827   0.0000      15.881999       432.1712 

                    ********************************
                    * MULLIKEN POPULATION ANALYSIS *
                    ********************************

-----------------------
MULLIKEN ATOMIC CHARGES
-----------------------
   0 C :   -0.263832
   1 C :    0.019284
   2 O :   -0.315539
   3 C :    0.397228
   4 O :   -0.372127
   5 C :   -0.175428
   6 C :    0.112475
   7 C :   -0.328357
   8 N :   -0.131970
   9 C :    0.202848
  10 S :   -0.439526
  11 N :   -0.212430
  12 C :    0.099528
  13 C :    0.067475
  14 C :   -0.231717
  15 C :   -0.120648
  16 C :   -0.281627
  17 C :    0.326238
  18 O :   -0.359114
  19 C :   -0.308288
  20 H :    0.112549
  21 H :    0.097426
  22 H :    0.089120
  23 H :    0.099098
  24 H :    0.098829
  25 H :    0.120377
  26 H :    0.142962
  27 H :    0.125628
  28 H :    0.189034
  29 H :    0.197139
  30 H :    0.188527
  31 H :    0.144019
  32 H :    0.161052
  33 H :    0.129192
  34 H :    0.242957
  35 H :    0.177617
Sum of atomic charges:    0.0000000

--------------------------------
MULLIKEN REDUCED ORBITAL CHARGES
--------------------------------
  0 C s       :     3.265453  s :     3.265453
      pz      :     1.025324  p :     2.920572
      px      :     0.948685
      py      :     0.946563
      dz2     :     0.012779  d :     0.073277
      dxz     :     0.008903
      dyz     :     0.025579
      dx2y2   :     0.008275
      dxy     :     0.017741
      f0      :     0.000746  f :     0.004529
      f+1     :     0.000259
      f-1     :     0.000916
      f+2     :     0.000133
      f-2     :     0.000851
      f+3     :     0.000931
      f-3     :     0.000694
  1 C s       :     3.169341  s :     3.169341
      pz      :     0.991804  p :     2.638993
      px      :     0.674211
      py      :     0.972978
      dz2     :     0.020997  d :     0.160709
      dxz     :     0.027669
      dyz     :     0.033019
      dx2y2   :     0.040303
      dxy     :     0.038720
      f0      :     0.001443  f :     0.011673
      f+1     :     0.001276
      f-1     :     0.001452
      f+2     :     0.000879
      f-2     :     0.001428
      f+3     :     0.002851
      f-3     :     0.002343
  2 O s       :     3.731684  s :     3.731684
      pz      :     1.778134  p :     4.547397
      px      :     1.181067
      py      :     1.588197
      dz2     :     0.004218  d :     0.034222
      dxz     :     0.004454
      dyz     :     0.003521
      dx2y2   :     0.004434
      dxy     :     0.017596
      f0      :     0.000251  f :     0.002235
      f+1     :     0.000512
      f-1     :     0.000160
      f+2     :     0.000100
      f-2     :     0.000212
      f+3     :     0.000412
      f-3     :     0.000588
  3 C s       :     3.077263  s :     3.077263
      pz      :     0.693869  p :     2.210876
      px      :     0.710617
      py      :     0.806390
      dz2     :     0.030143  d :     0.288615
      dxz     :     0.080641
      dyz     :     0.023666
      dx2y2   :     0.082712
      dxy     :     0.071453
      f0      :     0.002408  f :     0.026017
      f+1     :     0.002121
      f-1     :     0.001939
      f+2     :     0.002373
      f-2     :     0.004746
      f+3     :     0.007967
      f-3     :     0.004464
  4 O s       :     3.766501  s :     3.766501
      pz      :     1.468808  p :     4.567189
      px      :     1.446711
      py      :     1.651670
      dz2     :     0.004486  d :     0.035971
      dxz     :     0.009883
      dyz     :     0.002304
      dx2y2   :     0.009147
      dxy     :     0.010151
      f0      :     0.000189  f :     0.002465
      f+1     :     0.000352
      f-1     :     0.000074
      f+2     :     0.000268
      f-2     :     0.000327
      f+3     :     0.000540
      f-3     :     0.000715
  5 C s       :     3.189722  s :     3.189722
      pz      :     0.926055  p :     2.875709
      px      :     1.006202
      py      :     0.943453
      dz2     :     0.018592  d :     0.098957
      dxz     :     0.013972
      dyz     :     0.030448
      dx2y2   :     0.019049
      dxy     :     0.016896
      f0      :     0.000974  f :     0.011040
      f+1     :     0.001422
      f-1     :     0.002073
      f+2     :     0.002306
      f-2     :     0.001307
      f+3     :     0.001200
      f-3     :     0.001758
  6 C s       :     3.194362  s :     3.194362
      pz      :     0.865538  p :     2.510957
      px      :     0.883001
      py      :     0.762418
      dz2     :     0.032418  d :     0.168241
      dxz     :     0.019087
      dyz     :     0.047103
      dx2y2   :     0.027769
      dxy     :     0.041864
      f0      :     0.001680  f :     0.013965
      f+1     :     0.001112
      f-1     :     0.003110
      f+2     :     0.002361
      f-2     :     0.002073
      f+3     :     0.001826
      f-3     :     0.001804
  7 C s       :     3.299990  s :     3.299990
      pz      :     0.881041  p :     2.949064
      px      :     1.016585
      py      :     1.051437
      dz2     :     0.018836  d :     0.074708
      dxz     :     0.012202
      dyz     :     0.017228
      dx2y2   :     0.013241
      dxy     :     0.013200
      f0      :     0.001133  f :     0.004595
      f+1     :     0.000824
      f-1     :     0.000824
      f+2     :     0.000506
      f-2     :     0.000351
      f+3     :     0.000543
      f-3     :     0.000414
  8 N s       :     3.347297  s :     3.347297
      pz      :     1.175737  p :     3.719840
      px      :     1.464169
      py      :     1.079934
      dz2     :     0.014291  d :     0.059812
      dxz     :     0.008834
      dyz     :     0.016830
      dx2y2   :     0.008816
      dxy     :     0.011041
      f0      :     0.000726  f :     0.005021
      f+1     :     0.000998
      f-1     :     0.000750
      f+2     :     0.000905
      f-2     :     0.000812
      f+3     :     0.000443
      f-3     :     0.000387
  9 C s       :     3.168813  s :     3.168813
      pz      :     0.769028  p :     2.346997
      px      :     0.689791
      py      :     0.888177
      dz2     :     0.066981  d :     0.263666
      dxz     :     0.035215
      dyz     :     0.052959
      dx2y2   :     0.047682
      dxy     :     0.060828
      f0      :     0.003177  f :     0.017676
      f+1     :     0.001991
      f-1     :     0.002819
      f+2     :     0.002721
      f-2     :     0.002152
      f+3     :     0.002165
      f-3     :     0.002650
 10 S s       :     5.857131  s :     5.857131
      pz      :     3.585164  p :    10.488021
      px      :     3.721002
      py      :     3.181855
      dz2     :     0.007664  d :     0.084260
      dxz     :     0.004258
      dyz     :     0.035984
      dx2y2   :     0.023734
      dxy     :     0.012620
      f0      :     0.001286  f :     0.010114
      f+1     :     0.000043
      f-1     :     0.001566
      f+2     :     0.003360
      f-2     :     0.001009
      f+3     :     0.001194
      f-3     :     0.001656
 11 N s       :     3.379751  s :     3.379751
      pz      :     1.200537  p :     3.770016
      px      :     1.503754
      py      :     1.065725
      dz2     :     0.011552  d :     0.058203
      dxz     :     0.006184
      dyz     :     0.016648
      dx2y2   :     0.012415
      dxy     :     0.011404
      f0      :     0.000368  f :     0.004461
      f+1     :     0.000506
      f-1     :     0.000595
      f+2     :     0.000765
      f-2     :     0.000594
      f+3     :     0.000823
      f-3     :     0.000811
 12 C s       :     3.101647  s :     3.101647
      pz      :     0.842180  p :     2.609706
      px      :     0.959051
      py      :     0.808475
      dz2     :     0.035812  d :     0.178192
      dxz     :     0.025503
      dyz     :     0.040896
      dx2y2   :     0.026910
      dxy     :     0.049072
      f0      :     0.001133  f :     0.010926
      f+1     :     0.001341
      f-1     :     0.001851
      f+2     :     0.002038
      f-2     :     0.001807
      f+3     :     0.001337
      f-3     :     0.001419
 13 C s       :     3.119753  s :     3.119753
      pz      :     0.884517  p :     2.695977
      px      :     0.873033
      py      :     0.938428
      dz2     :     0.018661  d :     0.105928
      dxz     :     0.011956
      dyz     :     0.025838
      dx2y2   :     0.023591
      dxy     :     0.025883
      f0      :     0.001091  f :     0.010866
      f+1     :     0.001629
      f-1     :     0.001033
[...]
      f+2     :     0.006731
      f-2     :     0.005233
      f+3     :     0.007009
      f-3     :     0.009604
 15 C s       :     2.704904  s :     2.704904
      pz      :     0.879289  p :     2.790836
      px      :     0.943828
      py      :     0.967719
      dz2     :     0.084887  d :     0.421908
      dxz     :     0.070964
      dyz     :     0.052088
      dx2y2   :     0.115085
      dxy     :     0.098884
      f0      :     0.002741  f :     0.041849
      f+1     :     0.005031
      f-1     :     0.005740
      f+2     :     0.006923
      f-2     :     0.006393
      f+3     :     0.007578
      f-3     :     0.007442
 16 C s       :     2.701216  s :     2.701216
      pz      :     0.935412  p :     2.873285
      px      :     0.968218
      py      :     0.969655
      dz2     :     0.039125  d :     0.392298
      dxz     :     0.058547
      dyz     :     0.080139
      dx2y2   :     0.097802
      dxy     :     0.116685
      f0      :     0.004126  f :     0.040737
      f+1     :     0.004572
      f-1     :     0.003246
      f+2     :     0.006150
      f-2     :     0.005314
      f+3     :     0.008855
      f-3     :     0.008473
 17 C s       :     2.704314  s :     2.704314
      pz      :     0.836795  p :     2.679537
      px      :     0.820212
      py      :     1.022530
      dz2     :     0.113981  d :     0.706732
      dxz     :     0.113293
      dyz     :     0.126951
      dx2y2   :     0.176031
      dxy     :     0.176477
      f0      :     0.008009  f :     0.098977
      f+1     :     0.016207
      f-1     :     0.007755
      f+2     :     0.015457
      f-2     :     0.014133
      f+3     :     0.017286
      f-3     :     0.020129
 18 O s       :     3.177998  s :     3.177998
      pz      :     1.468984  p :     4.349584
      px      :     1.390798
      py      :     1.489802
      dz2     :     0.007419  d :     0.075701
      dxz     :     0.017293
      dyz     :     0.015421
      dx2y2   :     0.018595
      dxy     :     0.016974
      f0      :     0.000562  f :     0.005072
      f+1     :     0.000765
      f-1     :     0.000286
      f+2     :     0.000722
      f-2     :     0.000854
      f+3     :     0.000839
      f-3     :     0.001044
 19 C s       :     2.698385  s :     2.698385
      pz      :     0.929477  p :     2.855897
      px      :     0.960324
      py      :     0.966097
      dz2     :     0.063922  d :     0.383148
      dxz     :     0.065354
      dyz     :     0.051806
      dx2y2   :     0.099055
      dxy     :     0.103010
      f0      :     0.002895  f :     0.039855
      f+1     :     0.004617
      f-1     :     0.004803
      f+2     :     0.006818
      f-2     :     0.006536
      f+3     :     0.007601
      f-3     :     0.006586
 20 H s       :     0.842229  s :     0.842229
      pz      :     0.052142  p :     0.149794
      px      :     0.040921
      py      :     0.056731
      dz2     :     0.006965  d :     0.027652
      dxz     :     0.003551
      dyz     :     0.006445
      dx2y2   :     0.005281
      dxy     :     0.005411
 21 H s       :     0.849508  s :     0.849508
      pz      :     0.066822  p :     0.151641
      px      :     0.039267
      py      :     0.045552
      dz2     :     0.008643  d :     0.027522
      dxz     :     0.007476
      dyz     :     0.008131
      dx2y2   :     0.001241
      dxy     :     0.002030
 22 H s       :     0.846332  s :     0.846332
      pz      :     0.043599  p :     0.149932
      px      :     0.065094
      py      :     0.041239
      dz2     :     0.003920  d :     0.027324
      dxz     :     0.007210
      dyz     :     0.001955
      dx2y2   :     0.006728
      dxy     :     0.007510
 23 H s       :     0.859718  s :     0.859718
      pz      :     0.058628  p :     0.149861
      px      :     0.030884
      py      :     0.060349
      dz2     :     0.007510  d :     0.027043
      dxz     :     0.003789
      dyz     :     0.007001
      dx2y2   :     0.004612
      dxy     :     0.004131
 24 H s       :     0.850825  s :     0.850825
      pz      :     0.076143  p :     0.155510
      px      :     0.029821
      py      :     0.049546
      dz2     :     0.009755  d :     0.027903
      dxz     :     0.005425
      dyz     :     0.008874
      dx2y2   :     0.001694
      dxy     :     0.002155
 25 H s       :     0.833176  s :     0.833176
      pz      :     0.050284  p :     0.149701
      px      :     0.039933
      py      :     0.059485
      dz2     :     0.006712  d :     0.027552
      dxz     :     0.003531
      dyz     :     0.006970
      dx2y2   :     0.004613
      dxy     :     0.005726
 26 H s       :     0.827906  s :     0.827906
      pz      :     0.040926  p :     0.149104
      px      :     0.048338
      py      :     0.059841
      dz2     :     0.004154  d :     0.027345
      dxz     :     0.003372
      dyz     :     0.006114
      dx2y2   :     0.008069
      dxy     :     0.005636
 27 H s       :     0.837691  s :     0.837691
      pz      :     0.037384  p :     0.153908
      px      :     0.072889
      py      :     0.043636
      dz2     :     0.002390  d :     0.027878
      dxz     :     0.007972
      dyz     :     0.000884
      dx2y2   :     0.007512
      dxy     :     0.009120
 28 H s       :     0.744606  s :     0.744606
      pz      :     0.059771  p :     0.253751
      px      :     0.088367
      py      :     0.105613
      dz2     :     0.007897  d :     0.061511
      dxz     :     0.003654
      dyz     :     0.016299
      dx2y2   :     0.015408
      dxy     :     0.018253
 29 H s       :     0.747145  s :     0.747145
      pz      :     0.117088  p :     0.255422
      px      :     0.092834
      py      :     0.045500
      dz2     :     0.022205  d :     0.061663
      dxz     :     0.018539
      dyz     :     0.013066
      dx2y2   :     0.004618
      dxy     :     0.003235
 30 H s       :     0.805504  s :     0.805504
      pz      :     0.039388  p :     0.171064
      px      :     0.069207
      py      :     0.062469
      dz2     :     0.002993  d :     0.031258
      dxz     :     0.006395
      dyz     :     0.003646
      dx2y2   :     0.009126
      dxy     :     0.009098
 31 H s       :     0.839845  s :     0.839845
      pz      :     0.054639  p :     0.159525
      px      :     0.067526
      py      :     0.037360
      dz2     :     0.004950  d :     0.027656
      dxz     :     0.006870
      dyz     :     0.003207
      dx2y2   :     0.006100
      dxy     :     0.006528
 32 H s       :     0.841452  s :     0.841452
      pz      :     0.036571  p :     0.149428
      px      :     0.039092
      py      :     0.073764
      dz2     :     0.002568  d :     0.026160
      dxz     :     0.000857
      dyz     :     0.006882
      dx2y2   :     0.007889
      dxy     :     0.007963
 33 H s       :     0.848450  s :     0.848450
      pz      :     0.056036  p :     0.158597
      px      :     0.048328
      py      :     0.054233
      dz2     :     0.005441  d :     0.027618
      dxz     :     0.004344
      dyz     :     0.005862
      dx2y2   :     0.006265
      dxy     :     0.005706
 34 H s       :     0.705664  s :     0.705664
      pz      :     0.111987  p :     0.346161
      px      :     0.081989
      py      :     0.152185
      dz2     :     0.021596  d :     0.099103
      dxz     :     0.010138
      dyz     :     0.024723
      dx2y2   :     0.021891
      dxy     :     0.020754
 35 H s       :     0.840016  s :     0.840016
      pz      :     0.043124  p :     0.160952
      px      :     0.042223
      py      :     0.075605
      dz2     :     0.002601  d :     0.028426
      dxz     :     0.001254
      dyz     :     0.007799
      dx2y2   :     0.008300
      dxy     :     0.008473


                      *****************************
                      * MAYER POPULATION ANALYSIS *
                      *****************************

  NA   - Mulliken gross atomic population
  ZA   - Total nuclear charge
  QA   - Mulliken gross atomic charge
  VA   - Mayer's total valence
  BVA  - Mayer's bonded valence
  FA   - Mayer's free valence

  ATOM       NA         ZA         QA         VA         BVA        FA
  0 C      6.2638     6.0000    -0.2638     3.9106     3.9106     0.0000
  1 C      5.9807     6.0000     0.0193     3.8608     3.8608     0.0000
  2 O      8.3155     8.0000    -0.3155     2.0389     2.0389     0.0000
  3 C      5.6028     6.0000     0.3972     4.2425     4.2425     0.0000
  4 O      8.3721     8.0000    -0.3721     2.1478     2.1478     0.0000
  5 C      6.1754     6.0000    -0.1754     3.5907     3.5907    -0.0000
  6 C      5.8875     6.0000     0.1125     3.8189     3.8189     0.0000
  7 C      6.3284     6.0000    -0.3284     3.8799     3.8799     0.0000
  8 N      7.1320     7.0000    -0.1320     3.2555     3.2555    -0.0000
  9 C      5.7972     6.0000     0.2028     4.1394     4.1394    -0.0000
 10 S     16.4395    16.0000    -0.4395     1.7480     1.7480     0.0000
 11 N      7.2124     7.0000    -0.2124     3.2788     3.2788     0.0000
 12 C      5.9005     6.0000     0.0995     3.8970     3.8970     0.0000
 13 C      5.9325     6.0000     0.0675     3.6580     3.6580     0.0000
 14 C      6.2317     6.0000    -0.2317     3.8921     3.8921     0.0000
 15 C      6.1206     6.0000    -0.1206     3.8071     3.8071     0.0000
 16 C      6.2816     6.0000    -0.2816     3.7900     3.7900    -0.0000
 17 C      5.6738     6.0000     0.3262     3.8487     3.8487    -0.0000
 18 O      8.3591     8.0000    -0.3591     2.1143     2.1143     0.0000
 19 C      6.3083     6.0000    -0.3083     3.8161     3.8161    -0.0000
 20 H      0.8875     1.0000     0.1125     0.9864     0.9864     0.0000
 21 H      0.9026     1.0000     0.0974     0.9850     0.9850     0.0000
 22 H      0.9109     1.0000     0.0891     0.9814     0.9814     0.0000
 23 H      0.9009     1.0000     0.0991     0.9646     0.9646     0.0000
 24 H      0.9012     1.0000     0.0988     0.9543     0.9543     0.0000
 25 H      0.8796     1.0000     0.1204     0.9825     0.9825     0.0000
 26 H      0.8570     1.0000     0.1430     0.9776     0.9776    -0.0000
 27 H      0.8744     1.0000     0.1256     0.9692     0.9692    -0.0000
 28 H      0.8110     1.0000     0.1890     1.0249     1.0249    -0.0000
 29 H      0.8029     1.0000     0.1971     1.0184     1.0184     0.0000
 30 H      0.8115     1.0000     0.1885     0.9887     0.9887     0.0000
 31 H      0.8560     1.0000     0.1440     0.9932     0.9932     0.0000
 32 H      0.8389     1.0000     0.1611     0.9773     0.9773     0.0000
 33 H      0.8708     1.0000     0.1292     0.9919     0.9919    -0.0000
 34 H      0.7570     1.0000     0.2430     1.0091     1.0091     0.0000
 35 H      0.8224     1.0000     0.1776     0.9851     0.9851    -0.0000

  Mayer bond orders larger than 0.100000
B(  0-C ,  1-C ) :   0.9783 B(  0-C , 20-H ) :   0.9771 B(  0-C , 21-H ) :   0.9833 
B(  0-C , 22-H ) :   0.9772 B(  1-C ,  2-O ) :   0.9158 B(  1-C , 23-H ) :   0.9709 
B(  1-C , 24-H ) :   0.9587 B(  2-O ,  3-C ) :   1.1340 B(  3-C ,  4-O ) :   2.1160 
B(  3-C ,  5-C ) :   0.9103 B(  5-C ,  6-C ) :   1.7174 B(  5-C , 12-C ) :   0.9498 
B(  6-C ,  7-C ) :   0.9431 B(  6-C ,  8-N ) :   1.0946 B(  7-C , 25-H ) :   0.9782 
B(  7-C , 26-H ) :   0.9679 B(  7-C , 27-H ) :   0.9684 B(  8-N ,  9-C ) :   1.2043 
B(  8-N , 28-H ) :   0.9558 B(  9-C , 10-S ) :   1.6043 B(  9-C , 11-N ) :   1.2822 
B( 11-N , 12-C ) :   1.0273 B( 11-N , 29-H ) :   0.9476 B( 12-C , 13-C ) :   0.8826 
B( 12-C , 30-H ) :   0.9887 B( 13-C , 14-C ) :   1.3827 B( 13-C , 19-C ) :   1.3502 
B( 14-C , 15-C ) :   1.3943 B( 14-C , 31-H ) :   0.9725 B( 15-C , 16-C ) :   1.3578 
B( 15-C , 32-H ) :   0.9701 B( 16-C , 17-C ) :   1.3289 B( 16-C , 33-H ) :   0.9862 
B( 17-C , 18-O ) :   1.1064 B( 17-C , 19-C ) :   1.3560 B( 18-O , 34-H ) :   0.9783 
B( 19-C , 35-H ) :   0.9541 

-------
TIMINGS
-------

Total SCF time: 0 days 1 hours 42 min 36 sec 

Total time                  ....    6156.445 sec
Sum of individual times     ....    6150.606 sec  ( 99.9%)

Fock matrix formation       ....    6137.789 sec  ( 99.7%)
Diagonalization             ....       1.299 sec  (  0.0%)
Density matrix formation    ....       0.214 sec  (  0.0%)
Population analysis         ....       0.195 sec  (  0.0%)
Initial guess               ....       5.205 sec  (  0.1%)
Orbital Transformation      ....       0.000 sec  (  0.0%)
Orbital Orthonormalization  ....       0.000 sec  (  0.0%)
DIIS solution               ....       2.682 sec  (  0.0%)
SOSCF solution              ....       1.889 sec  (  0.0%)

------------------------------------------------------------------------------
                                ORCA  MP2 
------------------------------------------------------------------------------

Freezing NCore=48 chemical core electrons

-------------
RI-MP2 ENERGY
-------------
Dimension of the basis                    ...  828
Memory devoted to MP2                     ...  256 MB   
Data format for buffers                   ... DOUBLE
Compression type for matrix containers    ... UNCOMPRESSED
Overall scaling of the MP2 energy         ...   1.000e+00
Calculating two index integrals           ... done (    0.042 sec)
Cholesky decomposition of V**-1           ... done (    0.357 sec)

-----------------
RI-TRANSFORMATION (AUX index driven)
-----------------

Dimension of the orbital-basis         ... 828
Dimension of the aux-basis             ... 2141
Transformation of internal/external MOs...   24-  76 to   77- 827
Number Format for Storage              ... Double (8 Byte)
Integral mode                          ... Direct

First Phase: integral generation and transformation of MO indices
  Aux angular momentum 0               ... done (    5.253 sec)
  Aux angular momentum 1               ... done (    8.409 sec)
  Aux angular momentum 2               ... done (   11.157 sec)
  Aux angular momentum 3               ... done (    8.931 sec)
  Aux angular momentum 4               ... done (    3.119 sec)
Closing buffer VIA ( 0.63 GB; CompressionRatio= 1.00)
  Phase 1 completed in    37.070 sec
Second Phase: sorting and transformation of aux index

IA-Transformation
Memory available                       ... 167 MB 
Max. # MO pairs treated in a batch     ... 12    
# of internal orbitals                 ... 53
# batches for internal orbitals        ... 5
Closing buffer IAV ( 0.63 GB; CompressionRatio= 1.00)
(ia|v) transformation done in    26.069 sec

  Phase 2 completed in    26.101 sec
RI-Integral transformation completed in    63.197 sec
Opening buffers                              ... done

Starting loop over batches of integrals:

Operator 0  - window                       ... ( 24- 76)x( 77-827)
Operator 0  - Memory available             ...   256 MB
Operator 0  - Memory needed per MO         ...  12.3 MB
Operator 0  - Number of orbitals per batch ... 13
Operator 0  - Number of batches            ... 5

OPERATOR  0   PASS   0:  MOs    24 ...   36
  Reading integrals       ... ok
  Internal MO  26
  Internal MO  29
  Internal MO  32
  Internal MO  35
OPERATOR  0   PASS   1:  MOs    37 ...   49
  Reading integrals       ... ok
  Internal MO  38
  Internal MO  41
  Internal MO  44
  Internal MO  47
OPERATOR  0   PASS   2:  MOs    50 ...   62
  Reading integrals       ... ok
  Internal MO  50
  Internal MO  53
  Internal MO  56
  Internal MO  59
  Internal MO  62
OPERATOR  0   PASS   3:  MOs    63 ...   75
  Reading integrals       ... ok
  Internal MO  65
  Internal MO  68
  Internal MO  71
  Internal MO  74
OPERATOR  0   PASS   4:  MOs    76 ...   76
  Reading integrals       ... ok
Time spent in pair loops =    83.955 sec
Deleting buffer (Ka|jb)[aa] ...done

-----------------------------------------------
 RI-MP2 CORRELATION ENERGY:     -3.554447619 Eh
-----------------------------------------------


-------
TIMINGS
-------

Total time                :  147.659 sec
Integral trafo            :   63.212 sec ( 42.8%)
I/O of integrals          :    3.424 sec (  2.3%)
K(i,j) Operators          :   49.283 sec ( 33.4%)
T(i,j) pair energies      :    8.830 sec (  6.0%)
V-calculation             :    0.042 sec (  0.0%)
V**(-1/2)                 :    0.357 sec (  0.2%)
Gamma(ia|P)               :    0.000 sec (  0.0%)
Gamma-Trafo               :    0.000 sec (  0.0%)
D(virtual)                :    0.000 sec (  0.0%)
D(internal)               :    0.000 sec (  0.0%)
W(virtual)                :    0.000 sec (  0.0%)
W(internal)               :    0.000 sec (  0.0%)
L(virtual)                :    0.000 sec (  0.0%)
L(internal)               :    0.000 sec (  0.0%)
G(D)                      :    0.000 sec (  0.0%)
G(Z)                      :    0.000 sec (  0.0%)
Z-Vector Solution         :    0.000 sec (  0.0%)
3-Index Derivative        :    0.000 sec (  0.0%)
2-Index Derivative        :    0.000 sec (  0.0%)
Separable Gradient        :    0.000 sec (  0.0%)


---------------------------------------
MP2 TOTAL ENERGY:    -1274.281905859 Eh
---------------------------------------

-------------------------   --------------------
FINAL SINGLE POINT ENERGY     -1274.281905859030
-------------------------   --------------------


                            ***************************************
                            *     ORCA property calculations      *
                            ***************************************


  WARNING: The energy has been calculated at the MP2 level but the densities
           used in the property calculations are still SCF densities
           MP2 response densities have not been calculated 
           use %mp2 Density relaxed end
           or  %mp2 Density unrelaxed end

                                    ---------------------
                                    Active property flags
                                    ---------------------
   (+) Dipole Moment


------------------------------------------------------------------------------
                       ORCA ELECTRIC PROPERTIES CALCULATION
------------------------------------------------------------------------------

Dipole Moment Calculation                       ... on
Quadrupole Moment Calculation                   ... off
Polarizability Calculation                      ... off
GBWName                                         ... G2_CONFS/Conf30.orca.gbw
Electron density file                           ... G2_CONFS/Conf30.orca.scfp
The origin for moment calculation is the CENTER OF MASS  = (32.846604, 31.446242 35.253642)

-------------
DIPOLE MOMENT
-------------
                                X             Y             Z
Electronic contribution:     10.81788       8.66935       6.87059
Nuclear contribution   :    -12.34791      -9.74386      -7.45820
                        -----------------------------------------
Total Dipole Moment    :     -1.53002      -1.07451      -0.58761
                        -----------------------------------------
Magnitude (a.u.)       :      1.95980
Magnitude (Debye)      :      4.98142



--------------------
Rotational spectrum 
--------------------
 
Rotational constants in cm-1:     0.012073     0.009220     0.006897 
Rotational constants in MHz :   361.937234   276.411680   206.774646 

 Dipole components along the rotational axes: 
x,y,z [a.u.] :    -1.417457    -0.762020     1.118466 
x,y,z [Debye]:    -3.602891    -1.936902     2.842914 

 

Timings for individual modules:

Sum of individual times         ...     6305.867 sec (= 105.098 min)
GTO integral calculation        ...        1.371 sec (=   0.023 min)   0.0 %
SCF iterations                  ...     6156.492 sec (= 102.608 min)  97.6 %
MP2 module                      ...      148.003 sec (=   2.467 min)   2.3 %
                             ****ORCA TERMINATED NORMALLY****
TOTAL RUN TIME: 0 days 1 hours 45 minutes 6 seconds 844 msec
