
                                 *****************
                                 * O   R   C   A *
                                 *****************

           --- An Ab Initio, DFT and Semiempirical electronic structure package ---

                  #######################################################
                  #                        -***-                        #
                  #          Department of theory and spectroscopy      #
                  #               Directorship: Frank Neese             #
                  #        Max Planck Institute fuer Kohlenforschung    #
                  #                Kaiser Wilhelm Platz 1               #
                  #                 D-45470 Muelheim/Ruhr               #
                  #                      Germany                        #
                  #                                                     #
                  #                  All rights reserved                #
                  #                        -***-                        #
                  #######################################################


                         Program Version 4.2.0 -  RELEASE  -


 With contributions from (in alphabetic order):
   Daniel Aravena         : Magnetic Suceptibility
   Michael Atanasov       : Ab Initio Ligand Field Theory (pilot matlab implementation)
   Alexander A. Auer      : GIAO ZORA, VPT2
   Ute Becker             : Parallelization
   Giovanni Bistoni       : ED, misc. LED, open-shell LED, HFLED
   Martin Brehm           : Molecular dynamics
   Dmytro Bykov           : SCF Hessian
   Vijay G. Chilkuri      : MRCI spin determinant printing, contributions to CSF-ICE
   Dipayan Datta          : RHF DLPNO-CCSD density
   Achintya Kumar Dutta   : EOM-CC, STEOM-CC
   Dmitry Ganyushin       : Spin-Orbit,Spin-Spin,Magnetic field MRCI
   Miquel Garcia          : C-PCM Hessian, Gaussian charge scheme
   Yang Guo               : DLPNO-NEVPT2, CIM, IAO-localization
   Andreas Hansen         : Spin unrestricted coupled pair/coupled cluster methods
   Benjamin Helmich-Paris : CASSCF linear response (MC-RPA)
   Lee Huntington         : MR-EOM, pCC
   Robert Izsak           : Overlap fitted RIJCOSX, COSX-SCS-MP3, EOM
   Christian Kollmar      : KDIIS, OOCD, Brueckner-CCSD(T), CCSD density
   Simone Kossmann        : Meta GGA functionals, TD-DFT gradient, OOMP2, MP2 Hessian
   Martin Krupicka        : AUTO-CI
   Lucas Lang             : DCDCAS
   Dagmar Lenk            : GEPOL surface, SMD
   Dimitrios Liakos       : Extrapolation schemes; Compound Job, initial MDCI parallelization
   Dimitrios Manganas     : Further ROCIS development; embedding schemes
   Dimitrios Pantazis     : SARC Basis sets
   Taras Petrenko         : DFT Hessian,TD-DFT gradient, ASA, ECA, R-Raman, ABS, FL, XAS/XES, NRVS
   Peter Pinski           : DLPNO-MP2, DLPNO-MP2 Gradient
   Christoph Reimann      : Effective Core Potentials
   Marius Retegan         : Local ZFS, SOC
   Christoph Riplinger    : Optimizer, TS searches, QM/MM, DLPNO-CCSD(T), (RO)-DLPNO pert. Triples
   Tobias Risthaus        : Range-separated hybrids, TD-DFT gradient, RPA, STAB
   Michael Roemelt        : Original ROCIS implementation
   Masaaki Saitow         : Open-shell DLPNO-CCSD energy and density
   Barbara Sandhoefer     : DKH picture change effects
   Avijit Sen             : IP-ROCIS
   Kantharuban Sivalingam : CASSCF convergence, NEVPT2, FIC-MRCI
   Bernardo de Souza      : ESD, SOC TD-DFT
   Georgi Stoychev        : AutoAux, RI-MP2 NMR
   Willem Van den Heuvel  : Paramagnetic NMR
   Boris Wezisla          : Elementary symmetry handling
   Frank Wennmohs         : Technical directorship


 We gratefully acknowledge several colleagues who have allowed us to
 interface, adapt or use parts of their codes:
   Stefan Grimme, W. Hujo, H. Kruse,             : VdW corrections, initial TS optimization,
                  C. Bannwarth                     DFT functionals, gCP, sTDA/sTD-DF
   Ed Valeev, F. Pavosevic, A. Kumar             : LibInt (2-el integral package), F12 methods
   Garnet Chan, S. Sharma, J. Yang, R. Olivares  : DMRG
   Ulf Ekstrom                                   : XCFun DFT Library
   Mihaly Kallay                                 : mrcc  (arbitrary order and MRCC methods)
   Andreas Klamt, Michael Diedenhofen            : otool_cosmo (COSMO solvation model)
   Jiri Pittner, Ondrej Demel                    : Mk-CCSD
   Frank Weinhold                                : gennbo (NPA and NBO analysis)
   Christopher J. Cramer and Donald G. Truhlar   : smd solvation model
   Lars Goerigk                                  : TD-DFT with DH, B97 family of functionals
   V. Asgeirsson, H. Jonsson                     : NEB implementation
   FAccTs GmbH                                   : IRC, NEB, NEB-TS, Multilevel, MM, QM/MM, CI optimization
   S Lehtola, MJT Oliveira, MAL Marques          : LibXC Library


 Your calculation uses the libint2 library for the computation of 2-el integrals
 For citations please refer to: http://libint.valeyev.net

 Your ORCA version has been built with support for libXC version: 4.2.3
 For citations please refer to: https://tddft.org/programs/libxc/

 This ORCA versions uses:
   CBLAS   interface :  Fast vector & matrix operations
   LAPACKE interface :  Fast linear algebra routines
   SCALAPACK package :  Parallel linear algebra routines


----- Orbital basis set information -----
Your calculation utilizes the basis: cc-pVTZ 
       H, B-Ne : Obtained from the ccRepo (grant-hill.group.shef.ac.uk/ccrepo) Feb. 2017
                 T. H. Dunning, Jr., J. Chem. Phys. 90, 1007 (1989)
            He : Obtained from the ccRepo (grant-hill.group.shef.ac.uk/ccrepo) Feb. 2017
                 D. E. Woon, T. H. Dunning, Jr., J. Chem. Phys. 100, 2975 (1994)
  Li-Be, Na-Mg : Obtained from the ccRepo (grant-hill.group.shef.ac.uk/ccrepo) Feb. 2017
                 B. P. Prascher, D. E. Woon, K. A. Peterson, T. H. Dunning, Jr., A. K. Wilson, Theor. Chem. Acc. 128, 69 (2011)
         Al-Ar : Obtained from the ccRepo (grant-hill.group.shef.ac.uk/ccrepo) Feb. 2017
                 D. E. Woon, T. H. Dunning, Jr., J. Chem. Phys. 98, 1358 (1993)
            Ca : Obtained from the Peterson Research Group Website (tyr0.chem.wsu.edu/~kipeters) Feb. 2017
                 J. Koput, K. A. Peterson, J. Phys. Chem. 106, 9595 (2002)
         Sc-Zn : Obtained from the ccRepo (grant-hill.group.shef.ac.uk/ccrepo) Feb. 2017
                 N. B. Balabanov, K. A. Peterson, J. Chem. Phys. 123, 064107 (2005)
                 N. B. Balabanov, K. A. Peterson, J. Chem. Phys. 125, 074110 (2006)
         Ga-Kr : Obtained from the ccRepo (grant-hill.group.shef.ac.uk/ccrepo) Feb. 2017
                 A. K. Wilson, D. E. Woon, K. A. Peterson, T. H. Dunning, Jr., J. Chem. Phys. 110, 7667 (1999)
             Y : Obtained from the ccRepo (grant-hill.group.shef.ac.uk/ccrepo) Feb. 2017
                 K. A. Peterson, D. Figgen, M. Dolg, H. Stoll, J. Chem. Phys. 126, 124101 (2007)
        Ag, Au : Obtained from the Peterson Research Group Website (tyr0.chem.wsu.edu/~kipeters) Feb. 2017
                 K. A. Peterson, C. Puzzarini, Theor. Chem. Acc. 114, 283 (2005)

----- AuxC basis set information -----
Your calculation utilizes the auxiliary basis: cc-pVTZ/C 
  Obtained from the EMSL Basis Set Exchange (bse.pnl.gov) Feb. 2017
  H-He, B-F, Al-Ar, Ga-Kr : F. Weigend, A. Kohn, C. Hattig, J. Chem. Phys. 116, 3175 (2002)
             Li-Be, Na-Mg : C. Haettig, Phys. Chem. Chem. Phys. 7, 59 (2005)
                       Ne : C. Haettig, Phys. Chem. Chem. Phys. 7, 59 (2005)
                            F. Weigend, A. Kohn, C. Hattig, J. Chem. Phys. 116, 3175 (2002)
                    Sc-Zn : J. G. Hill, J. A. Platts, J. Chem. Phys. 128, 044104 (2008)

================================================================================
                                        WARNINGS
                       Please study these warnings very carefully!
================================================================================


WARNING: No MP2 level density has been requested!
         To caclulate MP2 level properties use
         %mp2 Density relaxed end
         or
         %mp2 Density unrelaxed end

WARNING: Post HF methods need fully converged wavefunctions
  ===> : Setting SCFConvForced true
         You can overwrite this default with %scf ConvForced false 


INFO   : the flag for use of LIBINT has been found!

================================================================================
                                       INPUT FILE
================================================================================
NAME = G2_CONFS/Conf1.orca
|  1> ! ri-mp2 cc-pvtz cc-pvtz/c TightSCF NoKeepInts
|  2> 
|  3> %scf
|  4>   MaxCore 4096
|  5> end
|  6> *xyz  0  1
|  7>     C       15.4066329   13.6092697   15.8451408
|  8>     C       16.8987300   13.9564348   15.6728611
|  9>     O       17.2568357   14.9705166   16.6302814
| 10>     C       16.8907238   16.2752690   16.4302903
| 11>     O       16.3459177   16.6412542   15.4020938
| 12>     C       17.2250770   17.1487102   17.6138103
| 13>     C       17.1448378   18.4977114   17.4456230
| 14>     C       16.3463846   19.2697815   16.4144427
| 15>     N       17.8459616   19.3536445   18.2996487
| 16>     C       18.8728054   18.9671561   19.1156347
| 17>     S       19.7758839   20.0589502   19.9687825
| 18>     N       19.1292796   17.6224605   19.1682449
| 19>     C       18.2722530   16.5720315   18.5860552
| 20>     C       17.5864092   15.8172556   19.7195402
| 21>     C       17.7748478   14.4297463   19.8591982
| 22>     C       17.1428031   13.7224350   20.8957730
| 23>     C       16.3139129   14.4078174   21.8002568
| 24>     C       16.1215035   15.7893779   21.6629193
| 25>     O       15.3185596   16.4530076   22.5324086
| 26>     C       16.7519661   16.4905482   20.6303485
| 27>     H       15.1946352   13.3149205   16.8806182
| 28>     H       15.1291063   12.7765000   15.1878094
| 29>     H       14.7698607   14.4659083   15.5911548
| 30>     H       17.4972118   13.0557040   15.8596906
| 31>     H       17.1009983   14.2939548   14.6469972
| 32>     H       15.3431101   18.8401808   16.2985710
| 33>     H       16.8378673   19.2289668   15.4339737
| 34>     H       16.2151317   20.3253914   16.6797315
| 35>     H       17.6894998   20.3474088   18.2451064
| 36>     H       19.8765185   17.3620764   19.7990332
| 37>     H       18.9539930   15.9063189   18.0387832
| 38>     H       18.4089645   13.8964436   19.1560016
| 39>     H       17.2943668   12.6490166   20.9943559
| 40>     H       15.8229335   13.8659490   22.6018224
| 41>     H       14.9997474   15.8100146   23.1832326
| 42>     H       16.5917274   17.5598594   20.5437643
| 43> *
| 44> 
| 45>                          ****END OF INPUT****
================================================================================

                       ****************************
                       * Single Point Calculation *
                       ****************************

---------------------------------
CARTESIAN COORDINATES (ANGSTROEM)
---------------------------------
  C     15.406633   13.609270   15.845141
  C     16.898730   13.956435   15.672861
  O     17.256836   14.970517   16.630281
  C     16.890724   16.275269   16.430290
  O     16.345918   16.641254   15.402094
  C     17.225077   17.148710   17.613810
  C     17.144838   18.497711   17.445623
  C     16.346385   19.269781   16.414443
  N     17.845962   19.353644   18.299649
  C     18.872805   18.967156   19.115635
  S     19.775884   20.058950   19.968782
  N     19.129280   17.622460   19.168245
  C     18.272253   16.572032   18.586055
  C     17.586409   15.817256   19.719540
  C     17.774848   14.429746   19.859198
  C     17.142803   13.722435   20.895773
  C     16.313913   14.407817   21.800257
  C     16.121503   15.789378   21.662919
  O     15.318560   16.453008   22.532409
  C     16.751966   16.490548   20.630349
  H     15.194635   13.314920   16.880618
  H     15.129106   12.776500   15.187809
  H     14.769861   14.465908   15.591155
  H     17.497212   13.055704   15.859691
  H     17.100998   14.293955   14.646997
  H     15.343110   18.840181   16.298571
  H     16.837867   19.228967   15.433974
  H     16.215132   20.325391   16.679731
  H     17.689500   20.347409   18.245106
  H     19.876518   17.362076   19.799033
  H     18.953993   15.906319   18.038783
  H     18.408964   13.896444   19.156002
  H     17.294367   12.649017   20.994356
  H     15.822933   13.865949   22.601822
  H     14.999747   15.810015   23.183233
  H     16.591727   17.559859   20.543764

----------------------------
CARTESIAN COORDINATES (A.U.)
----------------------------
  NO LB      ZA    FRAG     MASS         X           Y           Z
   0 C     6.0000    0    12.011   29.114317   25.717793   29.942977
   1 C     6.0000    0    12.011   31.933972   26.373840   29.617415
   2 O     8.0000    0    15.999   32.610693   28.290176   31.426677
   3 C     6.0000    0    12.011   31.918842   30.755801   31.048749
   4 O     8.0000    0    15.999   30.889308   31.447413   29.105739
   5 C     6.0000    0    12.011   32.550678   32.406366   33.285278
   6 C     6.0000    0    12.011   32.399048   34.955609   32.967450
   7 C     6.0000    0    12.011   30.890190   36.414610   31.018801
   8 N     7.0000    0    14.007   33.723980   36.573088   34.581324
   9 C     6.0000    0    12.011   35.664434   35.842731   36.123314
  10 S    16.0000    0    32.060   37.371005   37.905922   37.735530
  11 N     7.0000    0    14.007   36.149100   33.301624   36.222733
  12 C     6.0000    0    12.011   34.529554   31.316601   35.122554
  13 C     6.0000    0    12.011   33.233497   29.890281   37.264530
  14 C     6.0000    0    12.011   33.589594   27.268269   37.528446
  15 C     6.0000    0    12.011   32.395203   25.931644   39.487288
  16 C     6.0000    0    12.011   30.828828   27.226829   41.196515
  17 C     6.0000    0    12.011   30.465226   29.837600   40.936985
  18 O     8.0000    0    15.999   28.947882   31.091678   42.580081
  19 C     6.0000    0    12.011   31.656628   31.162620   38.985709
  20 H     1.0000    0     1.008   28.713699   25.161553   31.899745
  21 H     1.0000    0     1.008   28.589868   24.144086   28.700800
  22 H     1.0000    0     1.008   27.910992   27.336605   29.463013
  23 H     1.0000    0     1.008   33.064938   24.671705   29.970472
  24 H     1.0000    0     1.008   32.316203   27.011660   27.678813
  25 H     1.0000    0     1.008   28.994276   35.602782   30.799836
  26 H     1.0000    0     1.008   31.818958   36.337481   29.165983
  27 H     1.0000    0     1.008   30.642158   38.409423   31.520125
  28 H     1.0000    0     1.008   33.428310   38.451030   34.478254
  29 H     1.0000    0     1.008   37.561176   32.809570   37.414750
  30 H     1.0000    0     1.008   35.817856   30.058587   34.088360
  31 H     1.0000    0     1.008   34.787901   26.260473   36.199597
  32 H     1.0000    0     1.008   32.681617   23.903177   39.673583
  33 H     1.0000    0     1.008   29.901011   26.202846   42.711254
  34 H     1.0000    0     1.008   28.345415   29.876598   43.809961
  35 H     1.0000    0     1.008   31.353821   33.183325   38.822088

--------------------------------
INTERNAL COORDINATES (ANGSTROEM)
--------------------------------
 C      0   0   0     0.000000000000     0.00000000     0.00000000
 C      1   0   0     1.541608788739     0.00000000     0.00000000
 O      2   1   0     1.439880279855   108.96626479     0.00000000
 C      3   2   1     1.369822320123   120.48263120   283.67968898
 O      4   3   2     1.219814287434   121.88495043   354.35534834
 C      4   3   2     1.508446612449   112.19360555   173.63234295
 C      6   4   3     1.361811122990   117.62141239   167.90896999
 C      7   6   4     1.515570045564   128.29461410    22.39427683
 N      7   6   4     1.397696659101   120.10646926   201.60929148
 C      9   7   6     1.367338518849   124.62875440    16.36866250
 S     10   9   7     1.653912422894   122.09329514   172.68317232
 N     10   9   7     1.369946387662   116.16513949   353.86530206
 C     12  10   9     1.475411984476   125.09487241   350.36005475
 C     13  12  10     1.524748052120   108.68549388   251.49198298
 C     14  13  12     1.407194201424   120.10832215   238.81425336
 C     15  14  13     1.405082593267   120.61940739   180.31605117
 C     16  15  14     1.405310977097   119.64523967     0.05916391
 C     17  16  15     1.401639176563   119.90916980     0.07035382
 O     18  17  16     1.356884272178   120.03458296   179.80412527
 C     18  17  16     1.398329480707   120.31226868   359.92428526
 H      1   2   3     1.097177251977   110.66476652   304.81825779
 H      1   2   3     1.096636200557   110.42422937   184.98378642
 H      1   2   3     1.097186134573   111.10233288    65.30385196
 H      2   1   3     1.097452368474   108.90309877   119.05443932
 H      2   1   3     1.098739712993   110.59117638   237.70429472
 H      8   7   6     1.097516621583   110.73363796    42.60711643
 H      8   7   6     1.097515623623   110.66855722   283.51611362
 H      8   7   6     1.096320086536   112.88857201   162.59912327
 H      9   7   6     1.007483320608   119.54240649   187.82643947
 H     12  10   9     1.011958365064   114.50316138   181.63501419
 H     13  12  10     1.098839995351   105.51366645   133.02312888
 H     15  14  13     1.086738799021   119.85393248   359.87777412
 H     16  15  14     1.088539023090   120.03854267   179.93522160
 H     17  16  15     1.084983661281   119.92254851   179.94499105
 H     19  18  17     0.968841109725   107.49333430     1.82147716
 H     20  18  17     1.084711808322   119.12088716   180.17070472

---------------------------
INTERNAL COORDINATES (A.U.)
---------------------------
 C      0   0   0     0.000000000000     0.00000000     0.00000000
 C      1   0   0     2.913218416363     0.00000000     0.00000000
 O      2   1   0     2.720979394560   108.96626479     0.00000000
 C      3   2   1     2.588589037165   120.48263120   283.67968898
 O      4   3   2     2.305114937495   121.88495043   354.35534834
 C      4   3   2     2.850550985169   112.19360555   173.63234295
 C      6   4   3     2.573450068579   117.62141239   167.90896999
 C      7   6   4     2.864012322891   128.29461410    22.39427683
 N      7   6   4     2.641263903998   120.10646926   201.60929148
 C      9   7   6     2.583895332987   124.62875440    16.36866250
 S     10   9   7     3.125441528759   122.09329514   172.68317232
 N     10   9   7     2.588823490837   116.16513949   353.86530206
 C     12  10   9     2.788124585364   125.09487241   350.36005475
 C     13  12  10     2.881356241737   108.68549388   251.49198298
 C     14  13  12     2.659211657933   120.10832215   238.81425336
 C     15  14  13     2.655221296814   120.61940739   180.31605117
 C     16  15  14     2.655652879706   119.64523967     0.05916391
 C     17  16  15     2.648714182278   119.90916980     0.07035382
 O     18  17  16     2.564139669841   120.03458296   179.80412527
 C     18  17  16     2.642459763524   120.31226868   359.92428526
 H      1   2   3     2.073364526606   110.66476652   304.81825779
 H      1   2   3     2.072342087596   110.42422937   184.98378642
 H      1   2   3     2.073381312278   111.10233288    65.30385196
 H      2   1   3     2.073884421440   108.90309877   119.05443932
 H      2   1   3     2.076317150020   110.59117638   237.70429472
 H      8   7   6     2.074005842219   110.73363796    42.60711643
 H      8   7   6     2.074003956347   110.66855722   283.51611362
 H      8   7   6     2.071744718670   112.88857201   162.59912327
 H      9   7   6     1.903867560442   119.54240649   187.82643947
 H     12  10   9     1.912324168902   114.50316138   181.63501419
 H     13  12  10     2.076506656212   105.51366645   133.02312888
 H     15  14  13     2.053638709256   119.85393248   359.87777412
 H     16  15  14     2.057040639725   120.03854267   179.93522160
 H     17  16  15     2.050321979600   119.92254851   179.94499105
 H     19  18  17     1.830844364665   107.49333430     1.82147716
 H     20  18  17     2.049808251959   119.12088716   180.17070472

---------------------
BASIS SET INFORMATION
---------------------
There are 5 groups of distinct atoms

 Group   1 Type C   : 18s5p2d1f contracted to 4s3p2d1f pattern {8811/311/11/1}
 Group   2 Type O   : 18s5p2d1f contracted to 4s3p2d1f pattern {8811/311/11/1}
 Group   3 Type N   : 18s5p2d1f contracted to 4s3p2d1f pattern {8811/311/11/1}
 Group   4 Type S   : 41s16p2d1f contracted to 5s4p2d1f pattern {13131311/7711/11/1}
 Group   5 Type H   : 5s2p1d contracted to 3s2p1d pattern {311/11/1}

Atom   0C    basis set group =>   1
Atom   1C    basis set group =>   1
Atom   2O    basis set group =>   2
Atom   3C    basis set group =>   1
Atom   4O    basis set group =>   2
Atom   5C    basis set group =>   1
Atom   6C    basis set group =>   1
Atom   7C    basis set group =>   1
Atom   8N    basis set group =>   3
Atom   9C    basis set group =>   1
Atom  10S    basis set group =>   4
Atom  11N    basis set group =>   3
Atom  12C    basis set group =>   1
Atom  13C    basis set group =>   1
Atom  14C    basis set group =>   1
Atom  15C    basis set group =>   1
Atom  16C    basis set group =>   1
Atom  17C    basis set group =>   1
Atom  18O    basis set group =>   2
Atom  19C    basis set group =>   1
Atom  20H    basis set group =>   5
Atom  21H    basis set group =>   5
Atom  22H    basis set group =>   5
Atom  23H    basis set group =>   5
Atom  24H    basis set group =>   5
Atom  25H    basis set group =>   5
Atom  26H    basis set group =>   5
Atom  27H    basis set group =>   5
Atom  28H    basis set group =>   5
Atom  29H    basis set group =>   5
Atom  30H    basis set group =>   5
Atom  31H    basis set group =>   5
Atom  32H    basis set group =>   5
Atom  33H    basis set group =>   5
Atom  34H    basis set group =>   5
Atom  35H    basis set group =>   5
---------------------------------
AUXILIARY/C BASIS SET INFORMATION
---------------------------------
There are 5 groups of distinct atoms

 Group   1 Type C   : 8s6p5d3f1g contracted to 8s6p5d3f1g pattern {11111111/111111/11111/111/1}
 Group   2 Type O   : 8s6p5d3f1g contracted to 8s6p5d3f1g pattern {11111111/111111/11111/111/1}
 Group   3 Type N   : 8s6p5d3f1g contracted to 8s6p5d3f1g pattern {11111111/111111/11111/111/1}
 Group   4 Type S   : 10s8p7d5f2g contracted to 10s8p7d5f2g pattern {1111111111/11111111/1111111/11111/11}
 Group   5 Type H   : 4s3p2d1f contracted to 4s3p2d1f pattern {1111/111/11/1}

Atom   0C    basis set group =>   1
Atom   1C    basis set group =>   1
Atom   2O    basis set group =>   2
Atom   3C    basis set group =>   1
Atom   4O    basis set group =>   2
Atom   5C    basis set group =>   1
Atom   6C    basis set group =>   1
Atom   7C    basis set group =>   1
Atom   8N    basis set group =>   3
Atom   9C    basis set group =>   1
Atom  10S    basis set group =>   4
Atom  11N    basis set group =>   3
Atom  12C    basis set group =>   1
Atom  13C    basis set group =>   1
Atom  14C    basis set group =>   1
Atom  15C    basis set group =>   1
Atom  16C    basis set group =>   1
Atom  17C    basis set group =>   1
Atom  18O    basis set group =>   2
Atom  19C    basis set group =>   1
Atom  20H    basis set group =>   5
Atom  21H    basis set group =>   5
Atom  22H    basis set group =>   5
Atom  23H    basis set group =>   5
Atom  24H    basis set group =>   5
Atom  25H    basis set group =>   5
Atom  26H    basis set group =>   5
Atom  27H    basis set group =>   5
Atom  28H    basis set group =>   5
Atom  29H    basis set group =>   5
Atom  30H    basis set group =>   5
Atom  31H    basis set group =>   5
Atom  32H    basis set group =>   5
Atom  33H    basis set group =>   5
Atom  34H    basis set group =>   5
Atom  35H    basis set group =>   5
------------------------------------------------------------------------------
                           ORCA GTO INTEGRAL CALCULATION
------------------------------------------------------------------------------

                         BASIS SET STATISTICS AND STARTUP INFO

 # of primitive gaussian shells          ...  682
 # of primitive gaussian functions       ... 1312
 # of contracted shells                  ...  298
 # of contracted basis functions         ...  828
 Highest angular momentum                ...    3
 Maximum contraction depth               ...   13
 Integral package used                   ... LIBINT
 Integral threshhold            Thresh   ...  2.500e-11
 Primitive cut-off              TCut     ...  2.500e-12


------------------------------ INTEGRAL EVALUATION ----------------------------


 * One electron integrals 
 Pre-screening matrix                    ... done
 Shell pair data                         ... done (   0.018 sec)

-------------------------------------------------------------------------------
                                 ORCA SCF
-------------------------------------------------------------------------------

------------
SCF SETTINGS
------------
Hamiltonian:
 Ab initio Hamiltonian  Method          .... Hartree-Fock(GTOs)


General Settings:
 Integral files         IntName         .... G2_CONFS/Conf1.orca
 Hartree-Fock type      HFTyp           .... RHF
 Total Charge           Charge          ....    0
 Multiplicity           Mult            ....    1
 Number of Electrons    NEL             ....  154
 Basis Dimension        Dim             ....  828
 Nuclear Repulsion      ENuc            ....   1690.3863051139 Eh

Convergence Acceleration:
 DIIS                   CNVDIIS         .... on
   Start iteration      DIISMaxIt       ....    12
   Startup error        DIISStart       ....  0.200000
   # of expansion vecs  DIISMaxEq       ....     5
   Bias factor          DIISBfac        ....   1.050
   Max. coefficient     DIISMaxC        ....  10.000
 Newton-Raphson         CNVNR           .... off
 SOSCF                  CNVSOSCF        .... on
   Start iteration      SOSCFMaxIt      ....   150
   Startup grad/error   SOSCFStart      ....  0.003300
 Level Shifting         CNVShift        .... on
   Level shift para.    LevelShift      ....    0.2500
   Turn off err/grad.   ShiftErr        ....    0.0010
 Zerner damping         CNVZerner       .... off
 Static damping         CNVDamp         .... on
   Fraction old density DampFac         ....    0.7000
   Max. Damping (<1)    DampMax         ....    0.9800
   Min. Damping (>=0)   DampMin         ....    0.0000
   Turn off err/grad.   DampErr         ....    0.1000
 Fernandez-Rico         CNVRico         .... off

SCF Procedure:
 Maximum # iterations   MaxIter         ....   125
 SCF integral mode      SCFMode         .... Direct
   Integral package                     .... LIBINT
 Reset frequency        DirectResetFreq ....    20
 Integral Threshold     Thresh          ....  2.500e-11 Eh
 Primitive CutOff       TCut            ....  2.500e-12 Eh

Convergence Tolerance:
 Convergence Check Mode ConvCheckMode   .... Total+1el-Energy
 Convergence forced     ConvForced      .... 1
 Energy Change          TolE            ....  1.000e-08 Eh
 1-El. energy change                    ....  1.000e-05 Eh
 Orbital Gradient       TolG            ....  1.000e-05
 Orbital Rotation angle TolX            ....  1.000e-05
 DIIS Error             TolErr          ....  5.000e-07


Diagonalization of the overlap matrix:
Smallest eigenvalue                        ... 3.484e-05
Time for diagonalization                   ...    0.177 sec
Threshold for overlap eigenvalues          ... 1.000e-08
Number of eigenvalues below threshold      ... 0
Time for construction of square roots      ...    0.196 sec
Total time needed                          ...    0.375 sec

-------------------
DFT GRID GENERATION
-------------------

General Integration Accuracy     IntAcc      ...  4.340
Radial Grid Type                 RadialGrid  ... Gauss-Chebyshev
Angular Grid (max. acc.)         AngularGrid ... Lebedev-110
Angular grid pruning method      GridPruning ... 3 (G Style)
Weight generation scheme         WeightScheme... Becke
Basis function cutoff            BFCut       ...    1.0000e-11
Integration weight cutoff        WCut        ...    1.0000e-14
Grids for H and He will be reduced by one unit

# of grid points (after initial pruning)     ...  46246 (   0.0 sec)
# of grid points (after weights+screening)   ...  41380 (   0.5 sec)
nearest neighbour list constructed           ...    0.0 sec
Grid point re-assignment to atoms done       ...    0.0 sec
Grid point division into batches done        ...    0.0 sec
Reduced shell lists constructed in    1.5 sec

Total number of grid points                  ...    41380
Total number of batches                      ...      664
Average number of points per batch           ...       62
Average number of grid points per atom       ...     1149
Average number of shells per batch           ...   144.96 (48.64%)
Average number of basis functions per batch  ...   368.13 (44.46%)
Average number of large shells per batch     ...    92.89 (64.08%)
Average number of large basis fcns per batch ...   239.71 (65.12%)
Maximum spatial batch extension              ...  21.63, 20.96, 19.65 au
Average spatial batch extension              ...   3.64,  3.21,  3.38 au

Time for grid setup =    1.991 sec

------------------------------
INITIAL GUESS: MODEL POTENTIAL
------------------------------
Loading Hartree-Fock densities                     ... done
Calculating cut-offs                               ... done
Setting up the integral package                    ... done
Initializing the effective Hamiltonian             ... done
Starting the Coulomb interaction                   ... done (   4.8 sec)
Reading the grid                                   ... done
Mapping shells                                     ... done
Starting the XC term evaluation                    ... done (   1.5 sec)
Transforming the Hamiltonian                       ... done (   0.1 sec)
Diagonalizing the Hamiltonian                      ... done (   0.2 sec)
Back transforming the eigenvectors                 ... done (   0.0 sec)
Now organizing SCF variables                       ... done
                      ------------------
                      INITIAL GUESS DONE (   9.9 sec)
                      ------------------
--------------
SCF ITERATIONS
--------------
ITER       Energy         Delta-E        Max-DP      RMS-DP      [F,P]     Damp
               ***  Starting incremental Fock matrix formation  ***
