
                                 *****************
                                 * O   R   C   A *
                                 *****************

           --- An Ab Initio, DFT and Semiempirical electronic structure package ---

                  #######################################################
                  #                        -***-                        #
                  #          Department of theory and spectroscopy      #
                  #               Directorship: Frank Neese             #
                  #        Max Planck Institute fuer Kohlenforschung    #
                  #                Kaiser Wilhelm Platz 1               #
                  #                 D-45470 Muelheim/Ruhr               #
                  #                      Germany                        #
                  #                                                     #
                  #                  All rights reserved                #
                  #                        -***-                        #
                  #######################################################


                         Program Version 4.2.0 -  RELEASE  -


 With contributions from (in alphabetic order):
   Daniel Aravena         : Magnetic Suceptibility
   Michael Atanasov       : Ab Initio Ligand Field Theory (pilot matlab implementation)
   Alexander A. Auer      : GIAO ZORA, VPT2
   Ute Becker             : Parallelization
   Giovanni Bistoni       : ED, misc. LED, open-shell LED, HFLED
   Martin Brehm           : Molecular dynamics
   Dmytro Bykov           : SCF Hessian
   Vijay G. Chilkuri      : MRCI spin determinant printing, contributions to CSF-ICE
   Dipayan Datta          : RHF DLPNO-CCSD density
   Achintya Kumar Dutta   : EOM-CC, STEOM-CC
   Dmitry Ganyushin       : Spin-Orbit,Spin-Spin,Magnetic field MRCI
   Miquel Garcia          : C-PCM Hessian, Gaussian charge scheme
   Yang Guo               : DLPNO-NEVPT2, CIM, IAO-localization
   Andreas Hansen         : Spin unrestricted coupled pair/coupled cluster methods
   Benjamin Helmich-Paris : CASSCF linear response (MC-RPA)
   Lee Huntington         : MR-EOM, pCC
   Robert Izsak           : Overlap fitted RIJCOSX, COSX-SCS-MP3, EOM
   Christian Kollmar      : KDIIS, OOCD, Brueckner-CCSD(T), CCSD density
   Simone Kossmann        : Meta GGA functionals, TD-DFT gradient, OOMP2, MP2 Hessian
   Martin Krupicka        : AUTO-CI
   Lucas Lang             : DCDCAS
   Dagmar Lenk            : GEPOL surface, SMD
   Dimitrios Liakos       : Extrapolation schemes; Compound Job, initial MDCI parallelization
   Dimitrios Manganas     : Further ROCIS development; embedding schemes
   Dimitrios Pantazis     : SARC Basis sets
   Taras Petrenko         : DFT Hessian,TD-DFT gradient, ASA, ECA, R-Raman, ABS, FL, XAS/XES, NRVS
   Peter Pinski           : DLPNO-MP2, DLPNO-MP2 Gradient
   Christoph Reimann      : Effective Core Potentials
   Marius Retegan         : Local ZFS, SOC
   Christoph Riplinger    : Optimizer, TS searches, QM/MM, DLPNO-CCSD(T), (RO)-DLPNO pert. Triples
   Tobias Risthaus        : Range-separated hybrids, TD-DFT gradient, RPA, STAB
   Michael Roemelt        : Original ROCIS implementation
   Masaaki Saitow         : Open-shell DLPNO-CCSD energy and density
   Barbara Sandhoefer     : DKH picture change effects
   Avijit Sen             : IP-ROCIS
   Kantharuban Sivalingam : CASSCF convergence, NEVPT2, FIC-MRCI
   Bernardo de Souza      : ESD, SOC TD-DFT
   Georgi Stoychev        : AutoAux, RI-MP2 NMR
   Willem Van den Heuvel  : Paramagnetic NMR
   Boris Wezisla          : Elementary symmetry handling
   Frank Wennmohs         : Technical directorship


 We gratefully acknowledge several colleagues who have allowed us to
 interface, adapt or use parts of their codes:
   Stefan Grimme, W. Hujo, H. Kruse,             : VdW corrections, initial TS optimization,
                  C. Bannwarth                     DFT functionals, gCP, sTDA/sTD-DF
   Ed Valeev, F. Pavosevic, A. Kumar             : LibInt (2-el integral package), F12 methods
   Garnet Chan, S. Sharma, J. Yang, R. Olivares  : DMRG
   Ulf Ekstrom                                   : XCFun DFT Library
   Mihaly Kallay                                 : mrcc  (arbitrary order and MRCC methods)
   Andreas Klamt, Michael Diedenhofen            : otool_cosmo (COSMO solvation model)
   Jiri Pittner, Ondrej Demel                    : Mk-CCSD
   Frank Weinhold                                : gennbo (NPA and NBO analysis)
   Christopher J. Cramer and Donald G. Truhlar   : smd solvation model
   Lars Goerigk                                  : TD-DFT with DH, B97 family of functionals
   V. Asgeirsson, H. Jonsson                     : NEB implementation
   FAccTs GmbH                                   : IRC, NEB, NEB-TS, Multilevel, MM, QM/MM, CI optimization
   S Lehtola, MJT Oliveira, MAL Marques          : LibXC Library


 Your calculation uses the libint2 library for the computation of 2-el integrals
 For citations please refer to: http://libint.valeyev.net

 Your ORCA version has been built with support for libXC version: 4.2.3
 For citations please refer to: https://tddft.org/programs/libxc/

 This ORCA versions uses:
   CBLAS   interface :  Fast vector & matrix operations
   LAPACKE interface :  Fast linear algebra routines
   SCALAPACK package :  Parallel linear algebra routines


----- Orbital basis set information -----
Your calculation utilizes the basis: cc-pVTZ 
       H, B-Ne : Obtained from the ccRepo (grant-hill.group.shef.ac.uk/ccrepo) Feb. 2017
                 T. H. Dunning, Jr., J. Chem. Phys. 90, 1007 (1989)
            He : Obtained from the ccRepo (grant-hill.group.shef.ac.uk/ccrepo) Feb. 2017
                 D. E. Woon, T. H. Dunning, Jr., J. Chem. Phys. 100, 2975 (1994)
  Li-Be, Na-Mg : Obtained from the ccRepo (grant-hill.group.shef.ac.uk/ccrepo) Feb. 2017
                 B. P. Prascher, D. E. Woon, K. A. Peterson, T. H. Dunning, Jr., A. K. Wilson, Theor. Chem. Acc. 128, 69 (2011)
         Al-Ar : Obtained from the ccRepo (grant-hill.group.shef.ac.uk/ccrepo) Feb. 2017
                 D. E. Woon, T. H. Dunning, Jr., J. Chem. Phys. 98, 1358 (1993)
            Ca : Obtained from the Peterson Research Group Website (tyr0.chem.wsu.edu/~kipeters) Feb. 2017
                 J. Koput, K. A. Peterson, J. Phys. Chem. 106, 9595 (2002)
         Sc-Zn : Obtained from the ccRepo (grant-hill.group.shef.ac.uk/ccrepo) Feb. 2017
                 N. B. Balabanov, K. A. Peterson, J. Chem. Phys. 123, 064107 (2005)
                 N. B. Balabanov, K. A. Peterson, J. Chem. Phys. 125, 074110 (2006)
         Ga-Kr : Obtained from the ccRepo (grant-hill.group.shef.ac.uk/ccrepo) Feb. 2017
                 A. K. Wilson, D. E. Woon, K. A. Peterson, T. H. Dunning, Jr., J. Chem. Phys. 110, 7667 (1999)
             Y : Obtained from the ccRepo (grant-hill.group.shef.ac.uk/ccrepo) Feb. 2017
                 K. A. Peterson, D. Figgen, M. Dolg, H. Stoll, J. Chem. Phys. 126, 124101 (2007)
        Ag, Au : Obtained from the Peterson Research Group Website (tyr0.chem.wsu.edu/~kipeters) Feb. 2017
                 K. A. Peterson, C. Puzzarini, Theor. Chem. Acc. 114, 283 (2005)

----- AuxC basis set information -----
Your calculation utilizes the auxiliary basis: cc-pVTZ/C 
  Obtained from the EMSL Basis Set Exchange (bse.pnl.gov) Feb. 2017
  H-He, B-F, Al-Ar, Ga-Kr : F. Weigend, A. Kohn, C. Hattig, J. Chem. Phys. 116, 3175 (2002)
             Li-Be, Na-Mg : C. Haettig, Phys. Chem. Chem. Phys. 7, 59 (2005)
                       Ne : C. Haettig, Phys. Chem. Chem. Phys. 7, 59 (2005)
                            F. Weigend, A. Kohn, C. Hattig, J. Chem. Phys. 116, 3175 (2002)
                    Sc-Zn : J. G. Hill, J. A. Platts, J. Chem. Phys. 128, 044104 (2008)

================================================================================
                                        WARNINGS
                       Please study these warnings very carefully!
================================================================================


WARNING: No MP2 level density has been requested!
         To caclulate MP2 level properties use
         %mp2 Density relaxed end
         or
         %mp2 Density unrelaxed end

WARNING: Post HF methods need fully converged wavefunctions
  ===> : Setting SCFConvForced true
         You can overwrite this default with %scf ConvForced false 


INFO   : the flag for use of LIBINT has been found!

================================================================================
                                       INPUT FILE
================================================================================
NAME = G2_CONFS/Conf26.orca
|  1> ! ri-mp2 cc-pvtz cc-pvtz/c TightSCF  NoKeepInts
|  2> 
|  3> %scf
|  4>   MaxCore 4096
|  5> end
|  6> *xyz  0  1
|  7>     C       16.0344477   12.9642252   16.1850069
|  8>     C       15.7312469   14.4164945   15.7739827
|  9>     O       16.1799698   15.2599810   16.8374801
| 10>     C       16.0352981   16.6141818   16.7419373
| 11>     O       15.1829117   17.1219650   16.0354491
| 12>     C       17.0281628   17.3380191   17.6030728
| 13>     C       16.9615482   18.6852912   17.7872435
| 14>     C       15.9878558   19.6339036   17.1096926
| 15>     N       18.0429294   19.3757833   18.3444147
| 16>     C       19.2016066   18.8026248   18.7968733
| 17>     S       20.4047130   19.7292433   19.4587627
| 18>     N       19.3006494   17.4317721   18.6808087
| 19>     C       18.2784599   16.5587717   18.0389805
| 20>     C       17.8565166   15.8923501   19.3909877
| 21>     C       17.9805296   14.4718909   19.4293677
| 22>     C       17.4518741   13.6854414   20.4595773
| 23>     C       16.7793407   14.3067090   21.5131035
| 24>     C       16.6344945   15.7011601   21.5106570
| 25>     O       15.9487941   16.2745518   22.5304703
| 26>     C       17.1496805   16.4911241   20.4618724
| 27>     H       17.1070348   12.7563638   16.0914355
| 28>     H       15.4892339   12.2602866   15.5447934
| 29>     H       15.7368070   12.7791988   17.2258798
| 30>     H       16.1511662   14.6772865   14.7958447
| 31>     H       14.6375990   14.5263194   15.7272254
| 32>     H       16.0291532   19.5060516   16.0173500
| 33>     H       16.2015386   20.6926659   17.2995816
| 34>     H       14.9572261   19.4311633   17.4196212
| 35>     H       18.0254387   20.3849522   18.3663561
| 36>     H       20.1270359   17.0381473   19.1121399
| 37>     H       18.4850485   15.5957894   17.5733205
| 38>     H       18.4443633   13.9287183   18.6092718
| 39>     H       17.5446469   12.5995309   20.4212681
| 40>     H       16.3614606   13.6999494   22.3116529
| 41>     H       15.7147397   15.5629692   23.1489424
| 42>     H       16.9634823   17.5571241   20.4795762
| 43> *
| 44> 
| 45>                          ****END OF INPUT****
================================================================================

                       ****************************
                       * Single Point Calculation *
                       ****************************

---------------------------------
CARTESIAN COORDINATES (ANGSTROEM)
---------------------------------
  C     16.034448   12.964225   16.185007
  C     15.731247   14.416495   15.773983
  O     16.179970   15.259981   16.837480
  C     16.035298   16.614182   16.741937
  O     15.182912   17.121965   16.035449
  C     17.028163   17.338019   17.603073
  C     16.961548   18.685291   17.787243
  C     15.987856   19.633904   17.109693
  N     18.042929   19.375783   18.344415
  C     19.201607   18.802625   18.796873
  S     20.404713   19.729243   19.458763
  N     19.300649   17.431772   18.680809
  C     18.278460   16.558772   18.038981
  C     17.856517   15.892350   19.390988
  C     17.980530   14.471891   19.429368
  C     17.451874   13.685441   20.459577
  C     16.779341   14.306709   21.513103
  C     16.634494   15.701160   21.510657
  O     15.948794   16.274552   22.530470
  C     17.149680   16.491124   20.461872
  H     17.107035   12.756364   16.091435
  H     15.489234   12.260287   15.544793
  H     15.736807   12.779199   17.225880
  H     16.151166   14.677286   14.795845
  H     14.637599   14.526319   15.727225
  H     16.029153   19.506052   16.017350
  H     16.201539   20.692666   17.299582
  H     14.957226   19.431163   17.419621
  H     18.025439   20.384952   18.366356
  H     20.127036   17.038147   19.112140
  H     18.485049   15.595789   17.573321
  H     18.444363   13.928718   18.609272
  H     17.544647   12.599531   20.421268
  H     16.361461   13.699949   22.311653
  H     15.714740   15.562969   23.148942
  H     16.963482   17.557124   20.479576

----------------------------
CARTESIAN COORDINATES (A.U.)
----------------------------
  NO LB      ZA    FRAG     MASS         X           Y           Z
   0 C     6.0000    0    12.011   30.300715   24.498835   30.585231
   1 C     6.0000    0    12.011   29.727748   27.243226   29.808507
   2 O     8.0000    0    15.999   30.575712   28.837185   31.818226
   3 C     6.0000    0    12.011   30.302322   31.396254   31.637676
   4 O     8.0000    0    15.999   28.691545   32.355825   30.302607
   5 C     6.0000    0    12.011   32.178564   32.764108   33.264987
   6 C     6.0000    0    12.011   32.052681   35.310083   33.613019
   7 C     6.0000    0    12.011   30.212669   37.102701   32.332633
   8 N     7.0000    0    14.007   34.096195   36.614924   34.665920
   9 C     6.0000    0    12.011   36.285778   35.531811   35.520943
  10 S    16.0000    0    32.060   38.559319   37.282867   36.771732
  11 N     7.0000    0    14.007   36.472942   32.941275   35.301612
  12 C     6.0000    0    12.011   34.541283   31.291544   34.088733
  13 C     6.0000    0    12.011   33.743926   30.032189   36.643656
  14 C     6.0000    0    12.011   33.978277   27.347910   36.716184
  15 C     6.0000    0    12.011   32.979263   25.861736   38.662998
  16 C     6.0000    0    12.011   31.708359   27.035762   40.653874
  17 C     6.0000    0    12.011   31.434639   29.670893   40.649251
  18 O     8.0000    0    15.999   30.138853   30.754446   42.576419
  19 C     6.0000    0    12.011   32.408199   31.163708   38.667335
  20 H     1.0000    0     1.008   32.327611   24.106034   30.408406
  21 H     1.0000    0     1.008   29.270410   23.168584   29.375402
  22 H     1.0000    0     1.008   29.738255   24.149186   32.552195
  23 H     1.0000    0     1.008   30.521281   27.736052   27.960094
  24 H     1.0000    0     1.008   27.661053   27.450765   29.720149
  25 H     1.0000    0     1.008   30.290710   36.861095   30.268405
  26 H     1.0000    0     1.008   30.616471   39.103472   32.691471
  27 H     1.0000    0     1.008   28.265061   36.719577   32.918313
  28 H     1.0000    0     1.008   34.063143   38.521977   34.707383
  29 H     1.0000    0     1.008   38.034586   32.197432   36.116710
  30 H     1.0000    0     1.008   34.931679   29.471771   33.208763
  31 H     1.0000    0     1.008   34.854795   26.321463   35.166427
  32 H     1.0000    0     1.008   33.154578   23.809663   38.590604
  33 H     1.0000    0     1.008   30.918680   25.889152   42.162914
  34 H     1.0000    0     1.008   29.696554   29.409750   43.745161
  35 H     1.0000    0     1.008   32.056336   33.178156   38.700790

--------------------------------
INTERNAL COORDINATES (ANGSTROEM)
--------------------------------
 C      0   0   0     0.000000000000     0.00000000     0.00000000
 C      1   0   0     1.539466705658     0.00000000     0.00000000
 O      2   1   0     1.429632273164   107.22665115     0.00000000
 C      3   2   1     1.365253871679   119.99381649   180.00000226
 O      4   3   2     1.218003255269   121.88883950    24.48027774
 C      4   3   2     1.500424972712   111.60654431   204.07345530
 C      6   4   3     1.361432504060   121.51119676   188.03957045
 C      7   6   4     1.518886960028   126.09106132   355.51846712
 N      7   6   4     1.398786755008   120.30210829   193.86912513
 C      9   7   6     1.369584719773   125.38331788   357.09635122
 S     10   9   7     1.656558007465   120.81967561   180.89934437
 N     10   9   7     1.379317799748   116.67131255     0.38992355
 C     12  10   9     1.489612201422   124.71148524     3.45271541
 C     13  12  10     1.565272297785    93.57366881   248.88081036
 C     14  13  12     1.426378837278   115.07422623   237.48207903
 C     15  14  13     1.399754004696   123.12613248   190.78857760
 C     16  15  14     1.395776507544   119.17121044   359.38169589
 C     17  16  15     1.401955875664   119.41865087     0.69619341
 O     18  17  16     1.356090796018   118.13125425   178.44455517
 C     18  17  16     1.410464063026   121.37489891     0.27081661
 H      1   2   3     1.096542318196   110.40719786   285.21663476
 H      1   2   3     1.096659001633   110.59464181   165.30813388
 H      1   2   3     1.098290102363   111.01326668    45.33772880
 H      2   1   3     1.095946455271   112.78721306   126.03016796
 H      2   1   3     1.100142483017   107.53630724   245.75630959
 H      8   7   6     1.100574379552   110.25141906   306.87796773
 H      8   7   6     1.096674873989   113.62863610   187.97518283
 H      8   7   6     1.095151562508   111.18786403    65.55662914
 H      9   7   6     1.009558922673   119.25576327   172.27903442
 H     12  10   9     1.011880296602   114.16649893   186.02810703
 H     13  12  10     1.089427829350   124.89536534   153.29809105
 H     15  14  13     1.087536417709   120.94199808     6.68983133
 H     16  15  14     1.090539316685   120.09795681   177.80906443
 H     17  16  15     1.086490742901   119.43974348   179.59137768
 H     19  18  17     0.971410828260   106.91152494     3.69879283
 H     20  18  17     1.082284248346   118.46641909   176.64779824

---------------------------
INTERNAL COORDINATES (A.U.)
---------------------------
 C      0   0   0     0.000000000000     0.00000000     0.00000000
 C      1   0   0     2.909170465983     0.00000000     0.00000000
 O      2   1   0     2.701613468496   107.22665115     0.00000000
 C      3   2   1     2.579955920748   119.99381649   180.00000226
 O      4   3   2     2.301692582683   121.88883950    24.48027774
 C      4   3   2     2.835392282922   111.60654431   204.07345530
 C      6   4   3     2.572734582491   121.51119676   188.03957045
 C      7   6   4     2.870280382837   126.09106132   355.51846712
 N      7   6   4     2.643323886721   120.30210829   193.86912513
 C      9   7   6     2.588140037575   125.38331788   357.09635122
 S     10   9   7     3.130440959063   120.81967561   180.89934437
 N     10   9   7     2.606532893167   116.67131255     0.38992355
 C     12  10   9     2.814959106435   124.71148524     3.45271541
 C     13  12  10     2.957935967827    93.57366881   248.88081036
 C     14  13  12     2.695465365676   115.07422623   237.48207903
 C     15  14  13     2.645151723735   123.12613248   190.78857760
 C     16  15  14     2.637635343419   119.17121044   359.38169589
 C     17  16  15     2.649312656846   119.41865087     0.69619341
 O     18  17  16     2.562640217206   118.13125425   178.44455517
 C     18  17  16     2.665390800858   121.37489891     0.27081661
 H      1   2   3     2.072164675645   110.40719786   285.21663476
 H      1   2   3     2.072385175386   110.59464181   165.30813388
 H      1   2   3     2.075467509062   111.01326668    45.33772880
 H      2   1   3     2.071038657903   112.78721306   126.03016796
 H      2   1   3     2.078968001193   107.53630724   245.75630959
 H      8   7   6     2.079784167363   110.25141906   306.87796773
 H      8   7   6     2.072415169791   113.62863610   187.97518283
 H      8   7   6     2.069536528276   111.18786403    65.55662914
 H      9   7   6     1.907789879908   119.25576327   172.27903442
 H     12  10   9     1.912176640888   114.16649893   186.02810703
 H     13  12  10     2.058720240145   124.89536534   153.29809105
 H     15  14  13     2.055145990136   120.94199808     6.68983133
 H     16  15  14     2.060820646807   120.09795681   177.80906443
 H     17  16  15     2.053169951123   119.43974348   179.59137768
 H     19  18  17     1.835700428937   106.91152494     3.69879283
 H     20  18  17     2.045220828431   118.46641909   176.64779824

---------------------
BASIS SET INFORMATION
---------------------
There are 5 groups of distinct atoms

 Group   1 Type C   : 18s5p2d1f contracted to 4s3p2d1f pattern {8811/311/11/1}
 Group   2 Type O   : 18s5p2d1f contracted to 4s3p2d1f pattern {8811/311/11/1}
 Group   3 Type N   : 18s5p2d1f contracted to 4s3p2d1f pattern {8811/311/11/1}
 Group   4 Type S   : 41s16p2d1f contracted to 5s4p2d1f pattern {13131311/7711/11/1}
 Group   5 Type H   : 5s2p1d contracted to 3s2p1d pattern {311/11/1}

Atom   0C    basis set group =>   1
Atom   1C    basis set group =>   1
Atom   2O    basis set group =>   2
Atom   3C    basis set group =>   1
Atom   4O    basis set group =>   2
Atom   5C    basis set group =>   1
Atom   6C    basis set group =>   1
Atom   7C    basis set group =>   1
Atom   8N    basis set group =>   3
Atom   9C    basis set group =>   1
Atom  10S    basis set group =>   4
Atom  11N    basis set group =>   3
Atom  12C    basis set group =>   1
Atom  13C    basis set group =>   1
Atom  14C    basis set group =>   1
Atom  15C    basis set group =>   1
Atom  16C    basis set group =>   1
Atom  17C    basis set group =>   1
Atom  18O    basis set group =>   2
Atom  19C    basis set group =>   1
Atom  20H    basis set group =>   5
Atom  21H    basis set group =>   5
Atom  22H    basis set group =>   5
Atom  23H    basis set group =>   5
Atom  24H    basis set group =>   5
Atom  25H    basis set group =>   5
Atom  26H    basis set group =>   5
Atom  27H    basis set group =>   5
Atom  28H    basis set group =>   5
Atom  29H    basis set group =>   5
Atom  30H    basis set group =>   5
Atom  31H    basis set group =>   5
Atom  32H    basis set group =>   5
Atom  33H    basis set group =>   5
Atom  34H    basis set group =>   5
Atom  35H    basis set group =>   5
---------------------------------
AUXILIARY/C BASIS SET INFORMATION
---------------------------------
There are 5 groups of distinct atoms

 Group   1 Type C   : 8s6p5d3f1g contracted to 8s6p5d3f1g pattern {11111111/111111/11111/111/1}
 Group   2 Type O   : 8s6p5d3f1g contracted to 8s6p5d3f1g pattern {11111111/111111/11111/111/1}
 Group   3 Type N   : 8s6p5d3f1g contracted to 8s6p5d3f1g pattern {11111111/111111/11111/111/1}
 Group   4 Type S   : 10s8p7d5f2g contracted to 10s8p7d5f2g pattern {1111111111/11111111/1111111/11111/11}
 Group   5 Type H   : 4s3p2d1f contracted to 4s3p2d1f pattern {1111/111/11/1}

Atom   0C    basis set group =>   1
Atom   1C    basis set group =>   1
Atom   2O    basis set group =>   2
Atom   3C    basis set group =>   1
Atom   4O    basis set group =>   2
Atom   5C    basis set group =>   1
Atom   6C    basis set group =>   1
Atom   7C    basis set group =>   1
Atom   8N    basis set group =>   3
Atom   9C    basis set group =>   1
Atom  10S    basis set group =>   4
Atom  11N    basis set group =>   3
Atom  12C    basis set group =>   1
Atom  13C    basis set group =>   1
Atom  14C    basis set group =>   1
Atom  15C    basis set group =>   1
Atom  16C    basis set group =>   1
Atom  17C    basis set group =>   1
Atom  18O    basis set group =>   2
Atom  19C    basis set group =>   1
Atom  20H    basis set group =>   5
Atom  21H    basis set group =>   5
Atom  22H    basis set group =>   5
Atom  23H    basis set group =>   5
Atom  24H    basis set group =>   5
Atom  25H    basis set group =>   5
Atom  26H    basis set group =>   5
Atom  27H    basis set group =>   5
Atom  28H    basis set group =>   5
Atom  29H    basis set group =>   5
Atom  30H    basis set group =>   5
Atom  31H    basis set group =>   5
Atom  32H    basis set group =>   5
Atom  33H    basis set group =>   5
Atom  34H    basis set group =>   5
Atom  35H    basis set group =>   5

Checking for AutoStart:
The File: G2_CONFS/Conf26.orca.gbw exists
Trying to determine its content:
     ... Fine, the file contains calculation information
     ... Fine, the calculation information was read
     ... Fine, the file contains a basis set
     ... Fine, the basis set was read
     ... Fine, the file contains a geometry
     ... Fine, the geometry was read
     ... The file does not contain orbitals - skipping AutoStart
------------------------------------------------------------------------------
                           ORCA GTO INTEGRAL CALCULATION
------------------------------------------------------------------------------

                         BASIS SET STATISTICS AND STARTUP INFO

 # of primitive gaussian shells          ...  682
 # of primitive gaussian functions       ... 1312
 # of contracted shells                  ...  298
 # of contracted basis functions         ...  828
 Highest angular momentum                ...    3
 Maximum contraction depth               ...   13
 Integral package used                   ... LIBINT
 Integral threshhold            Thresh   ...  2.500e-11
 Primitive cut-off              TCut     ...  2.500e-12


------------------------------ INTEGRAL EVALUATION ----------------------------


 * One electron integrals 
 Pre-screening matrix                    ... done
 Shell pair data                         ... done (   0.014 sec)

-------------------------------------------------------------------------------
                                 ORCA SCF
-------------------------------------------------------------------------------

------------
SCF SETTINGS
------------
Hamiltonian:
 Ab initio Hamiltonian  Method          .... Hartree-Fock(GTOs)


General Settings:
 Integral files         IntName         .... G2_CONFS/Conf26.orca
 Hartree-Fock type      HFTyp           .... RHF
 Total Charge           Charge          ....    0
 Multiplicity           Mult            ....    1
 Number of Electrons    NEL             ....  154
 Basis Dimension        Dim             ....  828
 Nuclear Repulsion      ENuc            ....   1702.9419905109 Eh

Convergence Acceleration:
 DIIS                   CNVDIIS         .... on
   Start iteration      DIISMaxIt       ....    12
   Startup error        DIISStart       ....  0.200000
   # of expansion vecs  DIISMaxEq       ....     5
   Bias factor          DIISBfac        ....   1.050
   Max. coefficient     DIISMaxC        ....  10.000
 Newton-Raphson         CNVNR           .... off
 SOSCF                  CNVSOSCF        .... on
   Start iteration      SOSCFMaxIt      ....   150
   Startup grad/error   SOSCFStart      ....  0.003300
 Level Shifting         CNVShift        .... on
   Level shift para.    LevelShift      ....    0.2500
   Turn off err/grad.   ShiftErr        ....    0.0010
 Zerner damping         CNVZerner       .... off
 Static damping         CNVDamp         .... on
   Fraction old density DampFac         ....    0.7000
   Max. Damping (<1)    DampMax         ....    0.9800
   Min. Damping (>=0)   DampMin         ....    0.0000
   Turn off err/grad.   DampErr         ....    0.1000
 Fernandez-Rico         CNVRico         .... off

SCF Procedure:
 Maximum # iterations   MaxIter         ....   125
 SCF integral mode      SCFMode         .... Direct
   Integral package                     .... LIBINT
 Reset frequency        DirectResetFreq ....    20
 Integral Threshold     Thresh          ....  2.500e-11 Eh
 Primitive CutOff       TCut            ....  2.500e-12 Eh

Convergence Tolerance:
 Convergence Check Mode ConvCheckMode   .... Total+1el-Energy
 Convergence forced     ConvForced      .... 1
 Energy Change          TolE            ....  1.000e-08 Eh
 1-El. energy change                    ....  1.000e-05 Eh
 Orbital Gradient       TolG            ....  1.000e-05
 Orbital Rotation angle TolX            ....  1.000e-05
 DIIS Error             TolErr          ....  5.000e-07


Diagonalization of the overlap matrix:
Smallest eigenvalue                        ... 3.408e-05
Time for diagonalization                   ...    0.112 sec
Threshold for overlap eigenvalues          ... 1.000e-08
Number of eigenvalues below threshold      ... 0
Time for construction of square roots      ...    0.062 sec
Total time needed                          ...    0.177 sec

-------------------
DFT GRID GENERATION
-------------------

General Integration Accuracy     IntAcc      ...  4.340
Radial Grid Type                 RadialGrid  ... Gauss-Chebyshev
Angular Grid (max. acc.)         AngularGrid ... Lebedev-110
Angular grid pruning method      GridPruning ... 3 (G Style)
Weight generation scheme         WeightScheme... Becke
Basis function cutoff            BFCut       ...    1.0000e-11
Integration weight cutoff        WCut        ...    1.0000e-14
Grids for H and He will be reduced by one unit

# of grid points (after initial pruning)     ...  46246 (   0.0 sec)
# of grid points (after weights+screening)   ...  41326 (   0.3 sec)
nearest neighbour list constructed           ...    0.0 sec
Grid point re-assignment to atoms done       ...    0.0 sec
Grid point division into batches done        ...    0.0 sec
Reduced shell lists constructed in    0.9 sec

Total number of grid points                  ...    41326
Total number of batches                      ...      665
Average number of points per batch           ...       62
Average number of grid points per atom       ...     1148
Average number of shells per batch           ...   147.71 (49.57%)
Average number of basis functions per batch  ...   375.49 (45.35%)
Average number of large shells per batch     ...    94.57 (64.03%)
Average number of large basis fcns per batch ...   243.77 (64.92%)
Maximum spatial batch extension              ...  20.31, 22.19, 20.41 au
Average spatial batch extension              ...   3.63,  3.36,  3.55 au

Time for grid setup =    1.253 sec

------------------------------
INITIAL GUESS: MODEL POTENTIAL
------------------------------
Loading Hartree-Fock densities                     ... done
Calculating cut-offs                               ... done
Setting up the integral package                    ... done
Initializing the effective Hamiltonian             ... done
Starting the Coulomb interaction                   ... done (   3.0 sec)
Reading the grid                                   ... done
Mapping shells                                     ... done
Starting the XC term evaluation                    ... 