
                                 *****************
                                 * O   R   C   A *
                                 *****************

           --- An Ab Initio, DFT and Semiempirical electronic structure package ---

                  #######################################################
                  #                        -***-                        #
                  #          Department of theory and spectroscopy      #
                  #               Directorship: Frank Neese             #
                  #        Max Planck Institute fuer Kohlenforschung    #
                  #                Kaiser Wilhelm Platz 1               #
                  #                 D-45470 Muelheim/Ruhr               #
                  #                      Germany                        #
                  #                                                     #
                  #                  All rights reserved                #
                  #                        -***-                        #
                  #######################################################


                         Program Version 4.2.0 -  RELEASE  -


 With contributions from (in alphabetic order):
   Daniel Aravena         : Magnetic Suceptibility
   Michael Atanasov       : Ab Initio Ligand Field Theory (pilot matlab implementation)
   Alexander A. Auer      : GIAO ZORA, VPT2
   Ute Becker             : Parallelization
   Giovanni Bistoni       : ED, misc. LED, open-shell LED, HFLED
   Martin Brehm           : Molecular dynamics
   Dmytro Bykov           : SCF Hessian
   Vijay G. Chilkuri      : MRCI spin determinant printing, contributions to CSF-ICE
   Dipayan Datta          : RHF DLPNO-CCSD density
   Achintya Kumar Dutta   : EOM-CC, STEOM-CC
   Dmitry Ganyushin       : Spin-Orbit,Spin-Spin,Magnetic field MRCI
   Miquel Garcia          : C-PCM Hessian, Gaussian charge scheme
   Yang Guo               : DLPNO-NEVPT2, CIM, IAO-localization
   Andreas Hansen         : Spin unrestricted coupled pair/coupled cluster methods
   Benjamin Helmich-Paris : CASSCF linear response (MC-RPA)
   Lee Huntington         : MR-EOM, pCC
   Robert Izsak           : Overlap fitted RIJCOSX, COSX-SCS-MP3, EOM
   Christian Kollmar      : KDIIS, OOCD, Brueckner-CCSD(T), CCSD density
   Simone Kossmann        : Meta GGA functionals, TD-DFT gradient, OOMP2, MP2 Hessian
   Martin Krupicka        : AUTO-CI
   Lucas Lang             : DCDCAS
   Dagmar Lenk            : GEPOL surface, SMD
   Dimitrios Liakos       : Extrapolation schemes; Compound Job, initial MDCI parallelization
   Dimitrios Manganas     : Further ROCIS development; embedding schemes
   Dimitrios Pantazis     : SARC Basis sets
   Taras Petrenko         : DFT Hessian,TD-DFT gradient, ASA, ECA, R-Raman, ABS, FL, XAS/XES, NRVS
   Peter Pinski           : DLPNO-MP2, DLPNO-MP2 Gradient
   Christoph Reimann      : Effective Core Potentials
   Marius Retegan         : Local ZFS, SOC
   Christoph Riplinger    : Optimizer, TS searches, QM/MM, DLPNO-CCSD(T), (RO)-DLPNO pert. Triples
   Tobias Risthaus        : Range-separated hybrids, TD-DFT gradient, RPA, STAB
   Michael Roemelt        : Original ROCIS implementation
   Masaaki Saitow         : Open-shell DLPNO-CCSD energy and density
   Barbara Sandhoefer     : DKH picture change effects
   Avijit Sen             : IP-ROCIS
   Kantharuban Sivalingam : CASSCF convergence, NEVPT2, FIC-MRCI
   Bernardo de Souza      : ESD, SOC TD-DFT
   Georgi Stoychev        : AutoAux, RI-MP2 NMR
   Willem Van den Heuvel  : Paramagnetic NMR
   Boris Wezisla          : Elementary symmetry handling
   Frank Wennmohs         : Technical directorship


 We gratefully acknowledge several colleagues who have allowed us to
 interface, adapt or use parts of their codes:
   Stefan Grimme, W. Hujo, H. Kruse,             : VdW corrections, initial TS optimization,
                  C. Bannwarth                     DFT functionals, gCP, sTDA/sTD-DF
   Ed Valeev, F. Pavosevic, A. Kumar             : LibInt (2-el integral package), F12 methods
   Garnet Chan, S. Sharma, J. Yang, R. Olivares  : DMRG
   Ulf Ekstrom                                   : XCFun DFT Library
   Mihaly Kallay                                 : mrcc  (arbitrary order and MRCC methods)
   Andreas Klamt, Michael Diedenhofen            : otool_cosmo (COSMO solvation model)
   Jiri Pittner, Ondrej Demel                    : Mk-CCSD
   Frank Weinhold                                : gennbo (NPA and NBO analysis)
   Christopher J. Cramer and Donald G. Truhlar   : smd solvation model
   Lars Goerigk                                  : TD-DFT with DH, B97 family of functionals
   V. Asgeirsson, H. Jonsson                     : NEB implementation
   FAccTs GmbH                                   : IRC, NEB, NEB-TS, Multilevel, MM, QM/MM, CI optimization
   S Lehtola, MJT Oliveira, MAL Marques          : LibXC Library


 Your calculation uses the libint2 library for the computation of 2-el integrals
 For citations please refer to: http://libint.valeyev.net

 Your ORCA version has been built with support for libXC version: 4.2.3
 For citations please refer to: https://tddft.org/programs/libxc/

 This ORCA versions uses:
   CBLAS   interface :  Fast vector & matrix operations
   LAPACKE interface :  Fast linear algebra routines
   SCALAPACK package :  Parallel linear algebra routines


----- Orbital basis set information -----
Your calculation utilizes the basis: cc-pVTZ 
       H, B-Ne : Obtained from the ccRepo (grant-hill.group.shef.ac.uk/ccrepo) Feb. 2017
                 T. H. Dunning, Jr., J. Chem. Phys. 90, 1007 (1989)
            He : Obtained from the ccRepo (grant-hill.group.shef.ac.uk/ccrepo) Feb. 2017
                 D. E. Woon, T. H. Dunning, Jr., J. Chem. Phys. 100, 2975 (1994)
  Li-Be, Na-Mg : Obtained from the ccRepo (grant-hill.group.shef.ac.uk/ccrepo) Feb. 2017
                 B. P. Prascher, D. E. Woon, K. A. Peterson, T. H. Dunning, Jr., A. K. Wilson, Theor. Chem. Acc. 128, 69 (2011)
         Al-Ar : Obtained from the ccRepo (grant-hill.group.shef.ac.uk/ccrepo) Feb. 2017
                 D. E. Woon, T. H. Dunning, Jr., J. Chem. Phys. 98, 1358 (1993)
            Ca : Obtained from the Peterson Research Group Website (tyr0.chem.wsu.edu/~kipeters) Feb. 2017
                 J. Koput, K. A. Peterson, J. Phys. Chem. 106, 9595 (2002)
         Sc-Zn : Obtained from the ccRepo (grant-hill.group.shef.ac.uk/ccrepo) Feb. 2017
                 N. B. Balabanov, K. A. Peterson, J. Chem. Phys. 123, 064107 (2005)
                 N. B. Balabanov, K. A. Peterson, J. Chem. Phys. 125, 074110 (2006)
         Ga-Kr : Obtained from the ccRepo (grant-hill.group.shef.ac.uk/ccrepo) Feb. 2017
                 A. K. Wilson, D. E. Woon, K. A. Peterson, T. H. Dunning, Jr., J. Chem. Phys. 110, 7667 (1999)
             Y : Obtained from the ccRepo (grant-hill.group.shef.ac.uk/ccrepo) Feb. 2017
                 K. A. Peterson, D. Figgen, M. Dolg, H. Stoll, J. Chem. Phys. 126, 124101 (2007)
        Ag, Au : Obtained from the Peterson Research Group Website (tyr0.chem.wsu.edu/~kipeters) Feb. 2017
                 K. A. Peterson, C. Puzzarini, Theor. Chem. Acc. 114, 283 (2005)

----- AuxC basis set information -----
Your calculation utilizes the auxiliary basis: cc-pVTZ/C 
  Obtained from the EMSL Basis Set Exchange (bse.pnl.gov) Feb. 2017
  H-He, B-F, Al-Ar, Ga-Kr : F. Weigend, A. Kohn, C. Hattig, J. Chem. Phys. 116, 3175 (2002)
             Li-Be, Na-Mg : C. Haettig, Phys. Chem. Chem. Phys. 7, 59 (2005)
                       Ne : C. Haettig, Phys. Chem. Chem. Phys. 7, 59 (2005)
                            F. Weigend, A. Kohn, C. Hattig, J. Chem. Phys. 116, 3175 (2002)
                    Sc-Zn : J. G. Hill, J. A. Platts, J. Chem. Phys. 128, 044104 (2008)

================================================================================
                                        WARNINGS
                       Please study these warnings very carefully!
================================================================================


WARNING: No MP2 level density has been requested!
         To caclulate MP2 level properties use
         %mp2 Density relaxed end
         or
         %mp2 Density unrelaxed end

WARNING: Post HF methods need fully converged wavefunctions
  ===> : Setting SCFConvForced true
         You can overwrite this default with %scf ConvForced false 


INFO   : the flag for use of LIBINT has been found!

================================================================================
                                       INPUT FILE
================================================================================
NAME = G2_CONFS/Conf57.orca
|  1> ! ri-mp2 cc-pvtz cc-pvtz/c TightSCF  NoKeepInts
|  2> 
|  3> %scf
|  4>   MaxCore 4096
|  5> end
|  6> *xyz  0  1
|  7>     C       14.6903125   14.1505804   16.3475193
|  8>     C       15.5818283   15.3486899   16.7073646
|  9>     O       16.9121073   14.9831646   16.2825109
| 10>     C       18.0427600   15.7512737   16.4032662
| 11>     O       19.1147329   15.3458583   15.9966503
| 12>     C       17.9762042   16.7913741   17.4556293
| 13>     C       17.3230995   17.9589898   17.2201334
| 14>     C       16.7349652   18.3752917   15.8756859
| 15>     N       17.5826775   19.0675271   18.0325548
| 16>     C       18.4372487   19.0771598   19.1065940
| 17>     S       18.7511635   20.4777183   19.9295314
| 18>     N       19.0171490   17.8745289   19.4519284
| 19>     C       18.9318860   16.6438777   18.6284467
| 20>     C       18.0204865   15.9178822   19.6659372
| 21>     C       18.3611113   14.5578826   19.8866209
| 22>     C       17.6100377   13.7131110   20.7117009
| 23>     C       16.4696007   14.2133210   21.3452270
| 24>     C       16.0915487   15.5457799   21.1351576
| 25>     O       14.9651413   16.0001153   21.7373169
| 26>     C       16.8413025   16.3925465   20.2975428
| 27>     H       15.2378826   13.2066520   16.4572084
| 28>     H       14.3881978   14.2418047   15.2954069
| 29>     H       13.7825191   14.1095713   16.9602995
| 30>     H       15.1847014   16.2856312   16.3095550
| 31>     H       15.5905794   15.4157956   17.8073298
| 32>     H       17.1353548   17.7763615   15.0457093
| 33>     H       16.9943750   19.4131496   15.6240021
| 34>     H       15.6431493   18.3074443   15.8508482
| 35>     H       17.2491962   19.9769009   17.7479241
| 36>     H       19.6194412   17.9077301   20.2632495
| 37>     H       19.7180555   15.8834193   18.5825914
| 38>     H       19.2195191   14.1157624   19.3855387
| 39>     H       17.9103289   12.6735314   20.8422038
| 40>     H       15.8813300   13.5592264   21.9817735
| 41>     H       14.6444639   15.2846397   22.3106504
| 42>     H       16.4925457   17.4077069   20.1523877
| 43> *
| 44> 
| 45>                          ****END OF INPUT****
================================================================================

                       ****************************
                       * Single Point Calculation *
                       ****************************

---------------------------------
CARTESIAN COORDINATES (ANGSTROEM)
---------------------------------
  C     14.690312   14.150580   16.347519
  C     15.581828   15.348690   16.707365
  O     16.912107   14.983165   16.282511
  C     18.042760   15.751274   16.403266
  O     19.114733   15.345858   15.996650
  C     17.976204   16.791374   17.455629
  C     17.323100   17.958990   17.220133
  C     16.734965   18.375292   15.875686
  N     17.582677   19.067527   18.032555
  C     18.437249   19.077160   19.106594
  S     18.751163   20.477718   19.929531
  N     19.017149   17.874529   19.451928
  C     18.931886   16.643878   18.628447
  C     18.020487   15.917882   19.665937
  C     18.361111   14.557883   19.886621
  C     17.610038   13.713111   20.711701
  C     16.469601   14.213321   21.345227
  C     16.091549   15.545780   21.135158
  O     14.965141   16.000115   21.737317
  C     16.841303   16.392547   20.297543
  H     15.237883   13.206652   16.457208
  H     14.388198   14.241805   15.295407
  H     13.782519   14.109571   16.960299
  H     15.184701   16.285631   16.309555
  H     15.590579   15.415796   17.807330
  H     17.135355   17.776362   15.045709
  H     16.994375   19.413150   15.624002
  H     15.643149   18.307444   15.850848
  H     17.249196   19.976901   17.747924
  H     19.619441   17.907730   20.263250
  H     19.718055   15.883419   18.582591
  H     19.219519   14.115762   19.385539
  H     17.910329   12.673531   20.842204
  H     15.881330   13.559226   21.981773
  H     14.644464   15.284640   22.310650
  H     16.492546   17.407707   20.152388

----------------------------
CARTESIAN COORDINATES (A.U.)
----------------------------
  NO LB      ZA    FRAG     MASS         X           Y           Z
   0 C     6.0000    0    12.011   27.760667   26.740722   30.892334
   1 C     6.0000    0    12.011   29.445388   29.004820   31.572344
   2 O     8.0000    0    15.999   31.959251   28.314078   30.769486
   3 C     6.0000    0    12.011   34.095875   29.765594   30.997681
   4 O     8.0000    0    15.999   36.121610   28.999469   30.229288
   5 C     6.0000    0    12.011   33.970103   31.731098   32.986359
   6 C     6.0000    0    12.011   32.735914   33.937572   32.541336
   7 C     6.0000    0    12.011   31.624501   34.724269   30.000699
   8 N     7.0000    0    14.007   33.226445   36.032404   34.076590
   9 C     6.0000    0    12.011   34.841351   36.050607   36.106230
  10 S    16.0000    0    32.060   35.434564   38.697279   37.661356
  11 N     7.0000    0    14.007   35.937203   33.777964   36.758817
  12 C     6.0000    0    12.011   35.776080   31.452371   35.202663
  13 C     6.0000    0    12.011   34.053784   30.080438   37.163235
  14 C     6.0000    0    12.011   34.697472   27.510411   37.580267
  15 C     6.0000    0    12.011   33.278148   25.914024   39.139442
  16 C     6.0000    0    12.011   31.123035   26.859284   40.336633
  17 C     6.0000    0    12.011   30.408620   29.377267   39.939660
  18 O     8.0000    0    15.999   28.280019   30.235836   41.077576
  19 C     6.0000    0    12.011   31.825449   30.977424   38.356797
  20 H     1.0000    0     1.008   28.795425   24.956955   31.099617
  21 H     1.0000    0     1.008   27.189753   26.913111   28.904130
  22 H     1.0000    0     1.008   26.045187   26.663226   32.050321
  23 H     1.0000    0     1.008   28.694927   30.775383   30.820592
  24 H     1.0000    0     1.008   29.461925   29.131632   33.650976
  25 H     1.0000    0     1.008   32.381128   33.592455   28.432270
  26 H     1.0000    0     1.008   32.114715   36.685536   29.525085
  27 H     1.0000    0     1.008   29.561268   34.596056   29.953762
  28 H     1.0000    0     1.008   32.596257   37.750872   33.538716
  29 H     1.0000    0     1.008   37.075371   33.840706   38.291992
  30 H     1.0000    0     1.008   37.261725   30.015313   35.116009
  31 H     1.0000    0     1.008   36.319628   26.674925   36.633359
  32 H     1.0000    0     1.008   33.845617   23.949503   39.386057
  33 H     1.0000    0     1.008   30.011364   25.623224   41.539532
  34 H     1.0000    0     1.008   27.674026   28.883783   42.161019
  35 H     1.0000    0     1.008   31.166395   32.895799   38.082494

--------------------------------
INTERNAL COORDINATES (ANGSTROEM)
--------------------------------
 C      0   0   0     0.000000000000     0.00000000     0.00000000
 C      1   0   0     1.536149548570     0.00000000     0.00000000
 O      2   1   0     1.443520567635   105.56845232     0.00000000
 C      3   2   1     1.372205873766   126.27677529   179.99999774
 O      4   3   2     1.216069091386   120.68336011   180.72565005
 C      4   3   2     1.481116676982   114.74548997    22.57941762
 C      6   4   3     1.358429420679   120.13431870   280.29800878
 C      7   6   4     1.525368252927   124.94247083   353.80700717
 N      7   6   4     1.398665154622   119.42703147   198.51312342
 C      9   7   6     1.372568733403   125.14393625   357.99858228
 S     10   9   7     1.654488615222   120.88295438   175.47998475
 N     10   9   7     1.379079869840   116.84837700   355.84213439
 C     12  10   9     1.483204053886   124.08091288     9.35366194
 C     13  12  10     1.560161867311    92.89324280   248.85529700
 C     14  13  12     1.419269340830   114.14829824   222.27625164
 C     15  14  13     1.399466903926   122.77201850   184.36952783
 C     16  15  14     1.397197879490   119.29305742     0.39914112
 C     17  16  15     1.400892282693   119.52479007     0.54842265
 O     18  17  16     1.355658551791   118.44993502   178.57757131
 C     18  17  16     1.407388712712   121.18134858   359.91834879
 H      1   2   3     1.096752268017   110.98257189    34.10926208
 H      1   2   3     1.098424174488   108.61601628   275.85255401
 H      1   2   3     1.096024715451   112.26561825   156.35924905
 H      2   1   3     1.092621275741   111.87534029   127.55883883
 H      2   1   3     1.102045007218   106.61326159   245.78643456
 H      8   7   6     1.099040660216   112.11192511   343.51979682
 H      8   7   6     1.098993721598   111.62783230   226.26169203
 H      8   7   6     1.094203884347   112.81840036   105.99871089
 H      9   7   6     1.009546987989   119.26526537   167.48314337
 H     12  10   9     1.010989684006   115.01307450   181.75941941
 H     13  12  10     1.094742969559   123.94094859   148.26293285
 H     15  14  13     1.087849986674   120.47772140     2.52632383
 H     16  15  14     1.089922729574   119.89970254   179.54090439
 H     17  16  15     1.085860768648   119.49493828   179.66383683
 H     19  18  17     0.971313868576   106.83623880     5.24679498
 H     20  18  17     1.083167552288   118.17151576   178.67172988

---------------------------
INTERNAL COORDINATES (A.U.)
---------------------------
 C      0   0   0     0.000000000000     0.00000000     0.00000000
 C      1   0   0     2.902901947544     0.00000000     0.00000000
 O      2   1   0     2.727858541512   105.56845232     0.00000000
 C      3   2   1     2.593093300776   126.27677529   179.99999774
 O      4   3   2     2.298037542646   120.68336011   180.72565005
 C      4   3   2     2.798904891880   114.74548997    22.57941762
 C      6   4   3     2.567059577344   120.13431870   280.29800878
 C      7   6   4     2.882528251409   124.94247083   353.80700717
 N      7   6   4     2.643094095294   119.42703147   198.51312342
 C      9   7   6     2.593779006115   125.14393625   357.99858228
 S     10   9   7     3.126530374461   120.88295438   175.47998475
 N     10   9   7     2.606083270802   116.84837700   355.84213439
 C     12  10   9     2.802849462567   124.08091288     9.35366194
 C     13  12  10     2.948278653805    92.89324280   248.85529700
 C     14  13  12     2.682030364440   114.14829824   222.27625164
 C     15  14  13     2.644609181906   122.77201850   184.36952783
 C     16  15  14     2.640321347131   119.29305742     0.39914112
 C     17  16  15     2.647302757414   119.52479007     0.54842265
 O     18  17  16     2.561823393994   118.44993502   178.57757131
 C     18  17  16     2.659579230998   121.18134858   359.91834879
 H      1   2   3     2.072561423308   110.98257189    34.10926208
 H      1   2   3     2.075720868661   108.61601628   275.85255401
 H      1   2   3     2.071186548210   112.26561825   156.35924905
 H      2   1   3     2.064754979246   111.87534029   127.55883883
 H      2   1   3     2.082563250898   106.61326159   245.78643456
 H      8   7   6     2.076885857852   112.11192511   343.51979682
 H      8   7   6     2.076797156718   111.62783230   226.26169203
 H      8   7   6     2.067745676089   112.81840036   105.99871089
 H      9   7   6     1.907767326625   119.26526537   167.48314337
 H     12  10   9     1.910493626992   115.01307450   181.75941941
 H     13  12  10     2.068764399502   123.94094859   148.26293285
 H     15  14  13     2.055738549603   120.47772140     2.52632383
 H     16  15  14     2.059655466031   119.89970254   179.54090439
 H     17  16  15     2.051979472315   119.49493828   179.66383683
 H     19  18  17     1.835517201689   106.83623880     5.24679498
 H     20  18  17     2.046890030975   118.17151576   178.67172988

---------------------
BASIS SET INFORMATION
---------------------
There are 5 groups of distinct atoms

 Group   1 Type C   : 18s5p2d1f contracted to 4s3p2d1f pattern {8811/311/11/1}
 Group   2 Type O   : 18s5p2d1f contracted to 4s3p2d1f pattern {8811/311/11/1}
 Group   3 Type N   : 18s5p2d1f contracted to 4s3p2d1f pattern {8811/311/11/1}
 Group   4 Type S   : 41s16p2d1f contracted to 5s4p2d1f pattern {13131311/7711/11/1}
 Group   5 Type H   : 5s2p1d contracted to 3s2p1d pattern {311/11/1}

Atom   0C    basis set group =>   1
Atom   1C    basis set group =>   1
Atom   2O    basis set group =>   2
Atom   3C    basis set group =>   1
Atom   4O    basis set group =>   2
Atom   5C    basis set group =>   1
Atom   6C    basis set group =>   1
Atom   7C    basis set group =>   1
Atom   8N    basis set group =>   3
Atom   9C    basis set group =>   1
Atom  10S    basis set group =>   4
Atom  11N    basis set group =>   3
Atom  12C    basis set group =>   1
Atom  13C    basis set group =>   1
Atom  14C    basis set group =>   1
Atom  15C    basis set group =>   1
Atom  16C    basis set group =>   1
Atom  17C    basis set group =>   1
Atom  18O    basis set group =>   2
Atom  19C    basis set group =>   1
Atom  20H    basis set group =>   5
Atom  21H    basis set group =>   5
Atom  22H    basis set group =>   5
Atom  23H    basis set group =>   5
Atom  24H    basis set group =>   5
Atom  25H    basis set group =>   5
Atom  26H    basis set group =>   5
Atom  27H    basis set group =>   5
Atom  28H    basis set group =>   5
Atom  29H    basis set group =>   5
Atom  30H    basis set group =>   5
Atom  31H    basis set group =>   5
Atom  32H    basis set group =>   5
Atom  33H    basis set group =>   5
Atom  34H    basis set group =>   5
Atom  35H    basis set group =>   5
---------------------------------
AUXILIARY/C BASIS SET INFORMATION
---------------------------------
There are 5 groups of distinct atoms

 Group   1 Type C   : 8s6p5d3f1g contracted to 8s6p5d3f1g pattern {11111111/111111/11111/111/1}
 Group   2 Type O   : 8s6p5d3f1g contracted to 8s6p5d3f1g pattern {11111111/111111/11111/111/1}
 Group   3 Type N   : 8s6p5d3f1g contracted to 8s6p5d3f1g pattern {11111111/111111/11111/111/1}
 Group   4 Type S   : 10s8p7d5f2g contracted to 10s8p7d5f2g pattern {1111111111/11111111/1111111/11111/11}
 Group   5 Type H   : 4s3p2d1f contracted to 4s3p2d1f pattern {1111/111/11/1}

Atom   0C    basis set group =>   1
Atom   1C    basis set group =>   1
Atom   2O    basis set group =>   2
Atom   3C    basis set group =>   1
Atom   4O    basis set group =>   2
Atom   5C    basis set group =>   1
Atom   6C    basis set group =>   1
Atom   7C    basis set group =>   1
Atom   8N    basis set group =>   3
Atom   9C    basis set group =>   1
Atom  10S    basis set group =>   4
Atom  11N    basis set group =>   3
Atom  12C    basis set group =>   1
Atom  13C    basis set group =>   1
Atom  14C    basis set group =>   1
Atom  15C    basis set group =>   1
Atom  16C    basis set group =>   1
Atom  17C    basis set group =>   1
Atom  18O    basis set group =>   2
Atom  19C    basis set group =>   1
Atom  20H    basis set group =>   5
Atom  21H    basis set group =>   5
Atom  22H    basis set group =>   5
Atom  23H    basis set group =>   5
Atom  24H    basis set group =>   5
Atom  25H    basis set group =>   5
Atom  26H    basis set group =>   5
Atom  27H    basis set group =>   5
Atom  28H    basis set group =>   5
Atom  29H    basis set group =>   5
Atom  30H    basis set group =>   5
Atom  31H    basis set group =>   5
Atom  32H    basis set group =>   5
Atom  33H    basis set group =>   5
Atom  34H    basis set group =>   5
Atom  35H    basis set group =>   5

Checking for AutoStart:
The File: G2_CONFS/Conf57.orca.gbw exists
Trying to determine its content:
     ... Fine, the file contains calculation information
     ... Fine, the calculation information was read
     ... Fine, the file contains a basis set
     ... Fine, the basis set was read
     ... Fine, the file contains a geometry
     ... Fine, the geometry was read
     ... The file does not contain orbitals - skipping AutoStart
------------------------------------------------------------------------------
                           ORCA GTO INTEGRAL CALCULATION
------------------------------------------------------------------------------

                         BASIS SET STATISTICS AND STARTUP INFO

 # of primitive gaussian shells          ...  682
 # of primitive gaussian functions       ... 1312
 # of contracted shells                  ...  298
 # of contracted basis functions         ...  828
 Highest angular momentum                ...    3
 Maximum contraction depth               ...   13
 Integral package used                   ... LIBINT
 Integral threshhold            Thresh   ...  2.500e-11
 Primitive cut-off              TCut     ...  2.500e-12


------------------------------ INTEGRAL EVALUATION ----------------------------


 * One electron integrals 
 Pre-screening matrix                    ... done
 Shell pair data                         ... done (   0.014 sec)

-------------------------------------------------------------------------------
                                 ORCA SCF
-------------------------------------------------------------------------------

------------
SCF SETTINGS
------------
Hamiltonian:
 Ab initio Hamiltonian  Method          .... Hartree-Fock(GTOs)


General Settings:
 Integral files         IntName         .... G2_CONFS/Conf57.orca
 Hartree-Fock type      HFTyp           .... RHF
 Total Charge           Charge          ....    0
 Multiplicity           Mult            ....    1
 Number of Electrons    NEL             ....  154
 Basis Dimension        Dim             ....  828
 Nuclear Repulsion      ENuc            ....   1729.0680960427 Eh

Convergence Acceleration:
 DIIS                   CNVDIIS         .... on
   Start iteration      DIISMaxIt       ....    12
   Startup error        DIISStart       ....  0.200000
   # of expansion vecs  DIISMaxEq       ....     5
   Bias factor          DIISBfac        ....   1.050
   Max. coefficient     DIISMaxC        ....  10.000
 Newton-Raphson         CNVNR           .... off
 SOSCF                  CNVSOSCF        .... on
   Start iteration      SOSCFMaxIt      ....   150
   Startup grad/error   SOSCFStart      ....  0.003300
 Level Shifting         CNVShift        .... on
   Level shift para.    LevelShift      ....    0.2500
   Turn off err/grad.   ShiftErr        ....    0.0010
 Zerner damping         CNVZerner       .... off
 Static damping         CNVDamp         .... on
   Fraction old density DampFac         ....    0.7000
   Max. Damping (<1)    DampMax         ....    0.9800
   Min. Damping (>=0)   DampMin         ....    0.0000
   Turn off err/grad.   DampErr         ....    0.1000
 Fernandez-Rico         CNVRico         .... off

SCF Procedure:
 Maximum # iterations   MaxIter         ....   125
 SCF integral mode      SCFMode         .... Direct
   Integral package                     .... LIBINT
 Reset frequency        DirectResetFreq ....    20
 Integral Threshold     Thresh          ....  2.500e-11 Eh
 Primitive CutOff       TCut            ....  2.500e-12 Eh

Convergence Tolerance:
 Convergence Check Mode ConvCheckMode   .... Total+1el-Energy
 Convergence forced     ConvForced      .... 1
 Energy Change          TolE            ....  1.000e-08 Eh
 1-El. energy change                    ....  1.000e-05 Eh
 Orbital Gradient       TolG            ....  1.000e-05
 Orbital Rotation angle TolX            ....  1.000e-05
 DIIS Error             TolErr          ....  5.000e-07


Diagonalization of the overlap matrix:
Smallest eigenvalue                        ... 3.342e-05
Time for diagonalization                   ...    0.112 sec
Threshold for overlap eigenvalues          ... 1.000e-08
Number of eigenvalues below threshold      ... 0
Time for construction of square roots      ...    0.065 sec
Total time needed                          ...    0.180 sec

-------------------
DFT GRID GENERATION
-------------------

General Integration Accuracy     IntAcc      ...  4.340
Radial Grid Type                 RadialGrid  ... Gauss-Chebyshev
Angular Grid (max. acc.)         AngularGrid ... Lebedev-110
Angular grid pruning method      GridPruning ... 3 (G Style)
Weight generation scheme         WeightScheme... Becke
Basis function cutoff            BFCut       ...    1.0000e-11
Integration weight cutoff        WCut        ...    1.0000e-14
Grids for H and He will be reduced by one unit

# of grid points (after initial pruning)     ...  46246 (   0.0 sec)
# of grid points (after weights+screening)   ...  41109 (   0.3 sec)
nearest neighbour list constructed           ...    0.0 sec
Grid point re-assignment to atoms done       ...    0.0 sec
Grid point division into batches done        ...    0.0 sec
Reduced shell lists constructed in    0.9 sec

Total number of grid points                  ...    41109
Total number of batches                      ...      663
Average number of points per batch           ...       62
Average number of grid points per atom       ...     1142
Average number of shells per batch           ...   152.73 (51.25%)
Average number of basis functions per batch  ...   388.83 (46.96%)
Average number of large shells per batch     ...    98.46 (64.47%)
Average number of large basis fcns per batch ...   251.64 (64.72%)
Maximum spatial batch extension              ...  16.65, 20.95, 19.58 au
Average spatial batch extension              ...   3.45,  3.36,  3.27 au

Time for grid setup =    1.269 sec

------------------------------
INITIAL GUESS: MODEL POTENTIAL
------------------------------
Loading Hartree-Fock densities                     ... done
Calculating cut-offs                               ... done
Setting up the integral package                    ... done
Initializing the effective Hamiltonian             ... done
Starting the Coulomb interaction                   ... done (   3.2 sec)
Reading the grid                                   ... done
Mapping shells                                     ... done
Starting the XC term evaluation                    ... done (   1.3 sec)
Transforming the Hamiltonian                       ... done (   0.0 sec)
Diagonalizing the Hamiltonian                      ... done (   0.1 sec)
Back transforming the eigenvectors                 ... done (   0.0 sec)
Now organizing SCF variables                       ... done
                      ------------------
                      INITIAL GUESS DONE (   6.1 sec)
                      ------------------
--------------
SCF ITERATIONS
--------------
ITER       Energy         Delta-E        Max-DP      RMS-DP      [F,P]     Damp
               ***  Starting incremental Fock matrix formation  ***
  0  -1269.9202696060   0.000000000000 0.04933393  0.00045810  0.3064103 0.7000
  1  -1270.1895990154  -0.269329409475 0.03610561  0.00037479  0.1798899 0.7000
                               ***Turning on DIIS***
  2  -1270.3570069397  -0.167407924280 0.02586401  0.00024763  0.1098343 0.7000
  3  -1272.4536537859  -2.096646846197 0.06323149  0.00051320  0.0830269 0.0000
  4  -1270.6705696901   1.783084095805 0.01279441  0.00010635  0.0069432 0.0000
                      *** Initiating the SOSCF procedure ***
                           *** Shutting down DIIS ***
                      *** Re-Reading the Fockian *** 
                      *** Removing any level shift *** 
ITER      Energy       Delta-E        Grad      Rot      Max-DP    RMS-DP
  5  -1270.72788596  -0.0573162705  0.002463  0.002463  0.005041  0.000055
               *** Restarting incremental Fock matrix formation ***
  6  -1270.72040393   0.0074820316  0.001175  0.002776  0.002296  0.000032
  7  -1270.72057867  -0.0001747455  0.000642  0.003424  0.003381  0.000038
  8  -1270.72063880  -0.0000601272  0.000224  0.000488  0.000646  0.000009
  9  -1270.72064686  -0.0000080608  0.000086  0.000237  0.000220  0.000003
 10  -1270.72064776  -0.0000008995  0.000039  0.000170  0.000187  0.000002
 11  -1270.72064799  -0.0000002295  0.000021  0.000058  0.000047  0.000001
 12  -1270.72064802  -0.0000000286  0.000006  0.000014  0.000018  0.000000
                 **** Energy Check signals convergence ****
              ***Rediagonalizing the Fockian in SOSCF/NRSCF***

               *****************************************************
               *                     SUCCESS                       *
               *           SCF CONVERGED AFTER  13 CYCLES          *
               *****************************************************


----------------
TOTAL SCF ENERGY
----------------

Total Energy       :        -1270.72064802 Eh          -34578.06675 eV

Components:
Nuclear Repulsion  :         1729.06809604 Eh           47050.33489 eV
Electronic Energy  :        -2999.78874406 Eh          -81628.40163 eV
One Electron Energy:        -5178.63941226 Eh         -140917.94254 eV
Two Electron Energy:         2178.85066820 Eh           59289.54090 eV

Virial components:
Potential Energy   :        -2539.72193330 Eh          -69109.34726 eV
Kinetic Energy     :         1269.00128528 Eh           34531.28051 eV
Virial Ratio       :            2.00135489


---------------
SCF CONVERGENCE
---------------

  Last Energy change         ...    9.4269e-10  Tolerance :   1.0000e-08
  Last MAX-Density change    ...    5.3027e-06  Tolerance :   1.0000e-07
  Last RMS-Density change    ...    7.8119e-08  Tolerance :   5.0000e-09
  Last Orbital Gradient      ...    2.8896e-06  Tolerance :   1.0000e-05
  Last Orbital Rotation      ...    7.0771e-06  Tolerance :   1.0000e-05

             **** THE GBW FILE WAS UPDATED (G2_CONFS/Conf57.orca.gbw) ****
             **** DENSITY FILE WAS UPDATED (G2_CONFS/Conf57.orca.scfp) ****
             **** ENERGY FILE WAS UPDATED (G2_CONFS/Conf57.orca.en.tmp) ****
             **** THE GBW FILE WAS UPDATED (G2_CONFS/Conf57.orca.gbw) ****
             **** DENSITY FILE WAS UPDATED (G2_CONFS/Conf57.orca.scfp) ****
----------------
ORBITAL ENERGIES
----------------

  NO   OCC          E(Eh)            E(eV) 
   0   2.0000     -91.891275     -2500.4887 
   1   2.0000     -20.603239      -560.6426 
   2   2.0000     -20.598310      -560.5085 
   3   2.0000     -20.552341      -559.2576 
   4   2.0000     -15.627132      -425.2359 
   5   2.0000     -15.613749      -424.8717 
   6   2.0000     -11.398995      -310.1824 
   7   2.0000     -11.387356      -309.8657 
   8   2.0000     -11.330492      -308.3184 
   9   2.0000     -11.323590      -308.1305 
  10   2.0000     -11.317074      -307.9532 
  11   2.0000     -11.304648      -307.6151 
  12   2.0000     -11.272499      -306.7403 
  13   2.0000     -11.270671      -306.6906 
  14   2.0000     -11.264619      -306.5259 
  15   2.0000     -11.253322      -306.2185 
  16   2.0000     -11.242011      -305.9107 
  17   2.0000     -11.240835      -305.8787 
  18   2.0000     -11.233868      -305.6891 
  19   2.0000     -11.232152      -305.6424 
  20   2.0000      -8.896270      -242.0798 
  21   2.0000      -6.577835      -178.9920 
  22   2.0000      -6.575833      -178.9375 
  23   2.0000      -6.575245      -178.9215 
  24   2.0000      -1.449549       -39.4442 
  25   2.0000      -1.418603       -38.6022 
  26   2.0000      -1.362733       -37.0819 
  27   2.0000      -1.341133       -36.4941 
  28   2.0000      -1.243980       -33.8504 
  29   2.0000      -1.158757       -31.5314 
  30   2.0000      -1.127280       -30.6748 
  31   2.0000      -1.047350       -28.4998 
  32   2.0000      -1.042637       -28.3716 
  33   2.0000      -1.016579       -27.6625 
  34   2.0000      -1.004484       -27.3334 
  35   2.0000      -0.988939       -26.9104 
  36   2.0000      -0.930710       -25.3259 
  37   2.0000      -0.882042       -24.0016 
  38   2.0000      -0.857297       -23.3282 
  39   2.0000      -0.843751       -22.9596 
  40   2.0000      -0.834189       -22.6994 
  41   2.0000      -0.832612       -22.6565 
  42   2.0000      -0.759778       -20.6746 
  43   2.0000      -0.741082       -20.1659 
  44   2.0000      -0.724965       -19.7273 
  45   2.0000      -0.701436       -19.0870 
  46   2.0000      -0.696687       -18.9578 
  47   2.0000      -0.681817       -18.5532 
  48   2.0000      -0.680665       -18.5218 
  49   2.0000      -0.664880       -18.0923 
  50   2.0000      -0.660667       -17.9777 
  51   2.0000      -0.647559       -17.6210 
  52   2.0000      -0.639161       -17.3925 
  53   2.0000      -0.610873       -16.6227 
  54   2.0000      -0.607439       -16.5293 
  55   2.0000      -0.602082       -16.3835 
  56   2.0000      -0.594154       -16.1677 
  57   2.0000      -0.581188       -15.8149 
  58   2.0000      -0.574139       -15.6231 
  59   2.0000      -0.568808       -15.4780 
  60   2.0000      -0.560059       -15.2400 
  61   2.0000      -0.557987       -15.1836 
  62   2.0000      -0.553135       -15.0516 
  63   2.0000      -0.526568       -14.3286 
  64   2.0000      -0.519749       -14.1431 
  65   2.0000      -0.514030       -13.9875 
  66   2.0000      -0.506911       -13.7937 
  67   2.0000      -0.503306       -13.6957 
  68   2.0000      -0.491988       -13.3877 
  69   2.0000      -0.463344       -12.6082 
  70   2.0000      -0.455670       -12.3994 
  71   2.0000      -0.450937       -12.2706 
  72   2.0000      -0.350743        -9.5442 
  73   2.0000      -0.348356        -9.4793 
  74   2.0000      -0.327438        -8.9100 
  75   2.0000      -0.323357        -8.7990 
  76   2.0000      -0.312096        -8.4926 
  77   0.0000       0.073933         2.0118 
  78   0.0000       0.108650         2.9565 
  79   0.0000       0.114731         3.1220 
  80   0.0000       0.128041         3.4842 
  81   0.0000       0.133021         3.6197 
  82   0.0000       0.141645         3.8544 
  83   0.0000       0.146063         3.9746 
  84   0.0000       0.153209         4.1690 
  85   0.0000       0.158314         4.3080 
  86   0.0000       0.166444         4.5292 
  87   0.0000       0.175271         4.7694 
  88   0.0000       0.185212         5.0399 
  89   0.0000       0.189101         5.1457 
  90   0.0000       0.200229         5.4485 
  91   0.0000       0.204772         5.5721 
  92   0.0000       0.210415         5.7257 
  93   0.0000       0.216126         5.8811 
  94   0.0000       0.218115         5.9352 
  95   0.0000       0.224025         6.0960 
  96   0.0000       0.235778         6.4159 
  97   0.0000       0.246081         6.6962 
  98   0.0000       0.257030         6.9941 
  99   0.0000       0.265595         7.2272 
 100   0.0000       0.280927         7.6444 
 101   0.0000       0.285545         7.7701 
 102   0.0000       0.306006         8.3268 
 103   0.0000       0.315350         8.5811 
 104   0.0000       0.320266         8.7149 
 105   0.0000       0.322788         8.7835 
 106   0.0000       0.344197         9.3661 
 107   0.0000       0.350530         9.5384 
 108   0.0000       0.355300         9.6682 
 109   0.0000       0.363430         9.8894 
 110   0.0000       0.367576        10.0022 
 111   0.0000       0.370599        10.0845 
 112   0.0000       0.377872        10.2824 
 113   0.0000       0.384383        10.4596 
 114   0.0000       0.394745        10.7415 
 115   0.0000       0.406934        11.0732 
 116   0.0000       0.419792        11.4231 
 117   0.0000       0.424520        11.5518 
 118   0.0000       0.432922        11.7804 
 119   0.0000       0.436723        11.8838 
 120   0.0000       0.439014        11.9462 
 121   0.0000       0.443643        12.0721 
 122   0.0000       0.452154        12.3037 
 123   0.0000       0.454505        12.3677 
 124   0.0000       0.457981        12.4623 
 125   0.0000       0.465041        12.6544 
 126   0.0000       0.470021        12.7899 
 127   0.0000       0.481012        13.0890 
 128   0.0000       0.484070        13.1722 
 129   0.0000       0.490353        13.3432 
 130   0.0000       0.496524        13.5111 
 131   0.0000       0.502645        13.6777 
 132   0.0000       0.505193        13.7470 
 133   0.0000       0.507325        13.8050 
 134   0.0000       0.517561        14.0836 
 135   0.0000       0.523426        14.2431 
 136   0.0000       0.526612        14.3298 
 137   0.0000       0.531620        14.4661 
 138   0.0000       0.533154        14.5079 
 139   0.0000       0.535832        14.5807 
 140   0.0000       0.549456        14.9515 
 141   0.0000       0.554735        15.0951 
 142   0.0000       0.563837        15.3428 
 143   0.0000       0.569878        15.5072 
 144   0.0000       0.573353        15.6017 
 145   0.0000       0.583116        15.8674 
 146   0.0000       0.584533        15.9060 
 147   0.0000       0.585654        15.9364 
 148   0.0000       0.596059        16.2196 
 149   0.0000       0.599098        16.3023 
 150   0.0000       0.604079        16.4378 
 151   0.0000       0.606674        16.5084 
 152   0.0000       0.611540        16.6409 
 153   0.0000       0.613832        16.7032 
 154   0.0000       0.617765        16.8102 
 155   0.0000       0.625846        17.0301 
 156   0.0000       0.629551        17.1310 
 157   0.0000       0.634036        17.2530 
 158   0.0000       0.636099        17.3091 
 159   0.0000       0.641521        17.4567 
 160   0.0000       0.645065        17.5531 
 161   0.0000       0.647553        17.6208 
 162   0.0000       0.653853        17.7922 
 163   0.0000       0.662218        18.0199 
 164   0.0000       0.666052        18.1242 
 165   0.0000       0.674097        18.3431 
 166   0.0000       0.678985        18.4761 
 167   0.0000       0.683008        18.5856 
 168   0.0000       0.686897        18.6914 
 169   0.0000       0.696905        18.9638 
 170   0.0000       0.702407        19.1135 
 171   0.0000       0.706439        19.2232 
 172   0.0000       0.715545        19.4710 
 173   0.0000       0.724575        19.7167 
 174   0.0000       0.729640        19.8545 
 175   0.0000       0.732511        19.9326 
 176   0.0000       0.742685        20.2095 
 177   0.0000       0.753333        20.4992 
 178   0.0000       0.757956        20.6250 
 179   0.0000       0.763430        20.7740 
 180   0.0000       0.779542        21.2124 
 181   0.0000       0.786362        21.3980 
 182   0.0000       0.789607        21.4863 
 183   0.0000       0.794341        21.6151 
 184   0.0000       0.807016        21.9600 
 185   0.0000       0.814356        22.1597 
 186   0.0000       0.816505        22.2182 
 187   0.0000       0.822616        22.3845 
 188   0.0000       0.832383        22.6503 
 189   0.0000       0.842537        22.9266 
 190   0.0000       0.844935        22.9919 
 191   0.0000       0.850559        23.1449 
 192   0.0000       0.857638        23.3375 
 193   0.0000       0.864983        23.5374 
 194   0.0000       0.877849        23.8875 
 195   0.0000       0.880606        23.9625 
 196   0.0000       0.886450        24.1215 
 197   0.0000       0.892929        24.2978 
 198   0.0000       0.899711        24.4824 
 199   0.0000       0.904194        24.6044 
 200   0.0000       0.913487        24.8572 
 201   0.0000       0.917468        24.9656 
 202   0.0000       0.923391        25.1267 
 203   0.0000       0.928125        25.2556 
 204   0.0000       0.938593        25.5404 
 205   0.0000       0.949809        25.8456 
 206   0.0000       0.956225        26.0202 
 207   0.0000       0.963029        26.2054 
 208   0.0000       0.970808        26.4170 
 209   0.0000       0.973848        26.4997 
 210   0.0000       0.981375        26.7046 
 211   0.0000       0.987326        26.8665 
 212   0.0000       1.001346        27.2480 
 213   0.0000       1.004670        27.3384 
 214   0.0000       1.010756        27.5041 
 215   0.0000       1.016862        27.6702 
 216   0.0000       1.026384        27.9293 
 217   0.0000       1.036047        28.1923 
 218   0.0000       1.038554        28.2605 
 219   0.0000       1.045185        28.4409 
 220   0.0000       1.046534        28.4776 
 221   0.0000       1.057412        28.7736 
 222   0.0000       1.059239        28.8234 
 223   0.0000       1.070084        29.1185 
 224   0.0000       1.073716        29.2173 
 225   0.0000       1.091412        29.6988 
 226   0.0000       1.096868        29.8473 
 227   0.0000       1.102003        29.9870 
 228   0.0000       1.111554        30.2469 
 229   0.0000       1.115221        30.3467 
 230   0.0000       1.125414        30.6241 
 231   0.0000       1.128110        30.6974 
 232   0.0000       1.131441        30.7881 
 233   0.0000       1.144222        31.1359 
 234   0.0000       1.149010        31.2662 
 235   0.0000       1.155669        31.4473 
 236   0.0000       1.171538        31.8792 
 237   0.0000       1.183988        32.2179 
 238   0.0000       1.188379        32.3374 
 239   0.0000       1.188985        32.3539 
 240   0.0000       1.201893        32.7052 
 241   0.0000       1.203324        32.7441 
 242   0.0000       1.206218        32.8228 
 243   0.0000       1.210482        32.9389 
 244   0.0000       1.218544        33.1583 
 245   0.0000       1.227963        33.4146 
 246   0.0000       1.233170        33.5563 
 247   0.0000       1.246544        33.9202 
 248   0.0000       1.251738        34.0615 
 249   0.0000       1.254248        34.1298 
 250   0.0000       1.262141        34.3446 
 251   0.0000       1.274506        34.6811 
 252   0.0000       1.282509        34.8988 
 253   0.0000       1.286601        35.0102 
 254   0.0000       1.290233        35.1090 
 255   0.0000       1.303099        35.4591 
 256   0.0000       1.310489        35.6602 
 257   0.0000       1.315768        35.8039 
 258   0.0000       1.325128        36.0586 
 259   0.0000       1.330557        36.2063 
 260   0.0000       1.340872        36.4870 
 261   0.0000       1.347515        36.6678 
 262   0.0000       1.359471        36.9931 
 263   0.0000       1.364739        37.1364 
 264   0.0000       1.371272        37.3142 
 265   0.0000       1.377986        37.4969 
 266   0.0000       1.383656        37.6512 
 267   0.0000       1.394338        37.9419 
 268   0.0000       1.398719        38.0611 
 269   0.0000       1.413036        38.4507 
 270   0.0000       1.425570        38.7917 
 271   0.0000       1.429134        38.8887 
 272   0.0000       1.440078        39.1865 
 273   0.0000       1.448172        39.4068 
 274   0.0000       1.452655        39.5288 
 275   0.0000       1.464286        39.8452 
 276   0.0000       1.473037        40.0834 
 277   0.0000       1.476337        40.1732 
 278   0.0000       1.479223        40.2517 
 279   0.0000       1.489304        40.5260 
 280   0.0000       1.493838        40.6494 
 281   0.0000       1.500842        40.8400 
 282   0.0000       1.506424        40.9919 
 283   0.0000       1.509143        41.0659 
 284   0.0000       1.515272        41.2326 
 285   0.0000       1.518896        41.3313 
 286   0.0000       1.532364        41.6977 
 287   0.0000       1.542734        41.9799 
 288   0.0000       1.545276        42.0491 
 289   0.0000       1.551009        42.2051 
 290   0.0000       1.558505        42.4091 
 291   0.0000       1.572014        42.7767 
 292   0.0000       1.577749        42.9327 
 293   0.0000       1.581609        43.0378 
 294   0.0000       1.584986        43.1297 
 295   0.0000       1.593572        43.3633 
 296   0.0000       1.603736        43.6399 
 297   0.0000       1.613116        43.8951 
 298   0.0000       1.620940        44.1080 
 299   0.0000       1.629080        44.3295 
 300   0.0000       1.639551        44.6145 
 301   0.0000       1.641738        44.6740 
 302   0.0000       1.651032        44.9269 
 303   0.0000       1.658148        45.1205 
 304   0.0000       1.671892        45.4945 
 305   0.0000       1.678785        45.6821 
 306   0.0000       1.686104        45.8812 
 307   0.0000       1.689867        45.9836 
 308   0.0000       1.695705        46.1425 
 309   0.0000       1.710390        46.5421 
 310   0.0000       1.718107        46.7521 
 311   0.0000       1.724267        46.9197 
 312   0.0000       1.732749        47.1505 
 313   0.0000       1.739471        47.3334 
 314   0.0000       1.750948        47.6457 
 315   0.0000       1.755894        47.7803 
 316   0.0000       1.774447        48.2852 
 317   0.0000       1.783956        48.5439 
 318   0.0000       1.789423        48.6927 
 319   0.0000       1.798326        48.9349 
 320   0.0000       1.807521        49.1851 
 321   0.0000       1.818163        49.4747 
 322   0.0000       1.829810        49.7917 
 323   0.0000       1.846991        50.2592 
 324   0.0000       1.856411        50.5155 
 325   0.0000       1.877982        51.1025 
 326   0.0000       1.883490        51.2524 
 327   0.0000       1.901437        51.7407 
 328   0.0000       1.908513        51.9333 
 329   0.0000       1.927038        52.4374 
 330   0.0000       1.937896        52.7328 
 331   0.0000       1.944666        52.9171 
 332   0.0000       1.955073        53.2003 
 333   0.0000       1.957695        53.2716 
 334   0.0000       1.968924        53.5771 
 335   0.0000       1.977373        53.8071 
 336   0.0000       1.993124        54.2357 
 337   0.0000       2.002397        54.4880 
 338   0.0000       2.008315        54.6490 
 339   0.0000       2.016734        54.8781 
 340   0.0000       2.037656        55.4474 
 341   0.0000       2.050962        55.8095 
 342   0.0000       2.062490        56.1232 
 343   0.0000       2.068974        56.2996 
 344   0.0000       2.077410        56.5292 
 345   0.0000       2.101571        57.1866 
 346   0.0000       2.135635        58.1136 
 347   0.0000       2.146866        58.4192 
 348   0.0000       2.158737        58.7422 
 349   0.0000       2.164073        58.8874 
 350   0.0000       2.197666        59.8015 
 351   0.0000       2.200049        59.8664 
 352   0.0000       2.225571        60.5609 
 353   0.0000       2.226798        60.5942 
 354   0.0000       2.239878        60.9502 
 355   0.0000       2.265315        61.6424 
 356   0.0000       2.283037        62.1246 
 357   0.0000       2.288993        62.2867 
 358   0.0000       2.305360        62.7320 
 359   0.0000       2.310441        62.8703 
 360   0.0000       2.330460        63.4150 
 361   0.0000       2.338530        63.6346 
 362   0.0000       2.345920        63.8357 
 363   0.0000       2.350769        63.9677 
 364   0.0000       2.363210        64.3062 
 365   0.0000       2.372466        64.5581 
 366   0.0000       2.388769        65.0017 
 367   0.0000       2.390768        65.0561 
 368   0.0000       2.410793        65.6010 
 369   0.0000       2.424818        65.9827 
 370   0.0000       2.429911        66.1213 
 371   0.0000       2.439684        66.3872 
 372   0.0000       2.446938        66.5846 
 373   0.0000       2.473533        67.3083 
 374   0.0000       2.482741        67.5588 
 375   0.0000       2.486825        67.6699 
 376   0.0000       2.495322        67.9012 
 377   0.0000       2.513980        68.4089 
 378   0.0000       2.529644        68.8351 
 379   0.0000       2.553049        69.4720 
 380   0.0000       2.559548        69.6488 
 381   0.0000       2.574958        70.0682 
 382   0.0000       2.597315        70.6765 
 383   0.0000       2.601559        70.7920 
 384   0.0000       2.609512        71.0084 
 385   0.0000       2.611219        71.0549 
 386   0.0000       2.629394        71.5495 
 387   0.0000       2.636327        71.7381 
 388   0.0000       2.650066        72.1120 
 389   0.0000       2.662711        72.4561 
 390   0.0000       2.667810        72.5948 
 391   0.0000       2.691198        73.2312 
 392   0.0000       2.699221        73.4495 
 393   0.0000       2.712180        73.8022 
 394   0.0000       2.721194        74.0475 
 395   0.0000       2.730209        74.2928 
 396   0.0000       2.742521        74.6278 
 397   0.0000       2.748429        74.7886 
 398   0.0000       2.755548        74.9823 
 399   0.0000       2.764177        75.2171 
 400   0.0000       2.779755        75.6410 
 401   0.0000       2.784713        75.7759 
 402   0.0000       2.795269        76.0631 
 403   0.0000       2.797404        76.1212 
 404   0.0000       2.816237        76.6337 
 405   0.0000       2.824164        76.8494 
 406   0.0000       2.826999        76.9265 
 407   0.0000       2.841669        77.3257 
 408   0.0000       2.845265        77.4236 
 409   0.0000       2.854234        77.6677 
 410   0.0000       2.882378        78.4335 
 411   0.0000       2.892088        78.6977 
 412   0.0000       2.901242        78.9468 
 413   0.0000       2.910526        79.1994 
 414   0.0000       2.919853        79.4532 
 415   0.0000       2.927951        79.6736 
 416   0.0000       2.935845        79.8884 
 417   0.0000       2.943733        80.1030 
 418   0.0000       2.953068        80.3571 
 419   0.0000       2.958299        80.4994 
 420   0.0000       2.968090        80.7658 
 421   0.0000       2.981658        81.1350 
 422   0.0000       2.983688        81.1903 
 423   0.0000       2.994875        81.4947 
 424   0.0000       3.002380        81.6989 
 425   0.0000       3.011418        81.9449 
 426   0.0000       3.018403        82.1349 
 427   0.0000       3.020397        82.1892 
 428   0.0000       3.028629        82.4132 
 429   0.0000       3.037555        82.6561 
 430   0.0000       3.047210        82.9188 
 431   0.0000       3.053361        83.0862 
 432   0.0000       3.060867        83.2904 
 433   0.0000       3.068153        83.4887 
 434   0.0000       3.077909        83.7542 
 435   0.0000       3.083864        83.9162 
 436   0.0000       3.085552        83.9622 
 437   0.0000       3.095015        84.2196 
 438   0.0000       3.097902        84.2982 
 439   0.0000       3.110672        84.6457 
 440   0.0000       3.119793        84.8939 
 441   0.0000       3.124234        85.0147 
 442   0.0000       3.125836        85.0583 
 443   0.0000       3.130899        85.1961 
 444   0.0000       3.135639        85.3251 
 445   0.0000       3.147522        85.6484 
 446   0.0000       3.155336        85.8611 
 447   0.0000       3.178715        86.4972 
 448   0.0000       3.180282        86.5399 
 449   0.0000       3.186773        86.7165 
 450   0.0000       3.194100        86.9159 
 451   0.0000       3.206513        87.2537 
 452   0.0000       3.212266        87.4102 
 453   0.0000       3.221709        87.6672 
 454   0.0000       3.225076        87.7588 
 455   0.0000       3.232832        87.9698 
 456   0.0000       3.236779        88.0772 
 457   0.0000       3.247517        88.3694 
 458   0.0000       3.253420        88.5301 
 459   0.0000       3.261256        88.7433 
 460   0.0000       3.273704        89.0820 
 461   0.0000       3.274844        89.1130 
 462   0.0000       3.283333        89.3440 
 463   0.0000       3.287149        89.4479 
 464   0.0000       3.295900        89.6860 
 465   0.0000       3.298410        89.7543 
 466   0.0000       3.305132        89.9372 
 467   0.0000       3.308892        90.0395 
 468   0.0000       3.316330        90.2419 
 469   0.0000       3.324121        90.4539 
 470   0.0000       3.330776        90.6350 
 471   0.0000       3.341869        90.9369 
 472   0.0000       3.346825        91.0717 
 473   0.0000       3.350662        91.1761 
 474   0.0000       3.353762        91.2605 
 475   0.0000       3.361108        91.4604 
 476   0.0000       3.365493        91.5797 
 477   0.0000       3.369496        91.6886 
 478   0.0000       3.381408        92.0128 
 479   0.0000       3.382566        92.0443 
 480   0.0000       3.394631        92.3726 
 481   0.0000       3.398416        92.4756 
 482   0.0000       3.403927        92.6256 
 483   0.0000       3.410517        92.8049 
 484   0.0000       3.417380        92.9916 
 485   0.0000       3.419697        93.0547 
 486   0.0000       3.423464        93.1572 
 487   0.0000       3.430673        93.3534 
 488   0.0000       3.432361        93.3993 
 489   0.0000       3.446667        93.7886 
 490   0.0000       3.448885        93.8489 
 491   0.0000       3.455596        94.0316 
 492   0.0000       3.462833        94.2285 
 493   0.0000       3.467607        94.3584 
 494   0.0000       3.472619        94.4948 
 495   0.0000       3.480775        94.7167 
 496   0.0000       3.485607        94.8482 
 497   0.0000       3.487257        94.8931 
 498   0.0000       3.494062        95.0783 
 499   0.0000       3.501216        95.2729 
 500   0.0000       3.506518        95.4172 
 501   0.0000       3.517022        95.7030 
 502   0.0000       3.527136        95.9783 
 503   0.0000       3.531349        96.0929 
 504   0.0000       3.546042        96.4927 
 505   0.0000       3.555215        96.7423 
 506   0.0000       3.562859        96.9503 
 507   0.0000       3.566184        97.0408 
 508   0.0000       3.579431        97.4013 
 509   0.0000       3.591030        97.7169 
 510   0.0000       3.596439        97.8641 
 511   0.0000       3.601038        97.9892 
 512   0.0000       3.611482        98.2734 
 513   0.0000       3.619251        98.4848 
 514   0.0000       3.623334        98.5959 
 515   0.0000       3.627076        98.6978 
 516   0.0000       3.633250        98.8658 
 517   0.0000       3.638691        99.0138 
 518   0.0000       3.642846        99.1269 
 519   0.0000       3.653154        99.4074 
 520   0.0000       3.657881        99.5360 
 521   0.0000       3.666684        99.7755 
 522   0.0000       3.668491        99.8247 
 523   0.0000       3.677595       100.0724 
 524   0.0000       3.685205       100.2795 
 525   0.0000       3.691697       100.4562 
 526   0.0000       3.697431       100.6122 
 527   0.0000       3.706475       100.8583 
 528   0.0000       3.712900       101.0331 
 529   0.0000       3.718031       101.1728 
 530   0.0000       3.718648       101.1896 
 531   0.0000       3.723244       101.3146 
 532   0.0000       3.733072       101.5821 
 533   0.0000       3.738494       101.7296 
 534   0.0000       3.744936       101.9049 
 535   0.0000       3.747270       101.9684 
 536   0.0000       3.756425       102.2175 
 537   0.0000       3.765597       102.4671 
 538   0.0000       3.769804       102.5816 
 539   0.0000       3.777063       102.7791 
 540   0.0000       3.784563       102.9832 
 541   0.0000       3.790831       103.1538 
 542   0.0000       3.796348       103.3039 
 543   0.0000       3.809668       103.6663 
 544   0.0000       3.819156       103.9245 
 545   0.0000       3.821296       103.9828 
 546   0.0000       3.830769       104.2405 
 547   0.0000       3.832695       104.2929 
 548   0.0000       3.844591       104.6166 
 549   0.0000       3.852128       104.8217 
 550   0.0000       3.857911       104.9791 
 551   0.0000       3.867945       105.2521 
 552   0.0000       3.879478       105.5660 
 553   0.0000       3.887382       105.7810 
 554   0.0000       3.902304       106.1871 
 555   0.0000       3.907146       106.3189 
 556   0.0000       3.909750       106.3897 
 557   0.0000       3.916089       106.5622 
 558   0.0000       3.923408       106.7614 
 559   0.0000       3.935237       107.0833 
 560   0.0000       3.939599       107.2019 
 561   0.0000       3.952029       107.5402 
 562   0.0000       3.960971       107.7835 
 563   0.0000       3.967770       107.9685 
 564   0.0000       3.980670       108.3195 
 565   0.0000       3.984782       108.4314 
 566   0.0000       3.999023       108.8189 
 567   0.0000       4.001945       108.8985 
 568   0.0000       4.008825       109.0857 
 569   0.0000       4.020280       109.3974 
 570   0.0000       4.028427       109.6191 
 571   0.0000       4.033129       109.7470 
 572   0.0000       4.036810       109.8472 
 573   0.0000       4.048633       110.1689 
 574   0.0000       4.062690       110.5514 
 575   0.0000       4.063642       110.5773 
 576   0.0000       4.074733       110.8791 
 577   0.0000       4.085228       111.1647 
 578   0.0000       4.092234       111.3554 
 579   0.0000       4.105208       111.7084 
 580   0.0000       4.110792       111.8603 
 581   0.0000       4.117993       112.0563 
 582   0.0000       4.126622       112.2911 
 583   0.0000       4.131775       112.4313 
 584   0.0000       4.142787       112.7310 
 585   0.0000       4.147959       112.8717 
 586   0.0000       4.149524       112.9143 
 587   0.0000       4.154686       113.0548 
 588   0.0000       4.164083       113.3105 
 589   0.0000       4.173484       113.5663 
 590   0.0000       4.173976       113.5797 
 591   0.0000       4.188892       113.9855 
 592   0.0000       4.198488       114.2467 
 593   0.0000       4.198942       114.2590 
 594   0.0000       4.211567       114.6026 
 595   0.0000       4.213359       114.6513 
 596   0.0000       4.217292       114.7583 
 597   0.0000       4.232353       115.1682 
 598   0.0000       4.244645       115.5027 
 599   0.0000       4.251274       115.6830 
 600   0.0000       4.261947       115.9735 
 601   0.0000       4.267516       116.1250 
 602   0.0000       4.279412       116.4487 
 603   0.0000       4.282668       116.5373 
 604   0.0000       4.289812       116.7317 
 605   0.0000       4.307339       117.2087 
 606   0.0000       4.311727       117.3280 
 607   0.0000       4.315350       117.4267 
 608   0.0000       4.323386       117.6453 
 609   0.0000       4.343501       118.1927 
 610   0.0000       4.345934       118.2589 
 611   0.0000       4.359141       118.6183 
 612   0.0000       4.363647       118.7409 
 613   0.0000       4.370765       118.9346 
 614   0.0000       4.377948       119.1300 
 615   0.0000       4.379679       119.1771 
 616   0.0000       4.384345       119.3041 
 617   0.0000       4.393938       119.5651 
 618   0.0000       4.398030       119.6765 
 619   0.0000       4.404498       119.8525 
 620   0.0000       4.414293       120.1190 
 621   0.0000       4.426211       120.4433 
 622   0.0000       4.430347       120.5559 
 623   0.0000       4.442881       120.8969 
 624   0.0000       4.459775       121.3566 
 625   0.0000       4.464351       121.4812 
 626   0.0000       4.466560       121.5413 
 627   0.0000       4.477423       121.8369 
 628   0.0000       4.482221       121.9674 
 629   0.0000       4.487525       122.1118 
 630   0.0000       4.506715       122.6340 
 631   0.0000       4.519732       122.9882 
 632   0.0000       4.520360       123.0052 
 633   0.0000       4.532013       123.3223 
 634   0.0000       4.545237       123.6822 
 635   0.0000       4.547502       123.7438 
 636   0.0000       4.550582       123.8276 
 637   0.0000       4.553294       123.9014 
 638   0.0000       4.573122       124.4410 
 639   0.0000       4.574959       124.4910 
 640   0.0000       4.577464       124.5591 
 641   0.0000       4.582272       124.6900 
 642   0.0000       4.594099       125.0118 
 643   0.0000       4.603424       125.2655 
 644   0.0000       4.611034       125.4726 
 645   0.0000       4.620497       125.7301 
 646   0.0000       4.626486       125.8931 
 647   0.0000       4.630112       125.9918 
 648   0.0000       4.648847       126.5016 
 649   0.0000       4.649784       126.5271 
 650   0.0000       4.656334       126.7053 
 651   0.0000       4.669690       127.0687 
 652   0.0000       4.674503       127.1997 
 653   0.0000       4.696905       127.8093 
 654   0.0000       4.700727       127.9133 
 655   0.0000       4.705045       128.0308 
 656   0.0000       4.709925       128.1636 
 657   0.0000       4.719173       128.4152 
 658   0.0000       4.732859       128.7876 
 659   0.0000       4.739496       128.9682 
 660   0.0000       4.745880       129.1419 
 661   0.0000       4.761137       129.5571 
 662   0.0000       4.777454       130.0011 
 663   0.0000       4.801523       130.6561 
 664   0.0000       4.834689       131.5586 
 665   0.0000       4.838074       131.6507 
 666   0.0000       4.861064       132.2763 
 667   0.0000       4.871905       132.5713 
 668   0.0000       4.873582       132.6169 
 669   0.0000       4.878074       132.7391 
 670   0.0000       4.905867       133.4954 
 671   0.0000       4.922053       133.9359 
 672   0.0000       4.929092       134.1274 
 673   0.0000       4.955382       134.8428 
 674   0.0000       4.962095       135.0255 
 675   0.0000       4.994848       135.9167 
 676   0.0000       5.006515       136.2342 
 677   0.0000       5.011721       136.3759 
 678   0.0000       5.015168       136.4696 
 679   0.0000       5.027758       136.8123 
 680   0.0000       5.041956       137.1986 
 681   0.0000       5.050560       137.4327 
 682   0.0000       5.067490       137.8934 
 683   0.0000       5.105128       138.9176 
 684   0.0000       5.105993       138.9411 
 685   0.0000       5.118586       139.2838 
 686   0.0000       5.125288       139.4662 
 687   0.0000       5.138050       139.8134 
 688   0.0000       5.149816       140.1336 
 689   0.0000       5.163737       140.5124 
 690   0.0000       5.170993       140.7099 
 691   0.0000       5.174225       140.7978 
 692   0.0000       5.184530       141.0782 
 693   0.0000       5.186343       141.1276 
 694   0.0000       5.200312       141.5077 
 695   0.0000       5.216860       141.9580 
 696   0.0000       5.224964       142.1785 
 697   0.0000       5.226516       142.2207 
 698   0.0000       5.235428       142.4632 
 699   0.0000       5.248205       142.8109 
 700   0.0000       5.263797       143.2352 
 701   0.0000       5.270805       143.4259 
 702   0.0000       5.284977       143.8115 
 703   0.0000       5.295963       144.1105 
 704   0.0000       5.320539       144.7792 
 705   0.0000       5.337379       145.2375 
 706   0.0000       5.351783       145.6294 
 707   0.0000       5.353946       145.6883 
 708   0.0000       5.371281       146.1600 
 709   0.0000       5.387655       146.6055 
 710   0.0000       5.399003       146.9143 
 711   0.0000       5.407145       147.1359 
 712   0.0000       5.414585       147.3383 
 713   0.0000       5.456967       148.4916 
 714   0.0000       5.467401       148.7755 
 715   0.0000       5.472040       148.9018 
 716   0.0000       5.480351       149.1279 
 717   0.0000       5.489234       149.3696 
 718   0.0000       5.503477       149.7572 
 719   0.0000       5.516154       150.1022 
 720   0.0000       5.524514       150.3297 
 721   0.0000       5.536570       150.6577 
 722   0.0000       5.549485       151.0092 
 723   0.0000       5.561620       151.3394 
 724   0.0000       5.576614       151.7474 
 725   0.0000       5.587731       152.0499 
 726   0.0000       5.590190       152.1168 
 727   0.0000       5.623706       153.0288 
 728   0.0000       5.636058       153.3649 
 729   0.0000       5.642869       153.5503 
 730   0.0000       5.645975       153.6348 
 731   0.0000       5.657413       153.9460 
 732   0.0000       5.667828       154.2294 
 733   0.0000       5.675636       154.4419 
 734   0.0000       5.694382       154.9520 
 735   0.0000       5.706099       155.2708 
 736   0.0000       5.713944       155.4843 
 737   0.0000       5.730592       155.9373 
 738   0.0000       5.748801       156.4328 
 739   0.0000       5.761545       156.7796 
 740   0.0000       5.767112       156.9311 
 741   0.0000       5.780675       157.3002 
 742   0.0000       5.792691       157.6271 
 743   0.0000       5.819787       158.3644 
 744   0.0000       5.835992       158.8054 
 745   0.0000       5.853284       159.2759 
 746   0.0000       5.867040       159.6503 
 747   0.0000       5.876336       159.9032 
 748   0.0000       5.888267       160.2279 
 749   0.0000       5.922728       161.1656 
 750   0.0000       5.950182       161.9127 
 751   0.0000       5.953440       162.0013 
 752   0.0000       5.964831       162.3113 
 753   0.0000       5.981658       162.7692 
 754   0.0000       5.992997       163.0778 
 755   0.0000       6.007903       163.4834 
 756   0.0000       6.043734       164.4584 
 757   0.0000       6.074640       165.2994 
 758   0.0000       6.082001       165.4997 
 759   0.0000       6.113863       166.3667 
 760   0.0000       6.149621       167.3397 
 761   0.0000       6.194141       168.5511 
 762   0.0000       6.209825       168.9779 
 763   0.0000       6.226294       169.4261 
 764   0.0000       6.243764       169.9015 
 765   0.0000       6.261877       170.3943 
 766   0.0000       6.294763       171.2892 
 767   0.0000       6.317395       171.9051 
 768   0.0000       6.331369       172.2853 
 769   0.0000       6.350592       172.8084 
 770   0.0000       6.358931       173.0353 
 771   0.0000       6.390096       173.8833 
 772   0.0000       6.391347       173.9174 
 773   0.0000       6.457286       175.7117 
 774   0.0000       6.464384       175.9048 
 775   0.0000       6.502434       176.9402 
 776   0.0000       6.532350       177.7543 
 777   0.0000       6.556421       178.4093 
 778   0.0000       6.592134       179.3811 
 779   0.0000       6.609485       179.8532 
 780   0.0000       6.670600       181.5162 
 781   0.0000       6.682584       181.8424 
 782   0.0000       6.706270       182.4869 
 783   0.0000       6.764280       184.0654 
 784   0.0000       6.810256       185.3165 
 785   0.0000       6.863046       186.7530 
 786   0.0000       6.881863       187.2650 
 787   0.0000       6.909946       188.0292 
 788   0.0000       6.937146       188.7694 
 789   0.0000       6.966730       189.5744 
 790   0.0000       7.017698       190.9613 
 791   0.0000       7.083418       192.7496 
 792   0.0000       7.097930       193.1445 
 793   0.0000       7.125808       193.9031 
 794   0.0000       7.221147       196.4974 
 795   0.0000       7.245516       197.1605 
 796   0.0000       7.280362       198.1087 
 797   0.0000       7.282038       198.1543 
 798   0.0000       7.338320       199.6858 
 799   0.0000       7.371429       200.5868 
 800   0.0000       7.403387       201.4564 
 801   0.0000       7.498439       204.0429 
 802   0.0000       7.546734       205.3571 
 803   0.0000       7.560240       205.7246 
 804   0.0000       7.592396       206.5996 
 805   0.0000       7.788005       211.9224 
 806   0.0000       7.823098       212.8773 
 807   0.0000       7.926148       215.6815 
 808   0.0000       8.019718       218.2276 
 809   0.0000       9.461460       257.4594 
 810   0.0000       9.654082       262.7009 
 811   0.0000      10.804103       293.9946 
 812   0.0000      11.113217       302.4060 
 813   0.0000      12.194858       331.8390 
 814   0.0000      12.595986       342.7542 
 815   0.0000      12.778290       347.7149 
 816   0.0000      13.022042       354.3478 
 817   0.0000      13.292948       361.7195 
 818   0.0000      13.422971       365.2576 
 819   0.0000      13.448530       365.9531 
 820   0.0000      13.579373       369.5135 
 821   0.0000      13.675063       372.1174 
 822   0.0000      13.826734       376.2446 
 823   0.0000      13.906219       378.4075 
 824   0.0000      13.994753       380.8166 
 825   0.0000      14.343073       390.2949 
 826   0.0000      14.593244       397.1023 
 827   0.0000      15.877562       432.0504 

                    ********************************
                    * MULLIKEN POPULATION ANALYSIS *
                    ********************************

-----------------------
MULLIKEN ATOMIC CHARGES
-----------------------
   0 C :   -0.265098
   1 C :    0.024817
   2 O :   -0.297370
   3 C :    0.380004
   4 O :   -0.379867
   5 C :   -0.139855
   6 C :    0.099616
   7 C :   -0.323299
   8 N :   -0.127006
   9 C :    0.188285
  10 S :   -0.433796
  11 N :   -0.205751
  12 C :    0.102167
  13 C :    0.047984
  14 C :   -0.216958
  15 C :   -0.120542
  16 C :   -0.284595
  17 C :    0.326022
  18 O :   -0.360783
  19 C :   -0.297177
  20 H :    0.114355
  21 H :    0.091497
  22 H :    0.091877
  23 H :    0.088294
  24 H :    0.103938
  25 H :    0.130886
  26 H :    0.124878
  27 H :    0.121334
  28 H :    0.193540
  29 H :    0.190891
  30 H :    0.187822
  31 H :    0.142486
  32 H :    0.159509
  33 H :    0.128796
  34 H :    0.243976
  35 H :    0.169123
Sum of atomic charges:   -0.0000000

--------------------------------
MULLIKEN REDUCED ORBITAL CHARGES
--------------------------------
  0 C s       :     3.264986  s :     3.264986
      pz      :     1.002349  p :     2.923264
      px      :     0.974031
      py      :     0.946884
      dz2     :     0.021171  d :     0.072324
      dxz     :     0.016317
      dyz     :     0.006797
      dx2y2   :     0.011244
      dxy     :     0.016794
      f0      :     0.000894  f :     0.004525
      f+1     :     0.000711
      f-1     :     0.000510
      f+2     :     0.000196
      f-2     :     0.000436
      f+3     :     0.001388
      f-3     :     0.000389
  1 C s       :     3.171977  s :     3.171977
      pz      :     0.982902  p :     2.634119
      px      :     0.671088
      py      :     0.980128
      dz2     :     0.032789  d :     0.157320
      dxz     :     0.029640
      dyz     :     0.016009
      dx2y2   :     0.040764
      dxy     :     0.038118
      f0      :     0.001841  f :     0.011768
      f+1     :     0.001826
      f-1     :     0.000559
      f+2     :     0.001469
      f-2     :     0.001323
      f+3     :     0.002518
      f-3     :     0.002232
  2 O s       :     3.715208  s :     3.715208
      pz      :     1.766751  p :     4.545806
      px      :     1.183198
      py      :     1.595858
      dz2     :     0.004501  d :     0.034069
      dxz     :     0.006347
      dyz     :     0.002926
      dx2y2   :     0.005094
      dxy     :     0.015201
      f0      :     0.000258  f :     0.002286
      f+1     :     0.000450
      f-1     :     0.000150
      f+2     :     0.000186
      f-2     :     0.000230
      f+3     :     0.000462
      f-3     :     0.000549
  3 C s       :     3.098355  s :     3.098355
      pz      :     0.721108  p :     2.201560
      px      :     0.705611
      py      :     0.774841
      dz2     :     0.038461  d :     0.293925
      dxz     :     0.079904
      dyz     :     0.023655
      dx2y2   :     0.077524
      dxy     :     0.074382
      f0      :     0.002196  f :     0.026156
      f+1     :     0.003366
      f-1     :     0.001839
      f+2     :     0.002774
      f-2     :     0.004375
      f+3     :     0.007102
      f-3     :     0.004504
  4 O s       :     3.763003  s :     3.763003
      pz      :     1.510743  p :     4.578089
      px      :     1.440669
      py      :     1.626676
      dz2     :     0.005380  d :     0.036283
      dxz     :     0.010565
      dyz     :     0.001826
      dx2y2   :     0.008995
      dxy     :     0.009517
      f0      :     0.000197  f :     0.002493
      f+1     :     0.000440
      f-1     :     0.000050
      f+2     :     0.000406
      f-2     :     0.000290
      f+3     :     0.000501
      f-3     :     0.000608
  5 C s       :     3.178989  s :     3.178989
      pz      :     0.944713  p :     2.854521
      px      :     0.944568
      py      :     0.965241
      dz2     :     0.017876  d :     0.095311
      dxz     :     0.013974
      dyz     :     0.026565
      dx2y2   :     0.022860
      dxy     :     0.014036
      f0      :     0.000973  f :     0.011034
      f+1     :     0.001452
      f-1     :     0.001902
      f+2     :     0.002055
      f-2     :     0.001520
      f+3     :     0.001149
      f-3     :     0.001983
  6 C s       :     3.201130  s :     3.201130
      pz      :     0.872019  p :     2.512834
      px      :     0.859609
      py      :     0.781206
      dz2     :     0.032405  d :     0.172377
      dxz     :     0.020880
      dyz     :     0.048657
      dx2y2   :     0.033377
      dxy     :     0.037057
      f0      :     0.001728  f :     0.014044
      f+1     :     0.001184
      f-1     :     0.002663
      f+2     :     0.002173
      f-2     :     0.002279
      f+3     :     0.001814
      f-3     :     0.002202
  7 C s       :     3.299259  s :     3.299259
      pz      :     0.899124  p :     2.945207
      px      :     1.001008
      py      :     1.045076
      dz2     :     0.020445  d :     0.074163
      dxz     :     0.012977
      dyz     :     0.013774
      dx2y2   :     0.020559
      dxy     :     0.006409
      f0      :     0.000782  f :     0.004669
      f+1     :     0.001067
      f-1     :     0.000995
      f+2     :     0.000394
      f-2     :     0.000390
      f+3     :     0.000777
      f-3     :     0.000265
  8 N s       :     3.341808  s :     3.341808
      pz      :     1.235601  p :     3.720235
      px      :     1.407866
      py      :     1.076767
      dz2     :     0.013189  d :     0.060027
      dxz     :     0.009545
      dyz     :     0.015356
      dx2y2   :     0.010764
      dxy     :     0.011173
      f0      :     0.000608  f :     0.004937
      f+1     :     0.000977
      f-1     :     0.000597
      f+2     :     0.001012
      f-2     :     0.000905
      f+3     :     0.000421
      f-3     :     0.000416
  9 C s       :     3.174952  s :     3.174952
      pz      :     0.766068  p :     2.356274
      px      :     0.710671
      py      :     0.879535
      dz2     :     0.062913  d :     0.262909
      dxz     :     0.031498
      dyz     :     0.050061
      dx2y2   :     0.057158
      dxy     :     0.061278
      f0      :     0.002601  f :     0.017579
      f+1     :     0.002313
      f-1     :     0.002391
      f+2     :     0.002871
      f-2     :     0.002112
      f+3     :     0.002371
      f-3     :     0.002920
 10 S s       :     5.857086  s :     5.857086
      pz      :     3.558491  p :    10.482022
      px      :     3.718138
      py      :     3.205392
      dz2     :     0.009485  d :     0.084550
      dxz     :     0.003468
      dyz     :     0.034481
      dx2y2   :     0.020854
      dxy     :     0.016262
      f0      :     0.001203  f :     0.010139
      f+1     :     0.000086
      f-1     :     0.001656
      f+2     :     0.002972
      f-2     :     0.001177
      f+3     :     0.001695
      f-3     :     0.001350
 11 N s       :     3.384015  s :     3.384015
      pz      :     1.242467  p :     3.758254
      px      :     1.446802
      py      :     1.068984
      dz2     :     0.009023  d :     0.059085
      dxz     :     0.008130
      dyz     :     0.017267
      dx2y2   :     0.013330
      dxy     :     0.011335
      f0      :     0.000322  f :     0.004397
      f+1     :     0.000496
      f-1     :     0.000614
      f+2     :     0.000814
      f-2     :     0.000583
      f+3     :     0.000817
      f-3     :     0.000751
 12 C s       :     3.105297  s :     3.105297
      pz      :     0.837439  p :     2.607301
      px      :     0.940566
      py      :     0.829297
      dz2     :     0.035187  d :     0.174279
      dxz     :     0.028558
      dyz     :     0.040920
      dx2y2   :     0.024518
      dxy     :     0.045095
      f0      :     0.001031  f :     0.010955
      f+1     :     0.001483
      f-1     :     0.001930
      f+2     :     0.002240
      f-2     :     0.001898
      f+3     :     0.001167
      f-3     :     0.001205
 13 C s       :     3.120288  s :     3.120288
[...]
      f+2     :     0.007693
      f-2     :     0.004986
      f+3     :     0.007402
      f-3     :     0.008474
 15 C s       :     2.704101  s :     2.704101
      pz      :     0.883406  p :     2.789601
      px      :     0.942784
      py      :     0.963410
      dz2     :     0.086075  d :     0.424575
      dxz     :     0.073726
      dyz     :     0.053616
      dx2y2   :     0.118823
      dxy     :     0.092335
      f0      :     0.003108  f :     0.042166
      f+1     :     0.005164
      f-1     :     0.005694
      f+2     :     0.007332
      f-2     :     0.006119
      f+3     :     0.007946
      f-3     :     0.006803
 16 C s       :     2.700240  s :     2.700240
      pz      :     0.936858  p :     2.875201
      px      :     0.966685
      py      :     0.971659
      dz2     :     0.038707  d :     0.393173
      dxz     :     0.061071
      dyz     :     0.080976
      dx2y2   :     0.099080
      dxy     :     0.113339
      f0      :     0.003835  f :     0.040953
      f+1     :     0.004427
      f-1     :     0.004069
      f+2     :     0.006446
      f-2     :     0.004878
      f+3     :     0.009537
      f-3     :     0.007760
 17 C s       :     2.703656  s :     2.703656
      pz      :     0.850539  p :     2.679197
      px      :     0.821923
      py      :     1.006734
      dz2     :     0.118343  d :     0.709337
      dxz     :     0.111822
      dyz     :     0.128235
      dx2y2   :     0.173411
      dxy     :     0.177526
      f0      :     0.008107  f :     0.099293
      f+1     :     0.015744
      f-1     :     0.008502
      f+2     :     0.016203
      f-2     :     0.013131
      f+3     :     0.019362
      f-3     :     0.018244
 18 O s       :     3.178533  s :     3.178533
      pz      :     1.454488  p :     4.348752
      px      :     1.386667
      py      :     1.507597
      dz2     :     0.007364  d :     0.075672
      dxz     :     0.016960
      dyz     :     0.016410
      dx2y2   :     0.016963
      dxy     :     0.017975
      f0      :     0.000558  f :     0.005103
      f+1     :     0.000727
      f-1     :     0.000373
      f+2     :     0.000633
      f-2     :     0.000927
      f+3     :     0.000852
      f-3     :     0.001032
 19 C s       :     2.699487  s :     2.699487
      pz      :     0.935851  p :     2.858161
      px      :     0.957111
      py      :     0.965199
      dz2     :     0.065013  d :     0.379631
      dxz     :     0.067904
      dyz     :     0.052118
      dx2y2   :     0.098431
      dxy     :     0.096164
      f0      :     0.003205  f :     0.039414
      f+1     :     0.004889
      f-1     :     0.004655
      f+2     :     0.007026
      f-2     :     0.006103
      f+3     :     0.007761
      f-3     :     0.005775
 20 H s       :     0.842212  s :     0.842212
      pz      :     0.039899  p :     0.149723
      px      :     0.045540
      py      :     0.064284
      dz2     :     0.002658  d :     0.027685
      dxz     :     0.002608
      dyz     :     0.006427
      dx2y2   :     0.008764
      dxy     :     0.007228
 21 H s       :     0.848967  s :     0.848967
      pz      :     0.070777  p :     0.152076
      px      :     0.042219
      py      :     0.039080
      dz2     :     0.009039  d :     0.027504
      dxz     :     0.008900
      dyz     :     0.007934
      dx2y2   :     0.000485
      dxy     :     0.001146
 22 H s       :     0.847989  s :     0.847989
      pz      :     0.049658  p :     0.150533
      px      :     0.062263
      py      :     0.038611
      dz2     :     0.006616  d :     0.027353
      dxz     :     0.006818
      dyz     :     0.002324
      dx2y2   :     0.004929
      dxy     :     0.006666
 23 H s       :     0.859491  s :     0.859491
      pz      :     0.044269  p :     0.152123
      px      :     0.033816
      py      :     0.074038
      dz2     :     0.004984  d :     0.027327
      dxz     :     0.002086
      dyz     :     0.006416
      dx2y2   :     0.007165
      dxy     :     0.006676
 24 H s       :     0.851663  s :     0.851663
      pz      :     0.083875  p :     0.151074
      px      :     0.027180
      py      :     0.040019
      dz2     :     0.010319  d :     0.027243
      dxz     :     0.006886
      dyz     :     0.009655
      dx2y2   :     0.000104
      dxy     :     0.000279
 25 H s       :     0.828731  s :     0.828731
      pz      :     0.056558  p :     0.150113
      px      :     0.043434
      py      :     0.050121
      dz2     :     0.007961  d :     0.027512
      dxz     :     0.005612
      dyz     :     0.006254
      dx2y2   :     0.004723
      dxy     :     0.002962
 26 H s       :     0.832115  s :     0.832115
      pz      :     0.037431  p :     0.150053
      px      :     0.042183
      py      :     0.070439
      dz2     :     0.002847  d :     0.027705
      dxz     :     0.000815
      dyz     :     0.008583
      dx2y2   :     0.007553
      dxy     :     0.007906
 27 H s       :     0.839962  s :     0.839962
      pz      :     0.037985  p :     0.156101
      px      :     0.075297
      py      :     0.042819
      dz2     :     0.002414  d :     0.027944
      dxz     :     0.008798
      dyz     :     0.000024
      dx2y2   :     0.007116
      dxy     :     0.009592
 28 H s       :     0.743560  s :     0.743560
      pz      :     0.062815  p :     0.253848
      px      :     0.082413
      py      :     0.108620
      dz2     :     0.007450  d :     0.061657
      dxz     :     0.002925
      dyz     :     0.017069
      dx2y2   :     0.015440
      dxy     :     0.018772
 29 H s       :     0.747042  s :     0.747042
      pz      :     0.108785  p :     0.255960
      px      :     0.100962
      py      :     0.046213
      dz2     :     0.021019  d :     0.061772
      dxz     :     0.016214
      dyz     :     0.010830
      dx2y2   :     0.008010
      dxy     :     0.005699
 30 H s       :     0.811474  s :     0.811474
      pz      :     0.036169  p :     0.160338
      px      :     0.060889
      py      :     0.063281
      dz2     :     0.003015  d :     0.029821
      dxz     :     0.005506
      dyz     :     0.004057
      dx2y2   :     0.008421
      dxy     :     0.008822
 31 H s       :     0.842130  s :     0.842130
      pz      :     0.053286  p :     0.160070
      px      :     0.066402
      py      :     0.040382
      dz2     :     0.004646  d :     0.027848
      dxz     :     0.006560
      dyz     :     0.003406
      dx2y2   :     0.006513
      dxy     :     0.006722
 32 H s       :     0.841948  s :     0.841948
      pz      :     0.037140  p :     0.149639
      px      :     0.037865
      py      :     0.074634
      dz2     :     0.002669  d :     0.026242
      dxz     :     0.000727
      dyz     :     0.007176
      dx2y2   :     0.007723
      dxy     :     0.007947
 33 H s       :     0.848317  s :     0.848317
      pz      :     0.058229  p :     0.159010
      px      :     0.050324
      py      :     0.050458
      dz2     :     0.005946  d :     0.027714
      dxz     :     0.004981
      dyz     :     0.005602
      dx2y2   :     0.005851
      dxy     :     0.005334
 34 H s       :     0.704774  s :     0.704774
      pz      :     0.117414  p :     0.345923
      px      :     0.083300
      py      :     0.145209
      dz2     :     0.024067  d :     0.099056
      dxz     :     0.012122
      dyz     :     0.023864
      dx2y2   :     0.019996
      dxy     :     0.019007
 35 H s       :     0.840612  s :     0.840612
      pz      :     0.043530  p :     0.160869
      px      :     0.040843
      py      :     0.076496
      dz2     :     0.002798  d :     0.028516
      dxz     :     0.001172
      dyz     :     0.007959
      dx2y2   :     0.008096
      dxy     :     0.008491


                      *****************************
                      * MAYER POPULATION ANALYSIS *
                      *****************************

  NA   - Mulliken gross atomic population
  ZA   - Total nuclear charge
  QA   - Mulliken gross atomic charge
  VA   - Mayer's total valence
  BVA  - Mayer's bonded valence
  FA   - Mayer's free valence

  ATOM       NA         ZA         QA         VA         BVA        FA
  0 C      6.2651     6.0000    -0.2651     3.9044     3.9044    -0.0000
  1 C      5.9752     6.0000     0.0248     3.8617     3.8617     0.0000
  2 O      8.2974     8.0000    -0.2974     2.0732     2.0732    -0.0000
  3 C      5.6200     6.0000     0.3800     4.2797     4.2797     0.0000
  4 O      8.3799     8.0000    -0.3799     2.1413     2.1413    -0.0000
  5 C      6.1399     6.0000    -0.1399     3.5865     3.5865     0.0000
  6 C      5.9004     6.0000     0.0996     3.7950     3.7950     0.0000
  7 C      6.3233     6.0000    -0.3233     3.8763     3.8763    -0.0000
  8 N      7.1270     7.0000    -0.1270     3.2616     3.2616     0.0000
  9 C      5.8117     6.0000     0.1883     4.1457     4.1457    -0.0000
 10 S     16.4338    16.0000    -0.4338     1.7643     1.7643    -0.0000
 11 N      7.2058     7.0000    -0.2058     3.2457     3.2457    -0.0000
 12 C      5.8978     6.0000     0.1022     3.9049     3.9049     0.0000
 13 C      5.9520     6.0000     0.0480     3.6964     3.6964    -0.0000
 14 C      6.2170     6.0000    -0.2170     3.8591     3.8591    -0.0000
 15 C      6.1205     6.0000    -0.1205     3.8069     3.8069    -0.0000
 16 C      6.2846     6.0000    -0.2846     3.7823     3.7823     0.0000
 17 C      5.6740     6.0000     0.3260     3.8608     3.8608    -0.0000
 18 O      8.3608     8.0000    -0.3608     2.1133     2.1133    -0.0000
 19 C      6.2972     6.0000    -0.2972     3.8401     3.8401    -0.0000
 20 H      0.8856     1.0000     0.1144     0.9890     0.9890     0.0000
 21 H      0.9085     1.0000     0.0915     0.9846     0.9846     0.0000
 22 H      0.9081     1.0000     0.0919     0.9817     0.9817    -0.0000
 23 H      0.9117     1.0000     0.0883     0.9628     0.9628     0.0000
 24 H      0.8961     1.0000     0.1039     0.9576     0.9576     0.0000
 25 H      0.8691     1.0000     0.1309     0.9804     0.9804     0.0000
 26 H      0.8751     1.0000     0.1249     0.9839     0.9839     0.0000
 27 H      0.8787     1.0000     0.1213     0.9681     0.9681    -0.0000
 28 H      0.8065     1.0000     0.1935     1.0256     1.0256     0.0000
 29 H      0.8091     1.0000     0.1909     1.0222     1.0222     0.0000
 30 H      0.8122     1.0000     0.1878     0.9931     0.9931     0.0000
 31 H      0.8575     1.0000     0.1425     0.9880     0.9880     0.0000
 32 H      0.8405     1.0000     0.1595     0.9775     0.9775    -0.0000
 33 H      0.8712     1.0000     0.1288     0.9916     0.9916     0.0000
 34 H      0.7560     1.0000     0.2440     1.0083     1.0083    -0.0000
 35 H      0.8309     1.0000     0.1691     0.9898     0.9898    -0.0000

  Mayer bond orders larger than 0.100000
B(  0-C ,  1-C ) :   0.9720 B(  0-C , 20-H ) :   0.9757 B(  0-C , 21-H ) :   0.9855 
B(  0-C , 22-H ) :   0.9796 B(  1-C ,  2-O ) :   0.9124 B(  1-C , 23-H ) :   0.9676 
B(  1-C , 24-H ) :   0.9639 B(  2-O ,  3-C ) :   1.1958 B(  3-C ,  4-O ) :   2.1104 
B(  3-C ,  5-C ) :   0.9033 B(  5-C ,  6-C ) :   1.7144 B(  5-C , 12-C ) :   0.9687 
B(  6-C ,  7-C ) :   0.9283 B(  6-C ,  8-N ) :   1.0998 B(  7-C , 25-H ) :   0.9750 
B(  7-C , 26-H ) :   0.9801 B(  7-C , 27-H ) :   0.9730 B(  8-N ,  9-C ) :   1.1927 
B(  8-N , 28-H ) :   0.9516 B(  9-C , 10-S ) :   1.6194 B(  9-C , 11-N ) :   1.2797 
B( 11-N , 12-C ) :   1.0016 B( 11-N , 29-H ) :   0.9526 B( 12-C , 13-C ) :   0.8881 
B( 12-C , 30-H ) :   0.9866 B( 13-C , 14-C ) :   1.3788 B( 13-C , 19-C ) :   1.3681 
B( 14-C , 15-C ) :   1.3787 B( 14-C , 31-H ) :   0.9733 B( 15-C , 16-C ) :   1.3721 
B( 15-C , 32-H ) :   0.9707 B( 16-C , 17-C ) :   1.3156 B( 16-C , 33-H ) :   0.9869 
B( 17-C , 18-O ) :   1.1071 B( 17-C , 19-C ) :   1.3815 B( 18-O , 34-H ) :   0.9772 
B( 19-C , 35-H ) :   0.9513 

-------
TIMINGS
-------

Total SCF time: 0 days 1 hours 33 min 44 sec 

Total time                  ....    5625.000 sec
Sum of individual times     ....    5620.659 sec  ( 99.9%)

Fock matrix formation       ....    5610.014 sec  ( 99.7%)
Diagonalization             ....       0.992 sec  (  0.0%)
Density matrix formation    ....       0.196 sec  (  0.0%)
Population analysis         ....       0.242 sec  (  0.0%)
Initial guess               ....       4.838 sec  (  0.1%)
Orbital Transformation      ....       0.000 sec  (  0.0%)
Orbital Orthonormalization  ....       0.000 sec  (  0.0%)
DIIS solution               ....       1.081 sec  (  0.0%)
SOSCF solution              ....       2.027 sec  (  0.0%)

------------------------------------------------------------------------------
                                ORCA  MP2 
------------------------------------------------------------------------------

Freezing NCore=48 chemical core electrons

-------------
RI-MP2 ENERGY
-------------
Dimension of the basis                    ...  828
Memory devoted to MP2                     ...  256 MB   
Data format for buffers                   ... DOUBLE
Compression type for matrix containers    ... UNCOMPRESSED
Overall scaling of the MP2 energy         ...   1.000e+00
Calculating two index integrals           ... done (    0.040 sec)
Cholesky decomposition of V**-1           ... done (    0.337 sec)

-----------------
RI-TRANSFORMATION (AUX index driven)
-----------------

Dimension of the orbital-basis         ... 828
Dimension of the aux-basis             ... 2141
Transformation of internal/external MOs...   24-  76 to   77- 827
Number Format for Storage              ... Double (8 Byte)
Integral mode                          ... Direct

First Phase: integral generation and transformation of MO indices
  Aux angular momentum 0               ... done (    4.862 sec)
  Aux angular momentum 1               ... done (    7.734 sec)
  Aux angular momentum 2               ... done (    9.704 sec)
  Aux angular momentum 3               ... done (    7.463 sec)
  Aux angular momentum 4               ... done (    2.620 sec)
Closing buffer VIA ( 0.63 GB; CompressionRatio= 1.00)
  Phase 1 completed in    32.582 sec
Second Phase: sorting and transformation of aux index

IA-Transformation
Memory available                       ... 167 MB 
Max. # MO pairs treated in a batch     ... 12    
# of internal orbitals                 ... 53
# batches for internal orbitals        ... 5
Closing buffer IAV ( 0.63 GB; CompressionRatio= 1.00)
(ia|v) transformation done in    19.587 sec

  Phase 2 completed in    19.608 sec
RI-Integral transformation completed in    52.195 sec
Opening buffers                              ... done

Starting loop over batches of integrals:

Operator 0  - window                       ... ( 24- 76)x( 77-827)
Operator 0  - Memory available             ...   256 MB
Operator 0  - Memory needed per MO         ...  12.3 MB
Operator 0  - Number of orbitals per batch ... 13
Operator 0  - Number of batches            ... 5

OPERATOR  0   PASS   0:  MOs    24 ...   36
  Reading integrals       ... ok
  Internal MO  26
  Internal MO  29
  Internal MO  32
  Internal MO  35
OPERATOR  0   PASS   1:  MOs    37 ...   49
  Reading integrals       ... ok
  Internal MO  38
  Internal MO  41
  Internal MO  44
  Internal MO  47
OPERATOR  0   PASS   2:  MOs    50 ...   62
  Reading integrals       ... ok
  Internal MO  50
  Internal MO  53
  Internal MO  56
  Internal MO  59
  Internal MO  62
OPERATOR  0   PASS   3:  MOs    63 ...   75
  Reading integrals       ... ok
  Internal MO  65
  Internal MO  68
  Internal MO  71
  Internal MO  74
OPERATOR  0   PASS   4:  MOs    76 ...   76
  Reading integrals       ... ok
Time spent in pair loops =    80.042 sec
Deleting buffer (Ka|jb)[aa] ...done

-----------------------------------------------
 RI-MP2 CORRELATION ENERGY:     -3.553761378 Eh
-----------------------------------------------


-------
TIMINGS
-------

Total time                :  132.718 sec
Integral trafo            :   52.204 sec ( 39.3%)
I/O of integrals          :    1.719 sec (  1.3%)
K(i,j) Operators          :   51.573 sec ( 38.9%)
T(i,j) pair energies      :    8.314 sec (  6.3%)
V-calculation             :    0.040 sec (  0.0%)
V**(-1/2)                 :    0.337 sec (  0.3%)
Gamma(ia|P)               :    0.000 sec (  0.0%)
Gamma-Trafo               :    0.000 sec (  0.0%)
D(virtual)                :    0.000 sec (  0.0%)
D(internal)               :    0.000 sec (  0.0%)
W(virtual)                :    0.000 sec (  0.0%)
W(internal)               :    0.000 sec (  0.0%)
L(virtual)                :    0.000 sec (  0.0%)
L(internal)               :    0.000 sec (  0.0%)
G(D)                      :    0.000 sec (  0.0%)
G(Z)                      :    0.000 sec (  0.0%)
Z-Vector Solution         :    0.000 sec (  0.0%)
3-Index Derivative        :    0.000 sec (  0.0%)
2-Index Derivative        :    0.000 sec (  0.0%)
Separable Gradient        :    0.000 sec (  0.0%)


---------------------------------------
MP2 TOTAL ENERGY:    -1274.274409398 Eh
---------------------------------------

-------------------------   --------------------
FINAL SINGLE POINT ENERGY     -1274.274409397642
-------------------------   --------------------


                            ***************************************
                            *     ORCA property calculations      *
                            ***************************************


  WARNING: The energy has been calculated at the MP2 level but the densities
           used in the property calculations are still SCF densities
           MP2 response densities have not been calculated 
           use %mp2 Density relaxed end
           or  %mp2 Density unrelaxed end

                                    ---------------------
                                    Active property flags
                                    ---------------------
   (+) Dipole Moment


------------------------------------------------------------------------------
                       ORCA ELECTRIC PROPERTIES CALCULATION
------------------------------------------------------------------------------

Dipole Moment Calculation                       ... on
Quadrupole Moment Calculation                   ... off
Polarizability Calculation                      ... off
GBWName                                         ... G2_CONFS/Conf57.orca.gbw
Electron density file                           ... G2_CONFS/Conf57.orca.scfp
The origin for moment calculation is the CENTER OF MASS  = (32.916816, 31.469352 35.250272)

-------------
DIPOLE MOMENT
-------------
                                X             Y             Z
Electronic contribution:     11.48185       9.25584       7.18006
Nuclear contribution   :    -13.19107     -10.35220      -7.42149
                        -----------------------------------------
Total Dipole Moment    :     -1.70922      -1.09636      -0.24143
                        -----------------------------------------
Magnitude (a.u.)       :      2.04493
Magnitude (Debye)      :      5.19780



--------------------
Rotational spectrum 
--------------------
 
Rotational constants in cm-1:     0.011402     0.009577     0.006836 
Rotational constants in MHz :   341.808626   287.098503   204.939497 

 Dipole components along the rotational axes: 
x,y,z [a.u.] :    -1.692846     0.000369     1.147174 
x,y,z [Debye]:    -4.302872     0.000938     2.915884 

 

Timings for individual modules:

Sum of individual times         ...     5759.274 sec (=  95.988 min)
GTO integral calculation        ...        1.254 sec (=   0.021 min)   0.0 %
SCF iterations                  ...     5625.045 sec (=  93.751 min)  97.7 %
MP2 module                      ...      132.975 sec (=   2.216 min)   2.3 %
                             ****ORCA TERMINATED NORMALLY****
TOTAL RUN TIME: 0 days 1 hours 35 minutes 59 seconds 882 msec
