
                                 *****************
                                 * O   R   C   A *
                                 *****************

           --- An Ab Initio, DFT and Semiempirical electronic structure package ---

                  #######################################################
                  #                        -***-                        #
                  #          Department of theory and spectroscopy      #
                  #               Directorship: Frank Neese             #
                  #        Max Planck Institute fuer Kohlenforschung    #
                  #                Kaiser Wilhelm Platz 1               #
                  #                 D-45470 Muelheim/Ruhr               #
                  #                      Germany                        #
                  #                                                     #
                  #                  All rights reserved                #
                  #                        -***-                        #
                  #######################################################


                         Program Version 4.2.0 -  RELEASE  -


 With contributions from (in alphabetic order):
   Daniel Aravena         : Magnetic Suceptibility
   Michael Atanasov       : Ab Initio Ligand Field Theory (pilot matlab implementation)
   Alexander A. Auer      : GIAO ZORA, VPT2
   Ute Becker             : Parallelization
   Giovanni Bistoni       : ED, misc. LED, open-shell LED, HFLED
   Martin Brehm           : Molecular dynamics
   Dmytro Bykov           : SCF Hessian
   Vijay G. Chilkuri      : MRCI spin determinant printing, contributions to CSF-ICE
   Dipayan Datta          : RHF DLPNO-CCSD density
   Achintya Kumar Dutta   : EOM-CC, STEOM-CC
   Dmitry Ganyushin       : Spin-Orbit,Spin-Spin,Magnetic field MRCI
   Miquel Garcia          : C-PCM Hessian, Gaussian charge scheme
   Yang Guo               : DLPNO-NEVPT2, CIM, IAO-localization
   Andreas Hansen         : Spin unrestricted coupled pair/coupled cluster methods
   Benjamin Helmich-Paris : CASSCF linear response (MC-RPA)
   Lee Huntington         : MR-EOM, pCC
   Robert Izsak           : Overlap fitted RIJCOSX, COSX-SCS-MP3, EOM
   Christian Kollmar      : KDIIS, OOCD, Brueckner-CCSD(T), CCSD density
   Simone Kossmann        : Meta GGA functionals, TD-DFT gradient, OOMP2, MP2 Hessian
   Martin Krupicka        : AUTO-CI
   Lucas Lang             : DCDCAS
   Dagmar Lenk            : GEPOL surface, SMD
   Dimitrios Liakos       : Extrapolation schemes; Compound Job, initial MDCI parallelization
   Dimitrios Manganas     : Further ROCIS development; embedding schemes
   Dimitrios Pantazis     : SARC Basis sets
   Taras Petrenko         : DFT Hessian,TD-DFT gradient, ASA, ECA, R-Raman, ABS, FL, XAS/XES, NRVS
   Peter Pinski           : DLPNO-MP2, DLPNO-MP2 Gradient
   Christoph Reimann      : Effective Core Potentials
   Marius Retegan         : Local ZFS, SOC
   Christoph Riplinger    : Optimizer, TS searches, QM/MM, DLPNO-CCSD(T), (RO)-DLPNO pert. Triples
   Tobias Risthaus        : Range-separated hybrids, TD-DFT gradient, RPA, STAB
   Michael Roemelt        : Original ROCIS implementation
   Masaaki Saitow         : Open-shell DLPNO-CCSD energy and density
   Barbara Sandhoefer     : DKH picture change effects
   Avijit Sen             : IP-ROCIS
   Kantharuban Sivalingam : CASSCF convergence, NEVPT2, FIC-MRCI
   Bernardo de Souza      : ESD, SOC TD-DFT
   Georgi Stoychev        : AutoAux, RI-MP2 NMR
   Willem Van den Heuvel  : Paramagnetic NMR
   Boris Wezisla          : Elementary symmetry handling
   Frank Wennmohs         : Technical directorship


 We gratefully acknowledge several colleagues who have allowed us to
 interface, adapt or use parts of their codes:
   Stefan Grimme, W. Hujo, H. Kruse,             : VdW corrections, initial TS optimization,
                  C. Bannwarth                     DFT functionals, gCP, sTDA/sTD-DF
   Ed Valeev, F. Pavosevic, A. Kumar             : LibInt (2-el integral package), F12 methods
   Garnet Chan, S. Sharma, J. Yang, R. Olivares  : DMRG
   Ulf Ekstrom                                   : XCFun DFT Library
   Mihaly Kallay                                 : mrcc  (arbitrary order and MRCC methods)
   Andreas Klamt, Michael Diedenhofen            : otool_cosmo (COSMO solvation model)
   Jiri Pittner, Ondrej Demel                    : Mk-CCSD
   Frank Weinhold                                : gennbo (NPA and NBO analysis)
   Christopher J. Cramer and Donald G. Truhlar   : smd solvation model
   Lars Goerigk                                  : TD-DFT with DH, B97 family of functionals
   V. Asgeirsson, H. Jonsson                     : NEB implementation
   FAccTs GmbH                                   : IRC, NEB, NEB-TS, Multilevel, MM, QM/MM, CI optimization
   S Lehtola, MJT Oliveira, MAL Marques          : LibXC Library


 Your calculation uses the libint2 library for the computation of 2-el integrals
 For citations please refer to: http://libint.valeyev.net

 Your ORCA version has been built with support for libXC version: 4.2.3
 For citations please refer to: https://tddft.org/programs/libxc/

 This ORCA versions uses:
   CBLAS   interface :  Fast vector & matrix operations
   LAPACKE interface :  Fast linear algebra routines
   SCALAPACK package :  Parallel linear algebra routines


----- Orbital basis set information -----
Your calculation utilizes the basis: cc-pVTZ 
       H, B-Ne : Obtained from the ccRepo (grant-hill.group.shef.ac.uk/ccrepo) Feb. 2017
                 T. H. Dunning, Jr., J. Chem. Phys. 90, 1007 (1989)
            He : Obtained from the ccRepo (grant-hill.group.shef.ac.uk/ccrepo) Feb. 2017
                 D. E. Woon, T. H. Dunning, Jr., J. Chem. Phys. 100, 2975 (1994)
  Li-Be, Na-Mg : Obtained from the ccRepo (grant-hill.group.shef.ac.uk/ccrepo) Feb. 2017
                 B. P. Prascher, D. E. Woon, K. A. Peterson, T. H. Dunning, Jr., A. K. Wilson, Theor. Chem. Acc. 128, 69 (2011)
         Al-Ar : Obtained from the ccRepo (grant-hill.group.shef.ac.uk/ccrepo) Feb. 2017
                 D. E. Woon, T. H. Dunning, Jr., J. Chem. Phys. 98, 1358 (1993)
            Ca : Obtained from the Peterson Research Group Website (tyr0.chem.wsu.edu/~kipeters) Feb. 2017
                 J. Koput, K. A. Peterson, J. Phys. Chem. 106, 9595 (2002)
         Sc-Zn : Obtained from the ccRepo (grant-hill.group.shef.ac.uk/ccrepo) Feb. 2017
                 N. B. Balabanov, K. A. Peterson, J. Chem. Phys. 123, 064107 (2005)
                 N. B. Balabanov, K. A. Peterson, J. Chem. Phys. 125, 074110 (2006)
         Ga-Kr : Obtained from the ccRepo (grant-hill.group.shef.ac.uk/ccrepo) Feb. 2017
                 A. K. Wilson, D. E. Woon, K. A. Peterson, T. H. Dunning, Jr., J. Chem. Phys. 110, 7667 (1999)
             Y : Obtained from the ccRepo (grant-hill.group.shef.ac.uk/ccrepo) Feb. 2017
                 K. A. Peterson, D. Figgen, M. Dolg, H. Stoll, J. Chem. Phys. 126, 124101 (2007)
        Ag, Au : Obtained from the Peterson Research Group Website (tyr0.chem.wsu.edu/~kipeters) Feb. 2017
                 K. A. Peterson, C. Puzzarini, Theor. Chem. Acc. 114, 283 (2005)

----- AuxC basis set information -----
Your calculation utilizes the auxiliary basis: cc-pVTZ/C 
  Obtained from the EMSL Basis Set Exchange (bse.pnl.gov) Feb. 2017
  H-He, B-F, Al-Ar, Ga-Kr : F. Weigend, A. Kohn, C. Hattig, J. Chem. Phys. 116, 3175 (2002)
             Li-Be, Na-Mg : C. Haettig, Phys. Chem. Chem. Phys. 7, 59 (2005)
                       Ne : C. Haettig, Phys. Chem. Chem. Phys. 7, 59 (2005)
                            F. Weigend, A. Kohn, C. Hattig, J. Chem. Phys. 116, 3175 (2002)
                    Sc-Zn : J. G. Hill, J. A. Platts, J. Chem. Phys. 128, 044104 (2008)

================================================================================
                                        WARNINGS
                       Please study these warnings very carefully!
================================================================================


WARNING: No MP2 level density has been requested!
         To caclulate MP2 level properties use
         %mp2 Density relaxed end
         or
         %mp2 Density unrelaxed end

WARNING: Post HF methods need fully converged wavefunctions
  ===> : Setting SCFConvForced true
         You can overwrite this default with %scf ConvForced false 


INFO   : the flag for use of LIBINT has been found!

================================================================================
                                       INPUT FILE
================================================================================
NAME = G2_CONFS/Conf590.orca
|  1> ! ri-mp2 cc-pvtz cc-pvtz/c TightSCF  NoKeepInts
|  2> 
|  3> %scf
|  4>   MaxCore 4096
|  5> end
|  6> *xyz  0  1
|  7>     C       15.7440342   13.7511156   14.9813226
|  8>     C       15.1595718   15.1524822   15.2616260
|  9>     O       15.8779222   15.9902010   16.2055268
| 10>     C       17.0784720   15.7425365   16.8138472
| 11>     O       17.5277659   14.6174343   16.9727440
| 12>     C       17.4976010   16.8543748   17.7310612
| 13>     C       17.2027229   18.1760316   17.5223640
| 14>     C       16.3214121   18.7767752   16.4452601
| 15>     N       17.8971166   19.1745548   18.2239815
| 16>     C       18.9415987   18.9759223   19.0868823
| 17>     S       19.7263150   20.2206669   19.8331551
| 18>     N       19.2883077   17.6656431   19.3181123
| 19>     C       18.6740226   16.5033790   18.6470995
| 20>     C       17.9161753   15.8380258   19.8966084
| 21>     C       18.0850283   14.4395372   20.1296818
| 22>     C       17.4342181   13.7532770   21.1866722
| 23>     C       16.5663276   14.4564095   22.0385528
| 24>     C       16.3561206   15.8239475   21.8101623
| 25>     O       15.5089755   16.5113698   22.6298086
| 26>     C       17.0111672   16.4941285   20.7533068
| 27>     H       16.7504073   13.8663064   14.5495587
| 28>     H       15.1348839   13.2311577   14.2322962
| 29>     H       15.8091940   13.1194068   15.8718596
| 30>     H       14.8900670   15.6645170   14.3352184
| 31>     H       14.2076810   14.9576422   15.7916407
| 32>     H       15.2858866   18.4861411   16.6395930
| 33>     H       16.5845561   18.4386174   15.4296075
| 34>     H       16.3500593   19.8771848   16.4238472
| 35>     H       17.6356428   20.1417004   18.0964434
| 36>     H       20.0788796   17.5284625   19.9406802
| 37>     H       19.2176443   15.6113294   18.4140533
| 38>     H       18.7299305   13.8456463   19.4815083
| 39>     H       17.5973980   12.6793604   21.3495332
| 40>     H       16.0615272   13.9442889   22.8558015
| 41>     H       15.1881802   15.8977752   23.3100860
| 42>     H       16.8101844   17.5446516   20.6244999
| 43> *
| 44> 
| 45>                          ****END OF INPUT****
================================================================================

                       ****************************
                       * Single Point Calculation *
                       ****************************

---------------------------------
CARTESIAN COORDINATES (ANGSTROEM)
---------------------------------
  C     15.744034   13.751116   14.981323
  C     15.159572   15.152482   15.261626
  O     15.877922   15.990201   16.205527
  C     17.078472   15.742536   16.813847
  O     17.527766   14.617434   16.972744
  C     17.497601   16.854375   17.731061
  C     17.202723   18.176032   17.522364
  C     16.321412   18.776775   16.445260
  N     17.897117   19.174555   18.223982
  C     18.941599   18.975922   19.086882
  S     19.726315   20.220667   19.833155
  N     19.288308   17.665643   19.318112
  C     18.674023   16.503379   18.647099
  C     17.916175   15.838026   19.896608
  C     18.085028   14.439537   20.129682
  C     17.434218   13.753277   21.186672
  C     16.566328   14.456409   22.038553
  C     16.356121   15.823947   21.810162
  O     15.508975   16.511370   22.629809
  C     17.011167   16.494128   20.753307
  H     16.750407   13.866306   14.549559
  H     15.134884   13.231158   14.232296
  H     15.809194   13.119407   15.871860
  H     14.890067   15.664517   14.335218
  H     14.207681   14.957642   15.791641
  H     15.285887   18.486141   16.639593
  H     16.584556   18.438617   15.429607
  H     16.350059   19.877185   16.423847
  H     17.635643   20.141700   18.096443
  H     20.078880   17.528462   19.940680
  H     19.217644   15.611329   18.414053
  H     18.729930   13.845646   19.481508
  H     17.597398   12.679360   21.349533
  H     16.061527   13.944289   22.855801
  H     15.188180   15.897775   23.310086
  H     16.810184   17.544652   20.624500

----------------------------
CARTESIAN COORDINATES (A.U.)
----------------------------
  NO LB      ZA    FRAG     MASS         X           Y           Z
   0 C     6.0000    0    12.011   29.751913   25.985843   28.310597
   1 C     6.0000    0    12.011   28.647439   28.634042   28.840293
   2 O     8.0000    0    15.999   30.004925   30.217101   30.624008
   3 C     6.0000    0    12.011   32.273635   29.749083   31.773566
   4 O     8.0000    0    15.999   33.122677   27.622948   32.073838
   5 C     6.0000    0    12.011   33.065674   31.850153   33.506850
   6 C     6.0000    0    12.011   32.508435   34.347722   33.112469
   7 C     6.0000    0    12.011   30.842999   35.482963   31.077038
   8 N     7.0000    0    14.007   33.820649   36.234657   34.438334
   9 C     6.0000    0    12.011   35.794434   35.859296   36.068980
  10 S    16.0000    0    32.060   37.277333   38.211523   37.479232
  11 N     7.0000    0    14.007   36.449619   33.383227   36.505942
  12 C     6.0000    0    12.011   35.288789   31.186867   35.237911
  13 C     6.0000    0    12.011   33.856665   29.929531   37.599141
  14 C     6.0000    0    12.011   34.175751   27.286771   38.039586
  15 C     6.0000    0    12.011   32.945898   25.989927   40.037008
  16 C     6.0000    0    12.011   31.305822   27.318655   41.646829
  17 C     6.0000    0    12.011   30.908589   29.902927   41.215234
  18 O     8.0000    0    15.999   29.307716   31.201967   42.764141
  19 C     6.0000    0    12.011   32.146447   31.169386   39.218066
  20 H     1.0000    0     1.008   31.653682   26.203522   27.494681
  21 H     1.0000    0     1.008   28.600786   25.003264   26.895142
  22 H     1.0000    0     1.008   29.875047   24.792086   29.993468
  23 H     1.0000    0     1.008   28.138149   29.601647   27.089637
  24 H     1.0000    0     1.008   26.848626   28.265847   29.841876
  25 H     1.0000    0     1.008   28.886139   34.933744   31.444274
  26 H     1.0000    0     1.008   31.340269   34.843937   29.157733
  27 H     1.0000    0     1.008   30.897134   37.562436   31.036573
  28 H     1.0000    0     1.008   33.326535   38.062298   34.197322
  29 H     1.0000    0     1.008   37.943584   33.123994   37.682425
  30 H     1.0000    0     1.008   36.316085   29.501137   34.797518
  31 H     1.0000    0     1.008   35.394439   26.164480   36.814715
  32 H     1.0000    0     1.008   33.254263   23.960519   40.344771
  33 H     1.0000    0     1.008   30.351888   26.350887   43.191205
  34 H     1.0000    0     1.008   28.701501   30.042441   44.049679
  35 H     1.0000    0     1.008   31.766645   33.154587   38.974656

--------------------------------
INTERNAL COORDINATES (ANGSTROEM)
--------------------------------
 C      0   0   0     0.000000000000     0.00000000     0.00000000
 C      1   0   0     1.544018989735     0.00000000     0.00000000
 O      2   1   0     1.452153161789   117.02194847     0.00000000
 C      3   2   1     1.368470400080   128.20797920     5.59495925
 O      4   3   2     1.221870763245   123.16440388   336.47937868
 C      4   3   2     1.501044651496   112.49090822   180.00000000
 C      6   4   3     1.370140252724   124.14789370   327.62962763
 C      7   6   4     1.515834559090   127.99907954     6.01742255
 N      7   6   4     1.404100533382   120.22759644   195.93557678
 C      9   7   6     1.369304757137   126.08360901     3.98682533
 S     10   9   7     1.649876323466   122.57449721   178.12764389
 N     10   9   7     1.374956735877   115.88450687   356.98494838
 C     12  10   9     1.475961449359   124.68172404     3.87051094
 C     13  12  10     1.605708535833    99.72698583   247.46740558
 C     14  13  12     1.427797222902   118.49444611   229.09068043
 C     15  14  13     1.418356684413   122.77189667   181.51022925
 C     16  15  14     1.404752572236   119.55305172     1.04328985
 C     17  16  15     1.402322853263   118.81397623     0.62755079
 O     18  17  16     1.364560110840   119.11108925   179.66805380
 C     14  13  12     1.408347458043   125.70476427    53.63473339
 H      1   2   3     1.101124789545   108.79591040   298.62162006
 H      1   2   3     1.096567760633   110.12606402   181.85299862
 H      1   2   3     1.093781493673   113.51122307    60.13590135
 H      2   1   3     1.092265313453   111.40116324   133.28914709
 H      2   1   3     1.106785572250   104.63833048   247.44896488
 H      8   7   6     1.092953117593   108.61003863    68.29863939
 H      8   7   6     1.102336457858   113.22404724   308.38961948
 H      8   7   6     1.100990673042   113.25317808   187.12856542
 H      9   7   6     1.009953031897   119.33184774   183.22807447
 H     12  10   9     1.015585169346   115.34735722   178.50781815
 H     13  12  10     1.070321247526   122.94986677   146.61702258
 H     15  14  13     1.090290848705   120.42651829     1.11693476
 H     16  15  14     1.098384381189   121.02365898   180.98823009
 H     17  16  15     1.088570801756   120.41773262   180.16125657
 H     19  18  17     0.970662298950   107.92028694     2.05697926
 H     20  14  13     1.077304082893   120.09528975   357.15467147

---------------------------
INTERNAL COORDINATES (A.U.)
---------------------------
 C      0   0   0     0.000000000000     0.00000000     0.00000000
 C      1   0   0     2.917773036172     0.00000000     0.00000000
 O      2   1   0     2.744171780289   117.02194847     0.00000000
 C      3   2   1     2.586034278530   128.20797920     5.59495925
 O      4   3   2     2.309001113578   123.16440388   336.47937868
 C      4   3   2     2.836563306114   112.49090822   180.00000000
 C      6   4   3     2.589189842709   124.14789370   327.62962763
 C      7   6   4     2.864512181014   127.99907954     6.01742255
 N      7   6   4     2.653365472585   120.22759644   195.93557678
 C      9   7   6     2.587610984864   126.08360901     3.98682533
 S     10   9   7     3.117814406192   122.57449721   178.12764389
 N     10   9   7     2.598291676798   115.88450687   356.98494838
 C     12  10   9     2.789162923514   124.68172404     3.87051094
 C     13  12  10     3.034349383624    99.72698583   247.46740558
 C     14  13  12     2.698145726058   118.49444611   229.09068043
 C     15  14  13     2.680305693758   122.77189667   181.51022925
 C     16  15  14     2.654597647447   119.55305172     1.04328985
 C     17  16  15     2.650006144006   118.81397623     0.62755079
 O     18  17  16     2.578644902760   119.11108925   179.66805380
 C     14  13  12     2.661390997105   125.70476427    53.63473339
 H      1   2   3     2.080824291513   108.79591040   298.62162006
 H      1   2   3     2.072212754883   110.12606402   181.85299862
 H      1   2   3     2.066947473394   113.51122307    60.13590135
 H      2   1   3     2.064082308007   111.40116324   133.28914709
 H      2   1   3     2.091521620528   104.63833048   247.44896488
 H      8   7   6     2.065382069466   108.61003863    68.29863939
 H      8   7   6     2.083114012789   113.22404724   308.38961948
 H      8   7   6     2.080570848052   113.25317808   187.12856542
 H      9   7   6     1.908534638408   119.33184774   183.22807447
 H     12  10   9     1.919177835737   115.34735722   178.50781815
 H     13  12  10     2.022614033141   122.94986677   146.61702258
 H     15  14  13     2.060351110373   120.42651829     1.11693476
 H     16  15  14     2.075645670224   121.02365898   180.98823009
 H     17  16  15     2.057100692702   120.41773262   180.16125657
 H     19  18  17     1.834285913537   107.92028694     2.05697926
 H     20  14  13     2.035809679622   120.09528975   357.15467147

---------------------
BASIS SET INFORMATION
---------------------
There are 5 groups of distinct atoms

 Group   1 Type C   : 18s5p2d1f contracted to 4s3p2d1f pattern {8811/311/11/1}
 Group   2 Type O   : 18s5p2d1f contracted to 4s3p2d1f pattern {8811/311/11/1}
 Group   3 Type N   : 18s5p2d1f contracted to 4s3p2d1f pattern {8811/311/11/1}
 Group   4 Type S   : 41s16p2d1f contracted to 5s4p2d1f pattern {13131311/7711/11/1}
 Group   5 Type H   : 5s2p1d contracted to 3s2p1d pattern {311/11/1}

Atom   0C    basis set group =>   1
Atom   1C    basis set group =>   1
Atom   2O    basis set group =>   2
Atom   3C    basis set group =>   1
Atom   4O    basis set group =>   2
Atom   5C    basis set group =>   1
Atom   6C    basis set group =>   1
Atom   7C    basis set group =>   1
Atom   8N    basis set group =>   3
Atom   9C    basis set group =>   1
Atom  10S    basis set group =>   4
Atom  11N    basis set group =>   3
Atom  12C    basis set group =>   1
Atom  13C    basis set group =>   1
Atom  14C    basis set group =>   1
Atom  15C    basis set group =>   1
Atom  16C    basis set group =>   1
Atom  17C    basis set group =>   1
Atom  18O    basis set group =>   2
Atom  19C    basis set group =>   1
Atom  20H    basis set group =>   5
Atom  21H    basis set group =>   5
Atom  22H    basis set group =>   5
Atom  23H    basis set group =>   5
Atom  24H    basis set group =>   5
Atom  25H    basis set group =>   5
Atom  26H    basis set group =>   5
Atom  27H    basis set group =>   5
Atom  28H    basis set group =>   5
Atom  29H    basis set group =>   5
Atom  30H    basis set group =>   5
Atom  31H    basis set group =>   5
Atom  32H    basis set group =>   5
Atom  33H    basis set group =>   5
Atom  34H    basis set group =>   5
Atom  35H    basis set group =>   5
---------------------------------
AUXILIARY/C BASIS SET INFORMATION
---------------------------------
There are 5 groups of distinct atoms

 Group   1 Type C   : 8s6p5d3f1g contracted to 8s6p5d3f1g pattern {11111111/111111/11111/111/1}
 Group   2 Type O   : 8s6p5d3f1g contracted to 8s6p5d3f1g pattern {11111111/111111/11111/111/1}
 Group   3 Type N   : 8s6p5d3f1g contracted to 8s6p5d3f1g pattern {11111111/111111/11111/111/1}
 Group   4 Type S   : 10s8p7d5f2g contracted to 10s8p7d5f2g pattern {1111111111/11111111/1111111/11111/11}
 Group   5 Type H   : 4s3p2d1f contracted to 4s3p2d1f pattern {1111/111/11/1}

Atom   0C    basis set group =>   1
Atom   1C    basis set group =>   1
Atom   2O    basis set group =>   2
Atom   3C    basis set group =>   1
Atom   4O    basis set group =>   2
Atom   5C    basis set group =>   1
Atom   6C    basis set group =>   1
Atom   7C    basis set group =>   1
Atom   8N    basis set group =>   3
Atom   9C    basis set group =>   1
Atom  10S    basis set group =>   4
Atom  11N    basis set group =>   3
Atom  12C    basis set group =>   1
Atom  13C    basis set group =>   1
Atom  14C    basis set group =>   1
Atom  15C    basis set group =>   1
Atom  16C    basis set group =>   1
Atom  17C    basis set group =>   1
Atom  18O    basis set group =>   2
Atom  19C    basis set group =>   1
Atom  20H    basis set group =>   5
Atom  21H    basis set group =>   5
Atom  22H    basis set group =>   5
Atom  23H    basis set group =>   5
Atom  24H    basis set group =>   5
Atom  25H    basis set group =>   5
Atom  26H    basis set group =>   5
Atom  27H    basis set group =>   5
Atom  28H    basis set group =>   5
Atom  29H    basis set group =>   5
Atom  30H    basis set group =>   5
Atom  31H    basis set group =>   5
Atom  32H    basis set group =>   5
Atom  33H    basis set group =>   5
Atom  34H    basis set group =>   5
Atom  35H    basis set group =>   5
------------------------------------------------------------------------------
                           ORCA GTO INTEGRAL CALCULATION
------------------------------------------------------------------------------

                         BASIS SET STATISTICS AND STARTUP INFO

 # of primitive gaussian shells          ...  682
 # of primitive gaussian functions       ... 1312
 # of contracted shells                  ...  298
 # of contracted basis functions         ...  828
 Highest angular momentum                ...    3
 Maximum contraction depth               ...   13
 Integral package used                   ... LIBINT
 Integral threshhold            Thresh   ...  2.500e-11
 Primitive cut-off              TCut     ...  2.500e-12


------------------------------ INTEGRAL EVALUATION ----------------------------


 * One electron integrals 
 Pre-screening matrix                    ... done
 Shell pair data                         ... done (   0.013 sec)

-------------------------------------------------------------------------------
                                 ORCA SCF
-------------------------------------------------------------------------------

------------
SCF SETTINGS
------------
Hamiltonian:
 Ab initio Hamiltonian  Method          .... Hartree-Fock(GTOs)


General Settings:
 Integral files         IntName         .... G2_CONFS/Conf590.orca
 Hartree-Fock type      HFTyp           .... RHF
 Total Charge           Charge          ....    0
 Multiplicity           Mult            ....    1
 Number of Electrons    NEL             ....  154
 Basis Dimension        Dim             ....  828
 Nuclear Repulsion      ENuc            ....   1684.5978581711 Eh

Convergence Acceleration:
 DIIS                   CNVDIIS         .... on
   Start iteration      DIISMaxIt       ....    12
   Startup error        DIISStart       ....  0.200000
   # of expansion vecs  DIISMaxEq       ....     5
   Bias factor          DIISBfac        ....   1.050
   Max. coefficient     DIISMaxC        ....  10.000
 Newton-Raphson         CNVNR           .... off
 SOSCF                  CNVSOSCF        .... on
   Start iteration      SOSCFMaxIt      ....   150
   Startup grad/error   SOSCFStart      ....  0.003300
 Level Shifting         CNVShift        .... on
   Level shift para.    LevelShift      ....    0.2500
   Turn off err/grad.   ShiftErr        ....    0.0010
 Zerner damping         CNVZerner       .... off
 Static damping         CNVDamp         .... on
   Fraction old density DampFac         ....    0.7000
   Max. Damping (<1)    DampMax         ....    0.9800
   Min. Damping (>=0)   DampMin         ....    0.0000
   Turn off err/grad.   DampErr         ....    0.1000
 Fernandez-Rico         CNVRico         .... off

SCF Procedure:
 Maximum # iterations   MaxIter         ....   125
 SCF integral mode      SCFMode         .... Direct
   Integral package                     .... LIBINT
 Reset frequency        DirectResetFreq ....    20
 Integral Threshold     Thresh          ....  2.500e-11 Eh
 Primitive CutOff       TCut            ....  2.500e-12 Eh

Convergence Tolerance:
 Convergence Check Mode ConvCheckMode   .... Total+1el-Energy
 Convergence forced     ConvForced      .... 1
 Energy Change          TolE            ....  1.000e-08 Eh
 1-El. energy change                    ....  1.000e-05 Eh
 Orbital Gradient       TolG            ....  1.000e-05
 Orbital Rotation angle TolX            ....  1.000e-05
 DIIS Error             TolErr          ....  5.000e-07


Diagonalization of the overlap matrix:
Smallest eigenvalue                        ... 3.509e-05
Time for diagonalization                   ...    0.112 sec
Threshold for overlap eigenvalues          ... 1.000e-08
Number of eigenvalues below threshold      ... 0
Time for construction of square roots      ...    0.064 sec
Total time needed                          ...    0.178 sec

-------------------
DFT GRID GENERATION
-------------------

General Integration Accuracy     IntAcc      ...  4.340
Radial Grid Type                 RadialGrid  ... Gauss-Chebyshev
Angular Grid (max. acc.)         AngularGrid ... Lebedev-110
Angular grid pruning method      GridPruning ... 3 (G Style)
Weight generation scheme         WeightScheme... Becke
Basis function cutoff            BFCut       ...    1.0000e-11
Integration weight cutoff        WCut        ...    1.0000e-14
Grids for H and He will be reduced by one unit

# of grid points (after initial pruning)     ...  46246 (   0.0 sec)
# of grid points (after weights+screening)   ...  41391 (   0.3 sec)
nearest neighbour list constructed           ...    0.0 sec
Grid point re-assignment to atoms done       ...    0.0 sec
Grid point division into batches done        ...    0.0 sec
Reduced shell lists constructed in    0.9 sec

Total number of grid points                  ...    41391
Total number of batches                      ...      666
Average number of points per batch           ...       62
Average number of grid points per atom       ...     1150
Average number of shells per batch           ...   143.28 (48.08%)
Average number of basis functions per batch  ...   364.22 (43.99%)
Average number of large shells per batch     ...    91.69 (63.99%)
Average number of large basis fcns per batch ...   237.25 (65.14%)
Maximum spatial batch extension              ...  20.59, 20.34, 19.14 au
Average spatial batch extension              ...   3.59,  3.22,  3.26 au

Time for grid setup =    1.237 sec

------------------------------
INITIAL GUESS: MODEL POTENTIAL
------------------------------
Loading Hartree-Fock densities                     ... done
Calculating cut-offs                               ... done
Setting up the integral package                    ... done
Initializing the effective Hamiltonian             ... done
Starting the Coulomb interaction                   ... done (   3.0 sec)
Reading the grid                                   ... done
Mapping shells                                     ... done
Starting the XC term evaluation                    ... done (   1.2 sec)
Transforming the Hamiltonian                       ... done (   0.0 sec)
Diagonalizing the Hamiltonian                      ... done (   0.1 sec)
Back transforming the eigenvectors                 ... done (   0.0 sec)
Now organizing SCF variables                       ... done
                      ------------------
                      INITIAL GUESS DONE (   5.7 sec)
                      ------------------
--------------
SCF ITERATIONS
--------------
ITER       Energy         Delta-E        Max-DP      RMS-DP      [F,P]     Damp
               ***  Starting incremental Fock matrix formation  ***
  0  -1269.9476013444   0.000000000000 0.04941287  0.00043489  0.3111804 0.7000
  1  -1270.2164107887  -0.268809444304 0.03613973  0.00034947  0.1807930 0.7000
                               ***Turning on DIIS***
  2  -1270.3835566017  -0.167145813013 0.02587163  0.00023497  0.1098069 0.7000
  3  -1272.5176534071  -2.134096805413 0.06317631  0.00051057  0.0830093 0.0000
  4  -1270.6956397369   1.822013670225 0.00706678  0.00009447  0.0071510 0.0000
  5  -1270.7576842637  -0.062044526736 0.00400701  0.00004936  0.0039294 0.0000
                      *** Initiating the SOSCF procedure ***
                           *** Shutting down DIIS ***
                      *** Re-Reading the Fockian *** 
                      *** Removing any level shift *** 
ITER      Energy       Delta-E        Grad      Rot      Max-DP    RMS-DP
  6  -1270.73223320   0.0254510636  0.001387  0.001387  0.001891  0.000026
               *** Restarting incremental Fock matrix formation ***
  7  -1270.74694335  -0.0147101527  0.000741  0.001949  0.001229  0.000016
  8  -1270.74699437  -0.0000510180  0.000380  0.002389  0.001371  0.000017
  9  -1270.74701383  -0.0000194638  0.000152  0.000398  0.000362  0.000004
 10  -1270.74701637  -0.0000025307  0.000046  0.000126  0.000120  0.000001
 11  -1270.74701662  -0.0000002544  0.000023  0.000135  0.000079  0.000001
 12  -1270.74701669  -0.0000000740  0.000010  0.000038  0.000027  0.000000
 13  -1270.74701670  -0.0000000040  0.000003  0.000008  0.000008  0.000000
                  ***Gradient check signals convergence***
              ***Rediagonalizing the Fockian in SOSCF/NRSCF***

               *****************************************************
               *                     SUCCESS                       *
               *           SCF CONVERGED AFTER  14 CYCLES          *
               *****************************************************


----------------
TOTAL SCF ENERGY
----------------

Total Energy       :        -1270.74701669 Eh          -34578.78428 eV

Components:
Nuclear Repulsion  :         1684.59785817 Eh           45840.23819 eV
Electronic Energy  :        -2955.34487486 Eh          -80419.02247 eV
One Electron Energy:        -5090.85161949 Eh         -138529.11525 eV
Two Electron Energy:         2135.50674462 Eh           58110.09278 eV

Virial components:
Potential Energy   :        -2539.39991763 Eh          -69100.58476 eV
Kinetic Energy     :         1268.65290094 Eh           34521.80049 eV
Virial Ratio       :            2.00165066


---------------
SCF CONVERGENCE
---------------

  Last Energy change         ...    7.8512e-09  Tolerance :   1.0000e-08
  Last MAX-Density change    ...    2.3308e-06  Tolerance :   1.0000e-07
  Last RMS-Density change    ...    3.4059e-08  Tolerance :   5.0000e-09
  Last Orbital Gradient      ...    9.9900e-07  Tolerance :   1.0000e-05
  Last Orbital Rotation      ...    3.0422e-06  Tolerance :   1.0000e-05

             **** THE GBW FILE WAS UPDATED (G2_CONFS/Conf590.orca.gbw) ****
             **** DENSITY FILE WAS UPDATED (G2_CONFS/Conf590.orca.scfp) ****
             **** ENERGY FILE WAS UPDATED (G2_CONFS/Conf590.orca.en.tmp) ****
             **** THE GBW FILE WAS UPDATED (G2_CONFS/Conf590.orca.gbw) ****
             **** DENSITY FILE WAS UPDATED (G2_CONFS/Conf590.orca.scfp) ****
----------------
ORBITAL ENERGIES
----------------

  NO   OCC          E(Eh)            E(eV) 
   0   2.0000     -91.890859     -2500.4774 
   1   2.0000     -20.602889      -560.6331 
   2   2.0000     -20.585211      -560.1521 
   3   2.0000     -20.544450      -559.0429 
   4   2.0000     -15.630792      -425.3355 
   5   2.0000     -15.611497      -424.8104 
   6   2.0000     -11.399724      -310.2023 
   7   2.0000     -11.385650      -309.8193 
   8   2.0000     -11.340825      -308.5995 
   9   2.0000     -11.311328      -307.7969 
  10   2.0000     -11.307477      -307.6921 
  11   2.0000     -11.303586      -307.5862 
  12   2.0000     -11.265401      -306.5471 
  13   2.0000     -11.261779      -306.4486 
  14   2.0000     -11.250991      -306.1550 
  15   2.0000     -11.243786      -305.9590 
  16   2.0000     -11.230616      -305.6006 
  17   2.0000     -11.227490      -305.5155 
  18   2.0000     -11.226889      -305.4992 
  19   2.0000     -11.225942      -305.4734 
  20   2.0000      -8.895977      -242.0718 
  21   2.0000      -6.577559      -178.9845 
  22   2.0000      -6.575536      -178.9294 
  23   2.0000      -6.574943      -178.9133 
  24   2.0000      -1.447794       -39.3965 
  25   2.0000      -1.401197       -38.1285 
  26   2.0000      -1.356518       -36.9127 
  27   2.0000      -1.339783       -36.4573 
  28   2.0000      -1.236883       -33.6573 
  29   2.0000      -1.142513       -31.0894 
  30   2.0000      -1.116559       -30.3831 
  31   2.0000      -1.040497       -28.3134 
  32   2.0000      -1.033026       -28.1101 
  33   2.0000      -1.000694       -27.2303 
  34   2.0000      -0.992036       -26.9947 
  35   2.0000      -0.983684       -26.7674 
  36   2.0000      -0.920893       -25.0588 
  37   2.0000      -0.899109       -24.4660 
  38   2.0000      -0.850384       -23.1401 
  39   2.0000      -0.828320       -22.5397 
  40   2.0000      -0.819402       -22.2971 
  41   2.0000      -0.814242       -22.1566 
  42   2.0000      -0.743209       -20.2237 
  43   2.0000      -0.727536       -19.7973 
  44   2.0000      -0.712619       -19.3913 
  45   2.0000      -0.693859       -18.8809 
  46   2.0000      -0.680849       -18.5268 
  47   2.0000      -0.677817       -18.4443 
  48   2.0000      -0.673235       -18.3197 
  49   2.0000      -0.666552       -18.1378 
  50   2.0000      -0.648437       -17.6449 
  51   2.0000      -0.642042       -17.4709 
  52   2.0000      -0.633241       -17.2314 
  53   2.0000      -0.602054       -16.3827 
  54   2.0000      -0.595069       -16.1926 
  55   2.0000      -0.591332       -16.0910 
  56   2.0000      -0.587533       -15.9876 
  57   2.0000      -0.584823       -15.9138 
  58   2.0000      -0.570505       -15.5242 
  59   2.0000      -0.565311       -15.3829 
  60   2.0000      -0.551586       -15.0094 
  61   2.0000      -0.543726       -14.7955 
  62   2.0000      -0.540288       -14.7020 
  63   2.0000      -0.525084       -14.2883 
  64   2.0000      -0.513327       -13.9683 
  65   2.0000      -0.505137       -13.7455 
  66   2.0000      -0.498350       -13.5608 
  67   2.0000      -0.490035       -13.3345 
  68   2.0000      -0.476232       -12.9589 
  69   2.0000      -0.457787       -12.4570 
  70   2.0000      -0.448810       -12.2127 
  71   2.0000      -0.446477       -12.1492 
  72   2.0000      -0.346707        -9.4344 
  73   2.0000      -0.339057        -9.2262 
  74   2.0000      -0.328813        -8.9475 
  75   2.0000      -0.312429        -8.5016 
  76   2.0000      -0.304449        -8.2845 
  77   0.0000       0.068626         1.8674 
  78   0.0000       0.118571         3.2265 
  79   0.0000       0.120202         3.2709 
  80   0.0000       0.137820         3.7503 
  81   0.0000       0.140455         3.8220 
  82   0.0000       0.148187         4.0324 
  83   0.0000       0.154429         4.2022 
  84   0.0000       0.160198         4.3592 
  85   0.0000       0.165658         4.5078 
  86   0.0000       0.169031         4.5996 
  87   0.0000       0.181286         4.9330 
  88   0.0000       0.185628         5.0512 
  89   0.0000       0.196885         5.3575 
  90   0.0000       0.200111         5.4453 
  91   0.0000       0.206705         5.6247 
  92   0.0000       0.211372         5.7517 
  93   0.0000       0.220642         6.0040 
  94   0.0000       0.226418         6.1612 
  95   0.0000       0.236287         6.4297 
  96   0.0000       0.243150         6.6164 
  97   0.0000       0.245134         6.6704 
  98   0.0000       0.249320         6.7843 
  99   0.0000       0.262877         7.1532 
 100   0.0000       0.278657         7.5826 
 101   0.0000       0.296343         8.0639 
 102   0.0000       0.315682         8.5901 
 103   0.0000       0.323585         8.8052 
 104   0.0000       0.326102         8.8737 
 105   0.0000       0.332831         9.0568 
 106   0.0000       0.338396         9.2082 
 107   0.0000       0.358202         9.7472 
 108   0.0000       0.362768         9.8714 
 109   0.0000       0.366839         9.9822 
 110   0.0000       0.372332        10.1317 
 111   0.0000       0.374687        10.1958 
 112   0.0000       0.386055        10.5051 
 113   0.0000       0.398010        10.8304 
 114   0.0000       0.401536        10.9263 
 115   0.0000       0.408778        11.1234 
 116   0.0000       0.414657        11.2834 
 117   0.0000       0.429337        11.6829 
 118   0.0000       0.430717        11.7204 
 119   0.0000       0.435248        11.8437 
 120   0.0000       0.441125        12.0036 
 121   0.0000       0.449876        12.2418 
 122   0.0000       0.454883        12.3780 
 123   0.0000       0.461141        12.5483 
 124   0.0000       0.462048        12.5730 
 125   0.0000       0.466175        12.6853 
 126   0.0000       0.476971        12.9790 
 127   0.0000       0.483448        13.1553 
 128   0.0000       0.489157        13.3106 
 129   0.0000       0.496373        13.5070 
 130   0.0000       0.502439        13.6721 
 131   0.0000       0.508862        13.8468 
 132   0.0000       0.511228        13.9112 
 133   0.0000       0.516597        14.0573 
 134   0.0000       0.523308        14.2399 
 135   0.0000       0.526217        14.3191 
 136   0.0000       0.537209        14.6182 
 137   0.0000       0.538532        14.6542 
 138   0.0000       0.545902        14.8547 
 139   0.0000       0.548923        14.9370 
 140   0.0000       0.552052        15.0221 
 141   0.0000       0.558597        15.2002 
 142   0.0000       0.563769        15.3409 
 143   0.0000       0.567802        15.4507 
 144   0.0000       0.573445        15.6042 
 145   0.0000       0.580106        15.7855 
 146   0.0000       0.586771        15.9668 
 147   0.0000       0.587601        15.9894 
 148   0.0000       0.595991        16.2177 
 149   0.0000       0.599832        16.3222 
 150   0.0000       0.602386        16.3918 
 151   0.0000       0.604951        16.4616 
 152   0.0000       0.607232        16.5236 
 153   0.0000       0.609244        16.5784 
 154   0.0000       0.622756        16.9461 
 155   0.0000       0.625499        17.0207 
 156   0.0000       0.629871        17.1397 
 157   0.0000       0.631716        17.1899 
 158   0.0000       0.635172        17.2839 
 159   0.0000       0.639342        17.3974 
 160   0.0000       0.644998        17.5513 
 161   0.0000       0.650639        17.7048 
 162   0.0000       0.654519        17.8104 
 163   0.0000       0.663055        18.0426 
 164   0.0000       0.666435        18.1346 
 165   0.0000       0.666820        18.1451 
 166   0.0000       0.674629        18.3576 
 167   0.0000       0.682440        18.5701 
 168   0.0000       0.684563        18.6279 
 169   0.0000       0.689632        18.7658 
 170   0.0000       0.699888        19.0449 
 171   0.0000       0.705728        19.2038 
 172   0.0000       0.711787        19.3687 
 173   0.0000       0.714398        19.4398 
 174   0.0000       0.724307        19.7094 
 175   0.0000       0.732063        19.9205 
 176   0.0000       0.734110        19.9761 
 177   0.0000       0.739698        20.1282 
 178   0.0000       0.748345        20.3635 
 179   0.0000       0.752233        20.4693 
 180   0.0000       0.760229        20.6869 
 181   0.0000       0.767750        20.8915 
 182   0.0000       0.771319        20.9887 
 183   0.0000       0.776947        21.1418 
 184   0.0000       0.802290        21.8314 
 185   0.0000       0.809557        22.0292 
 186   0.0000       0.817520        22.2458 
 187   0.0000       0.825796        22.4711 
 188   0.0000       0.828488        22.5443 
 189   0.0000       0.831400        22.6235 
 190   0.0000       0.843119        22.9424 
 191   0.0000       0.849528        23.1168 
 192   0.0000       0.858350        23.3569 
 193   0.0000       0.866674        23.5834 
 194   0.0000       0.874815        23.8049 
 195   0.0000       0.880633        23.9633 
 196   0.0000       0.891534        24.2599 
 197   0.0000       0.896774        24.4024 
 198   0.0000       0.899431        24.4748 
 199   0.0000       0.906370        24.6636 
 200   0.0000       0.912246        24.8235 
 201   0.0000       0.915612        24.9151 
 202   0.0000       0.923017        25.1166 
 203   0.0000       0.932542        25.3758 
 204   0.0000       0.938287        25.5321 
 205   0.0000       0.946555        25.7571 
 206   0.0000       0.952310        25.9137 
 207   0.0000       0.960982        26.1497 
 208   0.0000       0.970190        26.4002 
 209   0.0000       0.976839        26.5811 
 210   0.0000       0.978923        26.6379 
 211   0.0000       0.983280        26.7564 
 212   0.0000       0.993771        27.0419 
 213   0.0000       1.000499        27.2250 
 214   0.0000       1.004495        27.3337 
 215   0.0000       1.010487        27.4967 
 216   0.0000       1.018119        27.7044 
 217   0.0000       1.029246        28.0072 
 218   0.0000       1.033194        28.1146 
 219   0.0000       1.043033        28.3824 
 220   0.0000       1.047768        28.5112 
 221   0.0000       1.062629        28.9156 
 222   0.0000       1.071367        29.1534 
 223   0.0000       1.083995        29.4970 
 224   0.0000       1.087535        29.5933 
 225   0.0000       1.097635        29.8682 
 226   0.0000       1.101405        29.9708 
 227   0.0000       1.104735        30.0614 
 228   0.0000       1.117743        30.4153 
 229   0.0000       1.126990        30.6670 
 230   0.0000       1.131517        30.7902 
 231   0.0000       1.135527        30.8993 
 232   0.0000       1.141962        31.0744 
 233   0.0000       1.151309        31.3287 
 234   0.0000       1.160755        31.5858 
 235   0.0000       1.161387        31.6029 
 236   0.0000       1.172949        31.9176 
 237   0.0000       1.177567        32.0432 
 238   0.0000       1.181640        32.1541 
 239   0.0000       1.192015        32.4364 
 240   0.0000       1.193865        32.4867 
 241   0.0000       1.200290        32.6615 
 242   0.0000       1.210915        32.9507 
 243   0.0000       1.214700        33.0537 
 244   0.0000       1.222006        33.2525 
 245   0.0000       1.228453        33.4279 
 246   0.0000       1.231989        33.5241 
 247   0.0000       1.240392        33.7528 
 248   0.0000       1.242651        33.8142 
 249   0.0000       1.255505        34.1640 
 250   0.0000       1.262983        34.3675 
 251   0.0000       1.268702        34.5231 
 252   0.0000       1.271422        34.5972 
 253   0.0000       1.286446        35.0060 
 254   0.0000       1.292067        35.1589 
 255   0.0000       1.296283        35.2737 
 256   0.0000       1.304254        35.4905 
 257   0.0000       1.309021        35.6203 
 258   0.0000       1.313552        35.7436 
 259   0.0000       1.332858        36.2689 
 260   0.0000       1.342218        36.5236 
 261   0.0000       1.349591        36.7242 
 262   0.0000       1.357401        36.9368 
 263   0.0000       1.368707        37.2444 
 264   0.0000       1.372354        37.3437 
 265   0.0000       1.380831        37.5743 
 266   0.0000       1.381549        37.5939 
 267   0.0000       1.394637        37.9500 
 268   0.0000       1.407130        38.2900 
 269   0.0000       1.409869        38.3645 
 270   0.0000       1.420630        38.6573 
 271   0.0000       1.431873        38.9632 
 272   0.0000       1.438607        39.1465 
 273   0.0000       1.439623        39.1741 
 274   0.0000       1.448512        39.4160 
 275   0.0000       1.458112        39.6772 
 276   0.0000       1.458483        39.6873 
 277   0.0000       1.470450        40.0130 
 278   0.0000       1.473505        40.0961 
 279   0.0000       1.481981        40.3268 
 280   0.0000       1.495201        40.6865 
 281   0.0000       1.497344        40.7448 
 282   0.0000       1.503792        40.9203 
 283   0.0000       1.513886        41.1949 
 284   0.0000       1.517391        41.2903 
 285   0.0000       1.526430        41.5363 
 286   0.0000       1.533726        41.7348 
 287   0.0000       1.543347        41.9966 
 288   0.0000       1.544270        42.0217 
 289   0.0000       1.551236        42.2113 
 290   0.0000       1.556187        42.3460 
 291   0.0000       1.565824        42.6082 
 292   0.0000       1.570217        42.7278 
 293   0.0000       1.577891        42.9366 
 294   0.0000       1.584646        43.1204 
 295   0.0000       1.587150        43.1885 
 296   0.0000       1.605449        43.6865 
 297   0.0000       1.609489        43.7964 
 298   0.0000       1.614968        43.9455 
 299   0.0000       1.628263        44.3073 
 300   0.0000       1.634616        44.4802 
 301   0.0000       1.641551        44.6689 
 302   0.0000       1.647751        44.8376 
 303   0.0000       1.655115        45.0380 
 304   0.0000       1.662276        45.2328 
 305   0.0000       1.663280        45.2601 
 306   0.0000       1.672068        45.4993 
 307   0.0000       1.681852        45.7655 
 308   0.0000       1.691689        46.0332 
 309   0.0000       1.693814        46.0910 
 310   0.0000       1.711201        46.5641 
 311   0.0000       1.717236        46.7284 
 312   0.0000       1.724149        46.9165 
 313   0.0000       1.735021        47.2123 
 314   0.0000       1.744204        47.4622 
 315   0.0000       1.746238        47.5175 
 316   0.0000       1.751953        47.6731 
 317   0.0000       1.768920        48.1348 
 318   0.0000       1.778279        48.3894 
 319   0.0000       1.787984        48.6535 
 320   0.0000       1.793411        48.8012 
 321   0.0000       1.813763        49.3550 
 322   0.0000       1.817948        49.4689 
 323   0.0000       1.828922        49.7675 
 324   0.0000       1.845426        50.2166 
 325   0.0000       1.864354        50.7317 
 326   0.0000       1.878943        51.1287 
 327   0.0000       1.893278        51.5187 
 328   0.0000       1.901976        51.7554 
 329   0.0000       1.902471        51.7689 
 330   0.0000       1.911419        52.0124 
 331   0.0000       1.933665        52.6177 
 332   0.0000       1.937943        52.7341 
 333   0.0000       1.945193        52.9314 
 334   0.0000       1.953488        53.1571 
 335   0.0000       1.967701        53.5439 
 336   0.0000       1.978639        53.8415 
 337   0.0000       1.993363        54.2422 
 338   0.0000       2.002381        54.4876 
 339   0.0000       2.012208        54.7550 
 340   0.0000       2.019069        54.9417 
 341   0.0000       2.035070        55.3771 
 342   0.0000       2.048700        55.7480 
 343   0.0000       2.067168        56.2505 
 344   0.0000       2.096697        57.0540 
 345   0.0000       2.100387        57.1544 
 346   0.0000       2.121604        57.7318 
 347   0.0000       2.133652        58.0596 
 348   0.0000       2.150051        58.5059 
 349   0.0000       2.179244        59.3002 
 350   0.0000       2.190479        59.6060 
 351   0.0000       2.195952        59.7549 
 352   0.0000       2.212877        60.2154 
 353   0.0000       2.222025        60.4644 
 354   0.0000       2.240052        60.9549 
 355   0.0000       2.252600        61.2964 
 356   0.0000       2.281763        62.0899 
 357   0.0000       2.285875        62.2018 
 358   0.0000       2.306738        62.7695 
 359   0.0000       2.311231        62.8918 
 360   0.0000       2.313014        62.9403 
 361   0.0000       2.320835        63.1531 
 362   0.0000       2.330444        63.4146 
 363   0.0000       2.345666        63.8288 
 364   0.0000       2.360569        64.2343 
 365   0.0000       2.368071        64.4385 
 366   0.0000       2.380213        64.7689 
 367   0.0000       2.382850        64.8406 
 368   0.0000       2.394912        65.1689 
 369   0.0000       2.421735        65.8988 
 370   0.0000       2.432578        66.1938 
 371   0.0000       2.447566        66.6017 
 372   0.0000       2.452110        66.7253 
 373   0.0000       2.468022        67.1583 
 374   0.0000       2.478030        67.4306 
 375   0.0000       2.487868        67.6983 
 376   0.0000       2.514041        68.4105 
 377   0.0000       2.521054        68.6014 
 378   0.0000       2.537847        69.0583 
 379   0.0000       2.559128        69.6374 
 380   0.0000       2.559160        69.6383 
 381   0.0000       2.580487        70.2186 
 382   0.0000       2.588046        70.4243 
 383   0.0000       2.592865        70.5554 
 384   0.0000       2.604698        70.8774 
 385   0.0000       2.615881        71.1817 
 386   0.0000       2.626788        71.4785 
 387   0.0000       2.644291        71.9548 
 388   0.0000       2.652054        72.1661 
 389   0.0000       2.665506        72.5321 
 390   0.0000       2.675363        72.8003 
 391   0.0000       2.683196        73.0135 
 392   0.0000       2.696381        73.3723 
 393   0.0000       2.705169        73.6114 
 394   0.0000       2.709676        73.7340 
 395   0.0000       2.729481        74.2730 
 396   0.0000       2.734498        74.4095 
 397   0.0000       2.743407        74.6519 
 398   0.0000       2.755196        74.9727 
 399   0.0000       2.764492        75.2257 
 400   0.0000       2.772951        75.4558 
 401   0.0000       2.781476        75.6878 
 402   0.0000       2.783892        75.7535 
 403   0.0000       2.806182        76.3601 
 404   0.0000       2.807687        76.4010 
 405   0.0000       2.814805        76.5947 
 406   0.0000       2.834145        77.1210 
 407   0.0000       2.850000        77.5524 
 408   0.0000       2.851092        77.5822 
 409   0.0000       2.866120        77.9911 
 410   0.0000       2.876516        78.2740 
 411   0.0000       2.884474        78.4905 
 412   0.0000       2.893129        78.7260 
 413   0.0000       2.904746        79.0422 
 414   0.0000       2.920618        79.4741 
 415   0.0000       2.922750        79.5321 
 416   0.0000       2.925129        79.5968 
 417   0.0000       2.928230        79.6812 
 418   0.0000       2.950703        80.2927 
 419   0.0000       2.954642        80.3999 
 420   0.0000       2.961557        80.5881 
 421   0.0000       2.965625        80.6988 
 422   0.0000       2.978836        81.0582 
 423   0.0000       2.981292        81.1251 
 424   0.0000       2.997410        81.5637 
 425   0.0000       3.011988        81.9604 
 426   0.0000       3.024982        82.3139 
 427   0.0000       3.025904        82.3390 
 428   0.0000       3.033817        82.5543 
 429   0.0000       3.044510        82.8453 
 430   0.0000       3.048889        82.9645 
 431   0.0000       3.056244        83.1646 
 432   0.0000       3.065575        83.4185 
 433   0.0000       3.072505        83.6071 
 434   0.0000       3.081504        83.8520 
 435   0.0000       3.084913        83.9448 
 436   0.0000       3.092429        84.1493 
 437   0.0000       3.100562        84.3706 
 438   0.0000       3.104604        84.4806 
 439   0.0000       3.109011        84.6005 
 440   0.0000       3.114261        84.7433 
 441   0.0000       3.119483        84.8854 
 442   0.0000       3.122572        84.9695 
 443   0.0000       3.127575        85.1056 
 444   0.0000       3.144663        85.5706 
 445   0.0000       3.152539        85.7850 
 446   0.0000       3.169649        86.2505 
 447   0.0000       3.172754        86.3350 
 448   0.0000       3.179303        86.5132 
 449   0.0000       3.185676        86.6867 
 450   0.0000       3.189950        86.8030 
 451   0.0000       3.201344        87.1130 
 452   0.0000       3.208988        87.3210 
 453   0.0000       3.213577        87.4459 
 454   0.0000       3.219659        87.6114 
 455   0.0000       3.227205        87.8167 
 456   0.0000       3.230353        87.9024 
 457   0.0000       3.236357        88.0658 
 458   0.0000       3.241348        88.2016 
 459   0.0000       3.250565        88.4524 
 460   0.0000       3.260616        88.7259 
 461   0.0000       3.268794        88.9484 
 462   0.0000       3.280414        89.2646 
 463   0.0000       3.284246        89.3689 
 464   0.0000       3.288223        89.4771 
 465   0.0000       3.303366        89.8892 
 466   0.0000       3.307275        89.9955 
 467   0.0000       3.315073        90.2077 
 468   0.0000       3.316030        90.2338 
 469   0.0000       3.325591        90.4939 
 470   0.0000       3.330832        90.6365 
 471   0.0000       3.341131        90.9168 
 472   0.0000       3.348908        91.1284 
 473   0.0000       3.352453        91.2249 
 474   0.0000       3.361479        91.4705 
 475   0.0000       3.363957        91.5379 
 476   0.0000       3.373773        91.8050 
 477   0.0000       3.375715        91.8579 
 478   0.0000       3.383542        92.0709 
 479   0.0000       3.394370        92.3655 
 480   0.0000       3.395554        92.3977 
 481   0.0000       3.396622        92.4268 
 482   0.0000       3.400658        92.5366 
 483   0.0000       3.404416        92.6389 
 484   0.0000       3.418055        93.0100 
 485   0.0000       3.419886        93.0598 
 486   0.0000       3.422932        93.1427 
 487   0.0000       3.429292        93.3158 
 488   0.0000       3.433330        93.4257 
 489   0.0000       3.439264        93.5871 
 490   0.0000       3.440910        93.6319 
 491   0.0000       3.446919        93.7954 
 492   0.0000       3.454890        94.0123 
 493   0.0000       3.460815        94.1736 
 494   0.0000       3.463122        94.2363 
 495   0.0000       3.466660        94.3326 
 496   0.0000       3.470241        94.4300 
 497   0.0000       3.479232        94.6747 
 498   0.0000       3.487679        94.9046 
 499   0.0000       3.493753        95.0698 
 500   0.0000       3.503519        95.3356 
 501   0.0000       3.522265        95.8457 
 502   0.0000       3.523714        95.8851 
 503   0.0000       3.533526        96.1521 
 504   0.0000       3.537877        96.2705 
 505   0.0000       3.543446        96.4221 
 506   0.0000       3.544945        96.4629 
 507   0.0000       3.564373        96.9915 
 508   0.0000       3.570805        97.1665 
 509   0.0000       3.576305        97.3162 
 510   0.0000       3.584964        97.5518 
 511   0.0000       3.594725        97.8174 
 512   0.0000       3.598141        97.9104 
 513   0.0000       3.607600        98.1678 
 514   0.0000       3.611684        98.2789 
 515   0.0000       3.619994        98.5051 
 516   0.0000       3.626020        98.6690 
 517   0.0000       3.627666        98.7138 
 518   0.0000       3.635425        98.9249 
 519   0.0000       3.640180        99.0543 
 520   0.0000       3.650663        99.3396 
 521   0.0000       3.661209        99.6266 
 522   0.0000       3.662652        99.6658 
 523   0.0000       3.668371        99.8214 
 524   0.0000       3.676595       100.0452 
 525   0.0000       3.681270       100.1725 
 526   0.0000       3.685602       100.2903 
 527   0.0000       3.687911       100.3532 
 528   0.0000       3.689655       100.4006 
 529   0.0000       3.706548       100.8603 
 530   0.0000       3.710472       100.9671 
 531   0.0000       3.722611       101.2974 
 532   0.0000       3.727246       101.4235 
 533   0.0000       3.734542       101.6220 
 534   0.0000       3.737773       101.7100 
 535   0.0000       3.741623       101.8147 
 536   0.0000       3.750200       102.0481 
 537   0.0000       3.758680       102.2789 
 538   0.0000       3.768253       102.5394 
 539   0.0000       3.773909       102.6933 
 540   0.0000       3.779951       102.8577 
 541   0.0000       3.784498       102.9814 
 542   0.0000       3.786716       103.0418 
 543   0.0000       3.798834       103.3715 
 544   0.0000       3.802592       103.4738 
 545   0.0000       3.803550       103.4999 
 546   0.0000       3.820132       103.9511 
 547   0.0000       3.823129       104.0326 
 548   0.0000       3.833987       104.3281 
 549   0.0000       3.837196       104.4154 
 550   0.0000       3.845129       104.6313 
 551   0.0000       3.852401       104.8292 
 552   0.0000       3.860551       105.0509 
 553   0.0000       3.879768       105.5739 
 554   0.0000       3.883009       105.6620 
 555   0.0000       3.892332       105.9157 
 556   0.0000       3.893878       105.9578 
 557   0.0000       3.916410       106.5709 
 558   0.0000       3.919297       106.6495 
 559   0.0000       3.923661       106.7682 
 560   0.0000       3.926217       106.8378 
 561   0.0000       3.943207       107.3001 
 562   0.0000       3.955398       107.6319 
 563   0.0000       3.970066       108.0310 
 564   0.0000       3.977803       108.2415 
 565   0.0000       3.983690       108.4017 
 566   0.0000       3.992228       108.6341 
 567   0.0000       4.001961       108.8989 
 568   0.0000       4.015546       109.2686 
 569   0.0000       4.019596       109.3788 
 570   0.0000       4.026378       109.5633 
 571   0.0000       4.034101       109.7735 
 572   0.0000       4.039649       109.9244 
 573   0.0000       4.047603       110.1409 
 574   0.0000       4.052465       110.2732 
 575   0.0000       4.055610       110.3588 
 576   0.0000       4.063842       110.5828 
 577   0.0000       4.073438       110.8439 
 578   0.0000       4.089503       111.2810 
 579   0.0000       4.096750       111.4782 
 580   0.0000       4.106242       111.7365 
 581   0.0000       4.119771       112.1047 
 582   0.0000       4.128142       112.3324 
 583   0.0000       4.134653       112.5096 
 584   0.0000       4.140332       112.6642 
 585   0.0000       4.145100       112.7939 
 586   0.0000       4.151863       112.9779 
 587   0.0000       4.154175       113.0409 
 588   0.0000       4.160576       113.2150 
 589   0.0000       4.168776       113.4382 
 590   0.0000       4.174921       113.6054 
 591   0.0000       4.183123       113.8286 
 592   0.0000       4.189287       113.9963 
 593   0.0000       4.192812       114.0922 
 594   0.0000       4.201957       114.3411 
 595   0.0000       4.204698       114.4157 
 596   0.0000       4.211254       114.5940 
 597   0.0000       4.221179       114.8641 
 598   0.0000       4.229102       115.0797 
 599   0.0000       4.236385       115.2779 
 600   0.0000       4.241275       115.4110 
 601   0.0000       4.254128       115.7607 
 602   0.0000       4.259415       115.9046 
 603   0.0000       4.263719       116.0217 
 604   0.0000       4.266770       116.1047 
 605   0.0000       4.280975       116.4913 
 606   0.0000       4.294274       116.8531 
 607   0.0000       4.298664       116.9726 
 608   0.0000       4.316725       117.4641 
 609   0.0000       4.320614       117.5699 
 610   0.0000       4.328918       117.7959 
 611   0.0000       4.331658       117.8704 
 612   0.0000       4.349165       118.3468 
 613   0.0000       4.362314       118.7046 
 614   0.0000       4.365649       118.7953 
 615   0.0000       4.368231       118.8656 
 616   0.0000       4.377068       119.1061 
 617   0.0000       4.388835       119.4263 
 618   0.0000       4.391810       119.5072 
 619   0.0000       4.398691       119.6945 
 620   0.0000       4.406182       119.8983 
 621   0.0000       4.411849       120.0525 
 622   0.0000       4.416597       120.1817 
 623   0.0000       4.435168       120.6871 
 624   0.0000       4.440604       120.8350 
 625   0.0000       4.453946       121.1980 
 626   0.0000       4.460504       121.3765 
 627   0.0000       4.463686       121.4631 
 628   0.0000       4.467709       121.5725 
 629   0.0000       4.474821       121.7661 
 630   0.0000       4.483335       121.9978 
 631   0.0000       4.490866       122.2027 
 632   0.0000       4.498207       122.4024 
 633   0.0000       4.511773       122.7716 
 634   0.0000       4.521378       123.0329 
 635   0.0000       4.534534       123.3910 
 636   0.0000       4.538639       123.5026 
 637   0.0000       4.545972       123.7022 
 638   0.0000       4.557114       124.0054 
 639   0.0000       4.565459       124.2324 
 640   0.0000       4.566749       124.2676 
 641   0.0000       4.577026       124.5472 
 642   0.0000       4.586024       124.7921 
 643   0.0000       4.595208       125.0420 
 644   0.0000       4.600853       125.1956 
 645   0.0000       4.615573       125.5961 
 646   0.0000       4.623236       125.8047 
 647   0.0000       4.624943       125.8511 
 648   0.0000       4.635140       126.1286 
 649   0.0000       4.643888       126.3666 
 650   0.0000       4.652819       126.6096 
 651   0.0000       4.657832       126.7461 
 652   0.0000       4.661648       126.8499 
 653   0.0000       4.667709       127.0148 
 654   0.0000       4.684159       127.4624 
 655   0.0000       4.702537       127.9625 
 656   0.0000       4.708985       128.1380 
 657   0.0000       4.710606       128.1821 
 658   0.0000       4.722085       128.4945 
 659   0.0000       4.733614       128.8082 
 660   0.0000       4.737161       128.9047 
 661   0.0000       4.752542       129.3232 
 662   0.0000       4.756094       129.4199 
 663   0.0000       4.777906       130.0134 
 664   0.0000       4.794331       130.4604 
 665   0.0000       4.810813       130.9089 
 666   0.0000       4.833327       131.5215 
 667   0.0000       4.846615       131.8831 
 668   0.0000       4.863268       132.3362 
 669   0.0000       4.882966       132.8723 
 670   0.0000       4.891309       133.0993 
 671   0.0000       4.894219       133.1785 
 672   0.0000       4.915348       133.7534 
 673   0.0000       4.944023       134.5337 
 674   0.0000       4.959121       134.9445 
 675   0.0000       4.974054       135.3509 
 676   0.0000       4.999559       136.0449 
 677   0.0000       5.005659       136.2109 
 678   0.0000       5.015935       136.4905 
 679   0.0000       5.016558       136.5075 
 680   0.0000       5.031310       136.9089 
 681   0.0000       5.033915       136.9798 
 682   0.0000       5.053955       137.5251 
 683   0.0000       5.077996       138.1793 
 684   0.0000       5.086906       138.4218 
 685   0.0000       5.104986       138.9137 
 686   0.0000       5.115330       139.1952 
 687   0.0000       5.125400       139.4692 
 688   0.0000       5.138597       139.8283 
 689   0.0000       5.139435       139.8511 
 690   0.0000       5.171418       140.7214 
 691   0.0000       5.178200       140.9060 
 692   0.0000       5.187698       141.1644 
 693   0.0000       5.193336       141.3178 
 694   0.0000       5.195075       141.3652 
 695   0.0000       5.202418       141.5650 
 696   0.0000       5.218939       142.0146 
 697   0.0000       5.227965       142.2602 
 698   0.0000       5.232606       142.3864 
 699   0.0000       5.251146       142.8910 
 700   0.0000       5.263175       143.2183 
 701   0.0000       5.276164       143.5717 
 702   0.0000       5.285773       143.8332 
 703   0.0000       5.301061       144.2492 
 704   0.0000       5.324874       144.8972 
 705   0.0000       5.329546       145.0243 
 706   0.0000       5.344396       145.4284 
 707   0.0000       5.357246       145.7781 
 708   0.0000       5.362599       145.9237 
 709   0.0000       5.370114       146.1282 
 710   0.0000       5.382636       146.4690 
 711   0.0000       5.403967       147.0494 
 712   0.0000       5.438397       147.9863 
 713   0.0000       5.449477       148.2878 
 714   0.0000       5.464517       148.6971 
 715   0.0000       5.477845       149.0597 
 716   0.0000       5.486415       149.2929 
 717   0.0000       5.498980       149.6348 
 718   0.0000       5.503362       149.7541 
 719   0.0000       5.515553       150.0858 
 720   0.0000       5.520460       150.2194 
 721   0.0000       5.527610       150.4139 
 722   0.0000       5.543730       150.8526 
 723   0.0000       5.555427       151.1708 
 724   0.0000       5.579515       151.8263 
 725   0.0000       5.588951       152.0831 
 726   0.0000       5.595316       152.2563 
 727   0.0000       5.609333       152.6377 
 728   0.0000       5.616879       152.8431 
 729   0.0000       5.628319       153.1543 
 730   0.0000       5.628852       153.1688 
 731   0.0000       5.648360       153.6997 
 732   0.0000       5.665414       154.1638 
 733   0.0000       5.674979       154.4240 
 734   0.0000       5.685219       154.7027 
 735   0.0000       5.693300       154.9226 
 736   0.0000       5.697897       155.0477 
 737   0.0000       5.715375       155.5233 
 738   0.0000       5.726407       155.8235 
 739   0.0000       5.756616       156.6455 
 740   0.0000       5.763769       156.8401 
 741   0.0000       5.769182       156.9874 
 742   0.0000       5.792968       157.6347 
 743   0.0000       5.803065       157.9094 
 744   0.0000       5.835443       158.7905 
 745   0.0000       5.840215       158.9203 
 746   0.0000       5.862180       159.5180 
 747   0.0000       5.892077       160.3316 
 748   0.0000       5.892520       160.3436 
 749   0.0000       5.931092       161.3932 
 750   0.0000       5.949210       161.8862 
 751   0.0000       5.969363       162.4346 
 752   0.0000       5.975120       162.5913 
 753   0.0000       5.985496       162.8736 
 754   0.0000       5.989953       162.9949 
 755   0.0000       6.004473       163.3900 
 756   0.0000       6.043303       164.4466 
 757   0.0000       6.053239       164.7170 
 758   0.0000       6.073680       165.2732 
 759   0.0000       6.103439       166.0830 
 760   0.0000       6.137847       167.0193 
 761   0.0000       6.175726       168.0500 
 762   0.0000       6.183456       168.2604 
 763   0.0000       6.200513       168.7245 
 764   0.0000       6.216592       169.1621 
 765   0.0000       6.269798       170.6099 
 766   0.0000       6.296492       171.3362 
 767   0.0000       6.304926       171.5658 
 768   0.0000       6.318850       171.9446 
 769   0.0000       6.328155       172.1978 
 770   0.0000       6.341772       172.5684 
 771   0.0000       6.349537       172.7797 
 772   0.0000       6.378505       173.5680 
 773   0.0000       6.408299       174.3787 
 774   0.0000       6.437167       175.1642 
 775   0.0000       6.506130       177.0408 
 776   0.0000       6.534525       177.8135 
 777   0.0000       6.538473       177.9209 
 778   0.0000       6.568266       178.7316 
 779   0.0000       6.582681       179.1239 
 780   0.0000       6.611735       179.9144 
 781   0.0000       6.699834       182.3117 
 782   0.0000       6.743205       183.4919 
 783   0.0000       6.787549       184.6986 
 784   0.0000       6.828961       185.8255 
 785   0.0000       6.868108       186.8907 
 786   0.0000       6.924195       188.4169 
 787   0.0000       6.939801       188.8416 
 788   0.0000       6.957451       189.3219 
 789   0.0000       6.986904       190.1233 
 790   0.0000       7.060274       192.1198 
 791   0.0000       7.087816       192.8693 
 792   0.0000       7.091655       192.9738 
 793   0.0000       7.110007       193.4731 
 794   0.0000       7.159016       194.8067 
 795   0.0000       7.192256       195.7112 
 796   0.0000       7.252197       197.3423 
 797   0.0000       7.286663       198.2802 
 798   0.0000       7.336397       199.6335 
 799   0.0000       7.371433       200.5869 
 800   0.0000       7.391398       201.1302 
 801   0.0000       7.530731       204.9216 
 802   0.0000       7.589391       206.5178 
 803   0.0000       7.597429       206.7366 
 804   0.0000       7.684403       209.1032 
 805   0.0000       7.787524       211.9093 
 806   0.0000       7.809814       212.5159 
 807   0.0000       7.934258       215.9021 
 808   0.0000       7.954550       216.4543 
 809   0.0000       9.367932       254.9144 
 810   0.0000       9.684712       263.5344 
 811   0.0000      10.807259       294.0805 
 812   0.0000      11.114685       302.4460 
 813   0.0000      11.660966       317.3110 
 814   0.0000      12.415354       337.8389 
 815   0.0000      12.658196       344.4470 
 816   0.0000      12.787400       347.9628 
 817   0.0000      12.908500       351.2581 
 818   0.0000      13.090265       356.2042 
 819   0.0000      13.192776       358.9937 
 820   0.0000      13.479944       366.8079 
 821   0.0000      13.584689       369.6582 
 822   0.0000      13.710143       373.0719 
 823   0.0000      13.783500       375.0681 
 824   0.0000      13.993801       380.7907 
 825   0.0000      14.413381       392.2080 
 826   0.0000      14.634519       398.2255 
 827   0.0000      15.645194       425.7274 

                    ********************************
                    * MULLIKEN POPULATION ANALYSIS *
                    ********************************

-----------------------
MULLIKEN ATOMIC CHARGES
-----------------------
   0 C :   -0.286403
   1 C :    0.045255
   2 O :   -0.351376
   3 C :    0.435031
   4 O :   -0.428259
   5 C :   -0.153693
   6 C :    0.147539
   7 C :   -0.289884
   8 N :   -0.123316
   9 C :    0.196778
  10 S :   -0.428692
  11 N :   -0.199155
  12 C :    0.060107
  13 C :    0.030357
  14 C :   -0.190202
  15 C :   -0.133375
  16 C :   -0.274731
  17 C :    0.303536
  18 O :   -0.364207
  19 C :   -0.257298
  20 H :    0.095549
  21 H :    0.098056
  22 H :    0.125216
  23 H :    0.099081
  24 H :    0.085428
  25 H :    0.133488
  26 H :    0.120976
  27 H :    0.104417
  28 H :    0.196777
  29 H :    0.193171
  30 H :    0.192223
  31 H :    0.139111
  32 H :    0.153368
  33 H :    0.126269
  34 H :    0.240598
  35 H :    0.158261
Sum of atomic charges:    0.0000000

--------------------------------
MULLIKEN REDUCED ORBITAL CHARGES
--------------------------------
  0 C s       :     3.251631  s :     3.251631
      pz      :     1.033344  p :     2.955031
      px      :     0.997030
      py      :     0.924658
      dz2     :     0.008840  d :     0.075312
      dxz     :     0.016353
      dyz     :     0.019742
      dx2y2   :     0.019982
      dxy     :     0.010395
      f0      :     0.000421  f :     0.004428
      f+1     :     0.000141
      f-1     :     0.001008
      f+2     :     0.000856
      f-2     :     0.000615
      f+3     :     0.000914
      f-3     :     0.000473
  1 C s       :     3.176991  s :     3.176991
      pz      :     0.864690  p :     2.619483
      px      :     0.909741
      py      :     0.845052
      dz2     :     0.026689  d :     0.147149
      dxz     :     0.028361
      dyz     :     0.036562
      dx2y2   :     0.030290
      dxy     :     0.025246
      f0      :     0.001388  f :     0.011121
      f+1     :     0.001316
      f-1     :     0.001951
      f+2     :     0.001823
      f-2     :     0.002031
      f+3     :     0.001393
      f-3     :     0.001219
  2 O s       :     3.709987  s :     3.709987
      pz      :     1.562508  p :     4.607533
      px      :     1.354160
      py      :     1.690865
      dz2     :     0.004766  d :     0.031577
      dxz     :     0.005193
      dyz     :     0.006800
      dx2y2   :     0.008642
      dxy     :     0.006175
      f0      :     0.000296  f :     0.002279
      f+1     :     0.000386
      f-1     :     0.000150
      f+2     :     0.000470
      f-2     :     0.000428
      f+3     :     0.000297
      f-3     :     0.000251
  3 C s       :     3.080383  s :     3.080383
      pz      :     0.688465  p :     2.154835
      px      :     0.662501
      py      :     0.803870
      dz2     :     0.036573  d :     0.303196
      dxz     :     0.043235
      dyz     :     0.073166
      dx2y2   :     0.080168
      dxy     :     0.070054
      f0      :     0.002057  f :     0.026555
      f+1     :     0.003195
      f-1     :     0.002260
      f+2     :     0.004194
      f-2     :     0.003521
      f+3     :     0.004827
      f-3     :     0.006502
  4 O s       :     3.775214  s :     3.775214
      pz      :     1.580678  p :     4.615428
      px      :     1.635927
      py      :     1.398822
      dz2     :     0.003844  d :     0.035212
      dxz     :     0.001205
      dyz     :     0.009792
      dx2y2   :     0.009801
      dxy     :     0.010570
      f0      :     0.000251  f :     0.002405
      f+1     :     0.000077
      f-1     :     0.000347
      f+2     :     0.000285
      f-2     :     0.000204
      f+3     :     0.000679
      f-3     :     0.000563
  5 C s       :     3.190731  s :     3.190731
      pz      :     1.005471  p :     2.864941
      px      :     1.016920
      py      :     0.842551
      dz2     :     0.015085  d :     0.087519
      dxz     :     0.009764
      dyz     :     0.027721
      dx2y2   :     0.013906
      dxy     :     0.021045
      f0      :     0.000949  f :     0.010502
      f+1     :     0.001029
      f-1     :     0.001446
      f+2     :     0.002435
      f-2     :     0.001375
      f+3     :     0.001716
      f-3     :     0.001552
  6 C s       :     3.190045  s :     3.190045
      pz      :     0.826820  p :     2.472760
      px      :     0.850056
      py      :     0.795885
      dz2     :     0.028529  d :     0.175574
      dxz     :     0.016147
      dyz     :     0.052062
      dx2y2   :     0.026752
      dxy     :     0.052084
      f0      :     0.001475  f :     0.014082
      f+1     :     0.001443
      f-1     :     0.002104
      f+2     :     0.002375
      f-2     :     0.002150
      f+3     :     0.002386
      f-3     :     0.002149
  7 C s       :     3.280730  s :     3.280730
      pz      :     0.946984  p :     2.934078
      px      :     0.988169
      py      :     0.998925
      dz2     :     0.022114  d :     0.070353
      dxz     :     0.011703
      dyz     :     0.008346
      dx2y2   :     0.021017
      dxy     :     0.007173
      f0      :     0.000530  f :     0.004723
      f+1     :     0.001041
      f-1     :     0.000819
      f+2     :     0.000450
      f-2     :     0.000678
      f+3     :     0.000310
      f-3     :     0.000894
  8 N s       :     3.339262  s :     3.339262
      pz      :     1.385906  p :     3.720063
      px      :     1.261045
      py      :     1.073112
      dz2     :     0.009980  d :     0.059071
      dxz     :     0.010120
      dyz     :     0.010136
      dx2y2   :     0.015309
      dxy     :     0.013525
      f0      :     0.000580  f :     0.004920
      f+1     :     0.000969
      f-1     :     0.000395
      f+2     :     0.000922
      f-2     :     0.001016
      f+3     :     0.000500
      f-3     :     0.000538
  9 C s       :     3.165090  s :     3.165090
      pz      :     0.730016  p :     2.356556
      px      :     0.764863
      py      :     0.861677
      dz2     :     0.050364  d :     0.263922
      dxz     :     0.031703
      dyz     :     0.055312
      dx2y2   :     0.069935
      dxy     :     0.056608
      f0      :     0.001830  f :     0.017654
      f+1     :     0.002954
      f-1     :     0.002031
      f+2     :     0.003303
      f-2     :     0.001690
      f+3     :     0.002969
      f-3     :     0.002877
 10 S s       :     5.855927  s :     5.855927
      pz      :     3.534674  p :    10.477458
      px      :     3.573332
      py      :     3.369451
      dz2     :     0.010793  d :     0.085114
      dxz     :     0.008095
      dyz     :     0.027106
      dx2y2   :     0.009808
      dxy     :     0.029313
      f0      :     0.001138  f :     0.010193
      f+1     :     0.000511
      f-1     :     0.001329
      f+2     :     0.001298
      f-2     :     0.002530
      f+3     :     0.002291
      f-3     :     0.001095
 11 N s       :     3.379562  s :     3.379562
      pz      :     1.402474  p :     3.755534
      px      :     1.343188
      py      :     1.009872
      dz2     :     0.005316  d :     0.059590
      dxz     :     0.007814
      dyz     :     0.016171
      dx2y2   :     0.015509
      dxy     :     0.014781
      f0      :     0.000541  f :     0.004468
      f+1     :     0.000386
      f-1     :     0.000555
      f+2     :     0.000787
      f-2     :     0.000670
      f+3     :     0.000745
      f-3     :     0.000785
 12 C s       :     3.104471  s :     3.104471
      pz      :     0.871111  p :     2.651397
      px      :     0.894831
      py      :     0.885455
      dz2     :     0.032854  d :     0.173371
      dxz     :     0.027979
      dyz     :     0.039992
      dx2y2   :     0.030373
      dxy     :     0.042173
      f0      :     0.001000  f :     0.010654
      f+1     :     0.001450
      f-1     :     0.001693
      f+2     :     0.001832
      f-2     :     0.002002
      f+3     :     0.001649
      f-3     :     0.001027
 13 C s       :     3.129570  s :     3.129570
      pz      :     0.882432  p :     2.721015
      px      :     0.899661
      py      :     0.938922
      dz2     :     0.023286  d :     0.108722
      dxz     :     0.011740
      dyz     :     0.027558
      dx2y2   :     0.020809
      dxy     :     0.025328
      f0      :     0.001010  f :     0.010336
      f+1     :     0.001620
[...]
      f+2     :     0.007407
      f-2     :     0.004575
      f+3     :     0.006326
      f-3     :     0.005224
 15 C s       :     2.711503  s :     2.711503
      pz      :     0.937112  p :     2.800488
      px      :     0.897540
      py      :     0.965836
      dz2     :     0.109512  d :     0.413139
      dxz     :     0.070150
      dyz     :     0.078631
      dx2y2   :     0.097937
      dxy     :     0.056909
      f0      :     0.004634  f :     0.040111
      f+1     :     0.005675
      f-1     :     0.007005
      f+2     :     0.007437
      f-2     :     0.006037
      f+3     :     0.004465
      f-3     :     0.004858
 16 C s       :     2.704219  s :     2.704219
      pz      :     0.950590  p :     2.875284
      px      :     0.943326
      py      :     0.981367
      dz2     :     0.061693  d :     0.392230
      dxz     :     0.052880
      dyz     :     0.101823
      dx2y2   :     0.087109
      dxy     :     0.088726
      f0      :     0.004418  f :     0.040401
      f+1     :     0.004648
      f-1     :     0.006285
      f+2     :     0.006798
      f-2     :     0.004656
      f+3     :     0.008122
      f-3     :     0.005473
 17 C s       :     2.706568  s :     2.706568
      pz      :     0.875032  p :     2.682444
      px      :     0.820904
      py      :     0.986508
      dz2     :     0.142841  d :     0.696820
      dxz     :     0.096639
      dyz     :     0.169488
      dx2y2   :     0.137560
      dxy     :     0.150292
      f0      :     0.012169  f :     0.096651
      f+1     :     0.012622
      f-1     :     0.013909
      f+2     :     0.018530
      f-2     :     0.013267
      f+3     :     0.014864
      f-3     :     0.011289
 18 O s       :     3.181621  s :     3.181621
      pz      :     1.354908  p :     4.357381
      px      :     1.482900
      py      :     1.519573
      dz2     :     0.010809  d :     0.074462
      dxz     :     0.015295
      dyz     :     0.023723
      dx2y2   :     0.009896
      dxy     :     0.014739
      f0      :     0.000642  f :     0.004907
      f+1     :     0.000537
      f-1     :     0.000736
      f+2     :     0.000796
      f-2     :     0.001053
      f+3     :     0.000590
      f-3     :     0.000553
 19 C s       :     2.697904  s :     2.697904
      pz      :     0.953201  p :     2.856339
      px      :     0.936566
      py      :     0.966572
      dz2     :     0.092744  d :     0.387244
      dxz     :     0.070038
      dyz     :     0.074368
      dx2y2   :     0.088084
      dxy     :     0.062010
      f0      :     0.004432  f :     0.039998
      f+1     :     0.006591
      f-1     :     0.006447
      f+2     :     0.007222
      f-2     :     0.006321
      f+3     :     0.004644
      f-3     :     0.004340
 20 H s       :     0.848354  s :     0.848354
      pz      :     0.043395  p :     0.150936
      px      :     0.069255
      py      :     0.038285
      dz2     :     0.003962  d :     0.027417
      dxz     :     0.008282
      dyz     :     0.001623
      dx2y2   :     0.006071
      dxy     :     0.007479
 21 H s       :     0.847604  s :     0.847604
      pz      :     0.056095  p :     0.151887
      px      :     0.050256
      py      :     0.045537
      dz2     :     0.007497  d :     0.027525
      dxz     :     0.005276
      dyz     :     0.005562
      dx2y2   :     0.005044
      dxy     :     0.004147
 22 H s       :     0.843559  s :     0.843559
      pz      :     0.063890  p :     0.151858
      px      :     0.039175
      py      :     0.048792
      dz2     :     0.007671  d :     0.027844
      dxz     :     0.006691
      dyz     :     0.007563
      dx2y2   :     0.002985
      dxy     :     0.002934
 23 H s       :     0.856899  s :     0.856899
      pz      :     0.066856  p :     0.148113
      px      :     0.039968
      py      :     0.041289
      dz2     :     0.008608  d :     0.027293
      dxz     :     0.007317
      dyz     :     0.006736
      dx2y2   :     0.001590
      dxy     :     0.003042
 24 H s       :     0.849857  s :     0.849857
      pz      :     0.040346  p :     0.145897
      px      :     0.066931
      py      :     0.038620
      dz2     :     0.004011  d :     0.027055
      dxz     :     0.007066
      dyz     :     0.002813
      dx2y2   :     0.006165
      dxy     :     0.007000
 25 H s       :     0.828206  s :     0.828206
      pz      :     0.039967  p :     0.154902
      px      :     0.072061
      py      :     0.042873
      dz2     :     0.002918  d :     0.028385
      dxz     :     0.008581
      dyz     :     0.000589
      dx2y2   :     0.008217
      dxy     :     0.008080
 26 H s       :     0.831854  s :     0.831854
      pz      :     0.066868  p :     0.148433
      px      :     0.039869
      py      :     0.041696
      dz2     :     0.009077  d :     0.027099
      dxz     :     0.007749
      dyz     :     0.007398
      dx2y2   :     0.001988
      dxy     :     0.000886
 27 H s       :     0.842656  s :     0.842656
      pz      :     0.036841  p :     0.148655
      px      :     0.039051
      py      :     0.072764
      dz2     :     0.002281  d :     0.027324
      dxz     :     0.000068
      dyz     :     0.008946
      dx2y2   :     0.006876
      dxy     :     0.009154
 28 H s       :     0.742220  s :     0.742220
      pz      :     0.070936  p :     0.253481
      px      :     0.066631
      py      :     0.115914
      dz2     :     0.005760  d :     0.061516
      dxz     :     0.001672
      dyz     :     0.019534
      dx2y2   :     0.015933
      dxy     :     0.018617
 29 H s       :     0.746653  s :     0.746653
      pz      :     0.099901  p :     0.251954
      px      :     0.110394
      py      :     0.041659
      dz2     :     0.016937  d :     0.060570
      dxz     :     0.015222
      dyz     :     0.006517
      dx2y2   :     0.012689
      dxy     :     0.009205
 30 H s       :     0.816789  s :     0.816789
      pz      :     0.050584  p :     0.177875
      px      :     0.049334
      py      :     0.077958
      dz2     :     0.004044  d :     0.032794
      dxz     :     0.004659
      dyz     :     0.007192
      dx2y2   :     0.008373
      dxy     :     0.008526
 31 H s       :     0.846517  s :     0.846517
      pz      :     0.054883  p :     0.158486
      px      :     0.057454
      py      :     0.046149
      dz2     :     0.005936  d :     0.027485
      dxz     :     0.005520
      dyz     :     0.005402
      dx2y2   :     0.005381
      dxy     :     0.005247
 32 H s       :     0.845266  s :     0.845266
      pz      :     0.035292  p :     0.148424
      px      :     0.037203
      py      :     0.075930
      dz2     :     0.002771  d :     0.025579
      dxz     :     0.000373
      dyz     :     0.007677
      dx2y2   :     0.007350
      dxy     :     0.007407
 33 H s       :     0.850939  s :     0.850939
      pz      :     0.063284  p :     0.157777
      px      :     0.051188
      py      :     0.043306
      dz2     :     0.007541  d :     0.027349
      dxz     :     0.006032
      dyz     :     0.006320
      dx2y2   :     0.003810
      dxy     :     0.003646
 34 H s       :     0.708306  s :     0.708306
      pz      :     0.120412  p :     0.347241
      px      :     0.095656
      py      :     0.131173
      dz2     :     0.026790  d :     0.099087
      dxz     :     0.016616
      dyz     :     0.024058
      dx2y2   :     0.015246
      dxy     :     0.016378
 35 H s       :     0.843826  s :     0.843826
      pz      :     0.039957  p :     0.161600
      px      :     0.042366
      py      :     0.079276
      dz2     :     0.002874  d :     0.029015
      dxz     :     0.000530
      dyz     :     0.008858
      dx2y2   :     0.007956
      dxy     :     0.008797


                      *****************************
                      * MAYER POPULATION ANALYSIS *
                      *****************************

  NA   - Mulliken gross atomic population
  ZA   - Total nuclear charge
  QA   - Mulliken gross atomic charge
  VA   - Mayer's total valence
  BVA  - Mayer's bonded valence
  FA   - Mayer's free valence

  ATOM       NA         ZA         QA         VA         BVA        FA
  0 C      6.2864     6.0000    -0.2864     3.8824     3.8824    -0.0000
  1 C      5.9547     6.0000     0.0453     3.8840     3.8840    -0.0000
  2 O      8.3514     8.0000    -0.3514     2.0603     2.0603    -0.0000
  3 C      5.5650     6.0000     0.4350     4.1947     4.1947     0.0000
  4 O      8.4283     8.0000    -0.4283     2.0715     2.0715     0.0000
  5 C      6.1537     6.0000    -0.1537     3.6704     3.6704     0.0000
  6 C      5.8525     6.0000     0.1475     3.8363     3.8363     0.0000
  7 C      6.2899     6.0000    -0.2899     3.8927     3.8927     0.0000
  8 N      7.1233     7.0000    -0.1233     3.2932     3.2932    -0.0000
  9 C      5.8032     6.0000     0.1968     4.1544     4.1544    -0.0000
 10 S     16.4287    16.0000    -0.4287     1.7716     1.7716    -0.0000
 11 N      7.1992     7.0000    -0.1992     3.2720     3.2720     0.0000
 12 C      5.9399     6.0000     0.0601     3.9161     3.9161    -0.0000
 13 C      5.9696     6.0000     0.0304     3.7465     3.7465     0.0000
 14 C      6.1902     6.0000    -0.1902     3.8751     3.8751     0.0000
 15 C      6.1334     6.0000    -0.1334     3.8132     3.8132     0.0000
 16 C      6.2747     6.0000    -0.2747     3.7908     3.7908    -0.0000
 17 C      5.6965     6.0000     0.3035     3.8734     3.8734    -0.0000
 18 O      8.3642     8.0000    -0.3642     2.1071     2.1071     0.0000
 19 C      6.2573     6.0000    -0.2573     3.8435     3.8435     0.0000
 20 H      0.9045     1.0000     0.0955     0.9849     0.9849    -0.0000
 21 H      0.9019     1.0000     0.0981     0.9788     0.9788     0.0000
 22 H      0.8748     1.0000     0.1252     0.9826     0.9826     0.0000
 23 H      0.9009     1.0000     0.0991     0.9717     0.9717    -0.0000
 24 H      0.9146     1.0000     0.0854     0.9686     0.9686    -0.0000
 25 H      0.8665     1.0000     0.1335     0.9766     0.9766     0.0000
 26 H      0.8790     1.0000     0.1210     0.9822     0.9822     0.0000
 27 H      0.8956     1.0000     0.1044     0.9867     0.9867     0.0000
 28 H      0.8032     1.0000     0.1968     1.0223     1.0223    -0.0000
 29 H      0.8068     1.0000     0.1932     1.0194     1.0194    -0.0000
 30 H      0.8078     1.0000     0.1922     0.9945     0.9945    -0.0000
 31 H      0.8609     1.0000     0.1391     0.9931     0.9931    -0.0000
 32 H      0.8466     1.0000     0.1534     0.9796     0.9796    -0.0000
 33 H      0.8737     1.0000     0.1263     0.9923     0.9923     0.0000
 34 H      0.7594     1.0000     0.2406     1.0109     1.0109    -0.0000
 35 H      0.8417     1.0000     0.1583     0.9912     0.9912     0.0000

  Mayer bond orders larger than 0.100000
B(  0-C ,  1-C ) :   0.9822 B(  0-C , 20-H ) :   0.9759 B(  0-C , 21-H ) :   0.9726 
B(  0-C , 22-H ) :   0.9707 B(  1-C ,  2-O ) :   0.9014 B(  1-C , 23-H ) :   0.9762 
B(  1-C , 24-H ) :   0.9807 B(  2-O ,  3-C ) :   1.1386 B(  3-C ,  4-O ) :   1.9625 
B(  3-C ,  5-C ) :   1.0594 B(  5-C ,  6-C ) :   1.6478 B(  5-C , 12-C ) :   0.9732 
B(  6-C ,  7-C ) :   0.9542 B(  6-C ,  8-N ) :   1.1341 B(  7-C , 25-H ) :   0.9640 
B(  7-C , 26-H ) :   0.9663 B(  7-C , 27-H ) :   0.9920 B(  8-N ,  9-C ) :   1.1820 
B(  8-N , 28-H ) :   0.9474 B(  9-C , 10-S ) :   1.6241 B(  9-C , 11-N ) :   1.2942 
B( 11-N , 12-C ) :   1.0138 B( 11-N , 29-H ) :   0.9499 B( 12-C , 13-C ) :   0.9050 
B( 12-C , 30-H ) :   0.9791 B( 13-C , 14-C ) :   1.3841 B( 13-C , 19-C ) :   1.3855 
B( 14-C , 15-C ) :   1.3960 B( 14-C , 31-H ) :   0.9692 B( 15-C , 16-C ) :   1.3586 
B( 15-C , 32-H ) :   0.9723 B( 16-C , 17-C ) :   1.3349 B( 16-C , 33-H ) :   0.9861 
B( 17-C , 18-O ) :   1.0963 B( 17-C , 19-C ) :   1.3755 B( 18-O , 34-H ) :   0.9803 
B( 19-C , 35-H ) :   0.9551 

-------
TIMINGS
-------

Total SCF time: 0 days 1 hours 27 min 20 sec 

Total time                  ....    5240.833 sec
Sum of individual times     ....    5236.226 sec  ( 99.9%)

Fock matrix formation       ....    5225.177 sec  ( 99.7%)
Diagonalization             ....       1.150 sec  (  0.0%)
Density matrix formation    ....       0.208 sec  (  0.0%)
Population analysis         ....       0.242 sec  (  0.0%)
Initial guess               ....       4.500 sec  (  0.1%)
Orbital Transformation      ....       0.000 sec  (  0.0%)
Orbital Orthonormalization  ....       0.000 sec  (  0.0%)
DIIS solution               ....       2.130 sec  (  0.0%)
SOSCF solution              ....       1.582 sec  (  0.0%)

------------------------------------------------------------------------------
                                ORCA  MP2 
------------------------------------------------------------------------------

Freezing NCore=48 chemical core electrons

-------------
RI-MP2 ENERGY
-------------
Dimension of the basis                    ...  828
Memory devoted to MP2                     ...  256 MB   
Data format for buffers                   ... DOUBLE
Compression type for matrix containers    ... UNCOMPRESSED
Overall scaling of the MP2 energy         ...   1.000e+00
Calculating two index integrals           ... done (    0.039 sec)
Cholesky decomposition of V**-1           ... done (    0.326 sec)

-----------------
RI-TRANSFORMATION (AUX index driven)
-----------------

Dimension of the orbital-basis         ... 828
Dimension of the aux-basis             ... 2141
Transformation of internal/external MOs...   24-  76 to   77- 827
Number Format for Storage              ... Double (8 Byte)
Integral mode                          ... Direct

First Phase: integral generation and transformation of MO indices
  Aux angular momentum 0               ... done (    4.539 sec)
  Aux angular momentum 1               ... done (    7.291 sec)
  Aux angular momentum 2               ... done (    9.645 sec)
  Aux angular momentum 3               ... done (    7.887 sec)
  Aux angular momentum 4               ... done (    2.735 sec)
Closing buffer VIA ( 0.63 GB; CompressionRatio= 1.00)
  Phase 1 completed in    32.240 sec
Second Phase: sorting and transformation of aux index

IA-Transformation
Memory available                       ... 167 MB 
Max. # MO pairs treated in a batch     ... 12    
# of internal orbitals                 ... 53
# batches for internal orbitals        ... 5
Closing buffer IAV ( 0.63 GB; CompressionRatio= 1.00)
(ia|v) transformation done in    19.758 sec

  Phase 2 completed in    19.777 sec
RI-Integral transformation completed in    52.021 sec
Opening buffers                              ... done

Starting loop over batches of integrals:

Operator 0  - window                       ... ( 24- 76)x( 77-827)
Operator 0  - Memory available             ...   256 MB
Operator 0  - Memory needed per MO         ...  12.3 MB
Operator 0  - Number of orbitals per batch ... 13
Operator 0  - Number of batches            ... 5

OPERATOR  0   PASS   0:  MOs    24 ...   36
  Reading integrals       ... ok
  Internal MO  26
  Internal MO  29
  Internal MO  32
  Internal MO  35
OPERATOR  0   PASS   1:  MOs    37 ...   49
  Reading integrals       ... ok
  Internal MO  38
  Internal MO  41
  Internal MO  44
  Internal MO  47
OPERATOR  0   PASS   2:  MOs    50 ...   62
  Reading integrals       ... ok
  Internal MO  50
  Internal MO  53
  Internal MO  56
  Internal MO  59
  Internal MO  62
OPERATOR  0   PASS   3:  MOs    63 ...   75
  Reading integrals       ... ok
  Internal MO  65
  Internal MO  68
  Internal MO  71
  Internal MO  74
OPERATOR  0   PASS   4:  MOs    76 ...   76
  Reading integrals       ... ok
Time spent in pair loops =    81.218 sec
Deleting buffer (Ka|jb)[aa] ...done

-----------------------------------------------
 RI-MP2 CORRELATION ENERGY:     -3.543896230 Eh
-----------------------------------------------


-------
TIMINGS
-------

Total time                :  133.717 sec
Integral trafo            :   52.035 sec ( 38.9%)
I/O of integrals          :    1.108 sec (  0.8%)
K(i,j) Operators          :   52.073 sec ( 38.9%)
T(i,j) pair energies      :    8.433 sec (  6.3%)
V-calculation             :    0.039 sec (  0.0%)
V**(-1/2)                 :    0.326 sec (  0.2%)
Gamma(ia|P)               :    0.000 sec (  0.0%)
Gamma-Trafo               :    0.000 sec (  0.0%)
D(virtual)                :    0.000 sec (  0.0%)
D(internal)               :    0.000 sec (  0.0%)
W(virtual)                :    0.000 sec (  0.0%)
W(internal)               :    0.000 sec (  0.0%)
L(virtual)                :    0.000 sec (  0.0%)
L(internal)               :    0.000 sec (  0.0%)
G(D)                      :    0.000 sec (  0.0%)
G(Z)                      :    0.000 sec (  0.0%)
Z-Vector Solution         :    0.000 sec (  0.0%)
3-Index Derivative        :    0.000 sec (  0.0%)
2-Index Derivative        :    0.000 sec (  0.0%)
Separable Gradient        :    0.000 sec (  0.0%)


---------------------------------------
MP2 TOTAL ENERGY:    -1274.290912920 Eh
---------------------------------------

-------------------------   --------------------
FINAL SINGLE POINT ENERGY     -1274.290912919982
-------------------------   --------------------


                            ***************************************
                            *     ORCA property calculations      *
                            ***************************************


  WARNING: The energy has been calculated at the MP2 level but the densities
           used in the property calculations are still SCF densities
           MP2 response densities have not been calculated 
           use %mp2 Density relaxed end
           or  %mp2 Density unrelaxed end

                                    ---------------------
                                    Active property flags
                                    ---------------------
   (+) Dipole Moment


------------------------------------------------------------------------------
                       ORCA ELECTRIC PROPERTIES CALCULATION
------------------------------------------------------------------------------

Dipole Moment Calculation                       ... on
Quadrupole Moment Calculation                   ... off
Polarizability Calculation                      ... off
GBWName                                         ... G2_CONFS/Conf590.orca.gbw
Electron density file                           ... G2_CONFS/Conf590.orca.scfp
The origin for moment calculation is the CENTER OF MASS  = (32.880522, 31.507087 35.517310)

-------------
DIPOLE MOMENT
-------------
                                X             Y             Z
Electronic contribution:      9.93413      10.37387      11.21262
Nuclear contribution   :    -11.41892     -11.31985     -12.58507
                        -----------------------------------------
Total Dipole Moment    :     -1.48480      -0.94598      -1.37245
                        -----------------------------------------
Magnitude (a.u.)       :      2.23229
Magnitude (Debye)      :      5.67402



--------------------
Rotational spectrum 
--------------------
 
Rotational constants in cm-1:     0.010647     0.008754     0.005784 
Rotational constants in MHz :   319.185676   262.439050   173.393667 

 Dipole components along the rotational axes: 
x,y,z [a.u.] :     2.114701     0.082849     0.710127 
x,y,z [Debye]:     5.375143     0.210586     1.804999 

 

Timings for individual modules:

Sum of individual times         ...     5376.235 sec (=  89.604 min)
GTO integral calculation        ...        1.215 sec (=   0.020 min)   0.0 %
SCF iterations                  ...     5240.894 sec (=  87.348 min)  97.5 %
MP2 module                      ...      134.126 sec (=   2.235 min)   2.5 %
                             ****ORCA TERMINATED NORMALLY****
TOTAL RUN TIME: 0 days 1 hours 29 minutes 37 seconds 22 msec
