
                                 *****************
                                 * O   R   C   A *
                                 *****************

           --- An Ab Initio, DFT and Semiempirical electronic structure package ---

                  #######################################################
                  #                        -***-                        #
                  #          Department of theory and spectroscopy      #
                  #               Directorship: Frank Neese             #
                  #        Max Planck Institute fuer Kohlenforschung    #
                  #                Kaiser Wilhelm Platz 1               #
                  #                 D-45470 Muelheim/Ruhr               #
                  #                      Germany                        #
                  #                                                     #
                  #                  All rights reserved                #
                  #                        -***-                        #
                  #######################################################


                         Program Version 4.2.0 -  RELEASE  -


 With contributions from (in alphabetic order):
   Daniel Aravena         : Magnetic Suceptibility
   Michael Atanasov       : Ab Initio Ligand Field Theory (pilot matlab implementation)
   Alexander A. Auer      : GIAO ZORA, VPT2
   Ute Becker             : Parallelization
   Giovanni Bistoni       : ED, misc. LED, open-shell LED, HFLED
   Martin Brehm           : Molecular dynamics
   Dmytro Bykov           : SCF Hessian
   Vijay G. Chilkuri      : MRCI spin determinant printing, contributions to CSF-ICE
   Dipayan Datta          : RHF DLPNO-CCSD density
   Achintya Kumar Dutta   : EOM-CC, STEOM-CC
   Dmitry Ganyushin       : Spin-Orbit,Spin-Spin,Magnetic field MRCI
   Miquel Garcia          : C-PCM Hessian, Gaussian charge scheme
   Yang Guo               : DLPNO-NEVPT2, CIM, IAO-localization
   Andreas Hansen         : Spin unrestricted coupled pair/coupled cluster methods
   Benjamin Helmich-Paris : CASSCF linear response (MC-RPA)
   Lee Huntington         : MR-EOM, pCC
   Robert Izsak           : Overlap fitted RIJCOSX, COSX-SCS-MP3, EOM
   Christian Kollmar      : KDIIS, OOCD, Brueckner-CCSD(T), CCSD density
   Simone Kossmann        : Meta GGA functionals, TD-DFT gradient, OOMP2, MP2 Hessian
   Martin Krupicka        : AUTO-CI
   Lucas Lang             : DCDCAS
   Dagmar Lenk            : GEPOL surface, SMD
   Dimitrios Liakos       : Extrapolation schemes; Compound Job, initial MDCI parallelization
   Dimitrios Manganas     : Further ROCIS development; embedding schemes
   Dimitrios Pantazis     : SARC Basis sets
   Taras Petrenko         : DFT Hessian,TD-DFT gradient, ASA, ECA, R-Raman, ABS, FL, XAS/XES, NRVS
   Peter Pinski           : DLPNO-MP2, DLPNO-MP2 Gradient
   Christoph Reimann      : Effective Core Potentials
   Marius Retegan         : Local ZFS, SOC
   Christoph Riplinger    : Optimizer, TS searches, QM/MM, DLPNO-CCSD(T), (RO)-DLPNO pert. Triples
   Tobias Risthaus        : Range-separated hybrids, TD-DFT gradient, RPA, STAB
   Michael Roemelt        : Original ROCIS implementation
   Masaaki Saitow         : Open-shell DLPNO-CCSD energy and density
   Barbara Sandhoefer     : DKH picture change effects
   Avijit Sen             : IP-ROCIS
   Kantharuban Sivalingam : CASSCF convergence, NEVPT2, FIC-MRCI
   Bernardo de Souza      : ESD, SOC TD-DFT
   Georgi Stoychev        : AutoAux, RI-MP2 NMR
   Willem Van den Heuvel  : Paramagnetic NMR
   Boris Wezisla          : Elementary symmetry handling
   Frank Wennmohs         : Technical directorship


 We gratefully acknowledge several colleagues who have allowed us to
 interface, adapt or use parts of their codes:
   Stefan Grimme, W. Hujo, H. Kruse,             : VdW corrections, initial TS optimization,
                  C. Bannwarth                     DFT functionals, gCP, sTDA/sTD-DF
   Ed Valeev, F. Pavosevic, A. Kumar             : LibInt (2-el integral package), F12 methods
   Garnet Chan, S. Sharma, J. Yang, R. Olivares  : DMRG
   Ulf Ekstrom                                   : XCFun DFT Library
   Mihaly Kallay                                 : mrcc  (arbitrary order and MRCC methods)
   Andreas Klamt, Michael Diedenhofen            : otool_cosmo (COSMO solvation model)
   Jiri Pittner, Ondrej Demel                    : Mk-CCSD
   Frank Weinhold                                : gennbo (NPA and NBO analysis)
   Christopher J. Cramer and Donald G. Truhlar   : smd solvation model
   Lars Goerigk                                  : TD-DFT with DH, B97 family of functionals
   V. Asgeirsson, H. Jonsson                     : NEB implementation
   FAccTs GmbH                                   : IRC, NEB, NEB-TS, Multilevel, MM, QM/MM, CI optimization
   S Lehtola, MJT Oliveira, MAL Marques          : LibXC Library


 Your calculation uses the libint2 library for the computation of 2-el integrals
 For citations please refer to: http://libint.valeyev.net

 Your ORCA version has been built with support for libXC version: 4.2.3
 For citations please refer to: https://tddft.org/programs/libxc/

 This ORCA versions uses:
   CBLAS   interface :  Fast vector & matrix operations
   LAPACKE interface :  Fast linear algebra routines
   SCALAPACK package :  Parallel linear algebra routines


----- Orbital basis set information -----
Your calculation utilizes the basis: cc-pVTZ 
       H, B-Ne : Obtained from the ccRepo (grant-hill.group.shef.ac.uk/ccrepo) Feb. 2017
                 T. H. Dunning, Jr., J. Chem. Phys. 90, 1007 (1989)
            He : Obtained from the ccRepo (grant-hill.group.shef.ac.uk/ccrepo) Feb. 2017
                 D. E. Woon, T. H. Dunning, Jr., J. Chem. Phys. 100, 2975 (1994)
  Li-Be, Na-Mg : Obtained from the ccRepo (grant-hill.group.shef.ac.uk/ccrepo) Feb. 2017
                 B. P. Prascher, D. E. Woon, K. A. Peterson, T. H. Dunning, Jr., A. K. Wilson, Theor. Chem. Acc. 128, 69 (2011)
         Al-Ar : Obtained from the ccRepo (grant-hill.group.shef.ac.uk/ccrepo) Feb. 2017
                 D. E. Woon, T. H. Dunning, Jr., J. Chem. Phys. 98, 1358 (1993)
            Ca : Obtained from the Peterson Research Group Website (tyr0.chem.wsu.edu/~kipeters) Feb. 2017
                 J. Koput, K. A. Peterson, J. Phys. Chem. 106, 9595 (2002)
         Sc-Zn : Obtained from the ccRepo (grant-hill.group.shef.ac.uk/ccrepo) Feb. 2017
                 N. B. Balabanov, K. A. Peterson, J. Chem. Phys. 123, 064107 (2005)
                 N. B. Balabanov, K. A. Peterson, J. Chem. Phys. 125, 074110 (2006)
         Ga-Kr : Obtained from the ccRepo (grant-hill.group.shef.ac.uk/ccrepo) Feb. 2017
                 A. K. Wilson, D. E. Woon, K. A. Peterson, T. H. Dunning, Jr., J. Chem. Phys. 110, 7667 (1999)
             Y : Obtained from the ccRepo (grant-hill.group.shef.ac.uk/ccrepo) Feb. 2017
                 K. A. Peterson, D. Figgen, M. Dolg, H. Stoll, J. Chem. Phys. 126, 124101 (2007)
        Ag, Au : Obtained from the Peterson Research Group Website (tyr0.chem.wsu.edu/~kipeters) Feb. 2017
                 K. A. Peterson, C. Puzzarini, Theor. Chem. Acc. 114, 283 (2005)

----- AuxC basis set information -----
Your calculation utilizes the auxiliary basis: cc-pVTZ/C 
  Obtained from the EMSL Basis Set Exchange (bse.pnl.gov) Feb. 2017
  H-He, B-F, Al-Ar, Ga-Kr : F. Weigend, A. Kohn, C. Hattig, J. Chem. Phys. 116, 3175 (2002)
             Li-Be, Na-Mg : C. Haettig, Phys. Chem. Chem. Phys. 7, 59 (2005)
                       Ne : C. Haettig, Phys. Chem. Chem. Phys. 7, 59 (2005)
                            F. Weigend, A. Kohn, C. Hattig, J. Chem. Phys. 116, 3175 (2002)
                    Sc-Zn : J. G. Hill, J. A. Platts, J. Chem. Phys. 128, 044104 (2008)

================================================================================
                                        WARNINGS
                       Please study these warnings very carefully!
================================================================================


WARNING: No MP2 level density has been requested!
         To caclulate MP2 level properties use
         %mp2 Density relaxed end
         or
         %mp2 Density unrelaxed end

WARNING: Post HF methods need fully converged wavefunctions
  ===> : Setting SCFConvForced true
         You can overwrite this default with %scf ConvForced false 


INFO   : the flag for use of LIBINT has been found!

================================================================================
                                       INPUT FILE
================================================================================
NAME = G2_CONFS/Conf3.orca
|  1> ! ri-mp2 cc-pvtz cc-pvtz/c TightSCF NoKeepInts
|  2> 
|  3> %scf
|  4>   MaxCore 4096
|  5> end
|  6> *xyz  0  1
|  7>     C       15.2809537   14.3020365   16.9941160
|  8>     C       15.3688656   15.5656861   16.1159896
|  9>     O       16.6821802   15.6332313   15.5197934
| 10>     C       17.8077670   15.8709955   16.2655675
| 11>     O       18.8606698   15.3143701   16.0150878
| 12>     C       17.6347356   16.7954138   17.4299230
| 13>     C       17.3493365   18.0858961   17.1081104
| 14>     C       16.8261943   18.6203191   15.7868325
| 15>     N       17.6275797   19.1101868   18.0169523
| 16>     C       18.5088556   18.9975159   19.0572321
| 17>     S       18.9414470   20.2986995   19.9814650
| 18>     N       19.0352989   17.7497018   19.2690113
| 19>     C       18.5560731   16.5113452   18.6243930
| 20>     C       17.8222727   15.6509179   19.6440296
| 21>     C       18.2060366   14.3112684   19.8364989
| 22>     C       17.5197667   13.4954676   20.7515551
| 23>     C       16.4377796   14.0223353   21.4773087
| 24>     C       16.0494121   15.3550593   21.2841566
| 25>     O       14.9983733   15.8634282   21.9751779
| 26>     C       16.7339061   16.1648190   20.3724562
| 27>     H       15.9552339   14.3655183   17.8560943
| 28>     H       15.5469119   13.4092555   16.4140064
| 29>     H       14.2609489   14.1701105   17.3749477
| 30>     H       14.6187419   15.4948748   15.3176159
| 31>     H       15.1383040   16.4553824   16.7144322
| 32>     H       17.3382853   18.1569647   14.9334177
| 33>     H       16.9847115   19.7015505   15.6871736
| 34>     H       15.7516308   18.4359602   15.6774693
| 35>     H       17.2843116   20.0417981   17.8439303
| 36>     H       19.6838519   17.6883709   20.0436035
| 37>     H       19.4548049   15.9859490   18.2692410
| 38>     H       19.0356041   13.8984139   19.2669013
| 39>     H       17.8254184   12.4600251   20.8928169
| 40>     H       15.9039581   13.3950368   22.1836746
| 41>     H       14.6995384   15.1804820   22.5945406
| 42>     H       16.4172435   17.1936081   20.2384811
| 43> *
| 44> 
| 45>                          ****END OF INPUT****
================================================================================

                       ****************************
                       * Single Point Calculation *
                       ****************************

---------------------------------
CARTESIAN COORDINATES (ANGSTROEM)
---------------------------------
  C     15.280954   14.302036   16.994116
  C     15.368866   15.565686   16.115990
  O     16.682180   15.633231   15.519793
  C     17.807767   15.870995   16.265567
  O     18.860670   15.314370   16.015088
  C     17.634736   16.795414   17.429923
  C     17.349336   18.085896   17.108110
  C     16.826194   18.620319   15.786832
  N     17.627580   19.110187   18.016952
  C     18.508856   18.997516   19.057232
  S     18.941447   20.298699   19.981465
  N     19.035299   17.749702   19.269011
  C     18.556073   16.511345   18.624393
  C     17.822273   15.650918   19.644030
  C     18.206037   14.311268   19.836499
  C     17.519767   13.495468   20.751555
  C     16.437780   14.022335   21.477309
  C     16.049412   15.355059   21.284157
  O     14.998373   15.863428   21.975178
  C     16.733906   16.164819   20.372456
  H     15.955234   14.365518   17.856094
  H     15.546912   13.409255   16.414006
  H     14.260949   14.170110   17.374948
  H     14.618742   15.494875   15.317616
  H     15.138304   16.455382   16.714432
  H     17.338285   18.156965   14.933418
  H     16.984711   19.701550   15.687174
  H     15.751631   18.435960   15.677469
  H     17.284312   20.041798   17.843930
  H     19.683852   17.688371   20.043603
  H     19.454805   15.985949   18.269241
  H     19.035604   13.898414   19.266901
  H     17.825418   12.460025   20.892817
  H     15.903958   13.395037   22.183675
  H     14.699538   15.180482   22.594541
  H     16.417244   17.193608   20.238481

----------------------------
CARTESIAN COORDINATES (A.U.)
----------------------------
  NO LB      ZA    FRAG     MASS         X           Y           Z
   0 C     6.0000    0    12.011   28.876818   27.026932   32.114225
   1 C     6.0000    0    12.011   29.042947   29.414884   30.454807
   2 O     8.0000    0    15.999   31.524752   29.542526   29.328159
   3 C     6.0000    0    12.011   33.651803   29.991835   30.737468
   4 O     8.0000    0    15.999   35.641501   28.939965   30.264130
   5 C     6.0000    0    12.011   33.324821   31.738732   32.937781
   6 C     6.0000    0    12.011   32.785495   34.177391   32.329643
   7 C     6.0000    0    12.011   31.796899   35.187304   29.832790
   8 N     7.0000    0    14.007   33.311298   36.113019   34.047106
   9 C     6.0000    0    12.011   34.976668   35.900102   36.012950
  10 S    16.0000    0    32.060   35.794147   38.358983   37.759497
  11 N     7.0000    0    14.007   35.971502   33.542075   36.413154
  12 C     6.0000    0    12.011   35.065896   31.201921   35.195002
  13 C     6.0000    0    12.011   33.679214   29.575949   37.121836
  14 C     6.0000    0    12.011   34.404423   27.044378   37.485550
  15 C     6.0000    0    12.011   33.107561   25.502738   39.214756
  16 C     6.0000    0    12.011   31.062902   26.498373   40.586232
  17 C     6.0000    0    12.011   30.328993   29.016857   40.221227
  18 O     8.0000    0    15.999   28.342818   29.977535   41.527068
  19 C     6.0000    0    12.011   31.622500   30.547081   38.498363
  20 H     1.0000    0     1.008   30.151022   27.146895   33.743128
  21 H     1.0000    0     1.008   29.379406   25.339821   31.017977
  22 H     1.0000    0     1.008   26.949288   26.777628   32.833893
  23 H     1.0000    0     1.008   27.625419   29.281070   28.946099
  24 H     1.0000    0     1.008   28.607249   31.096166   31.585699
  25 H     1.0000    0     1.008   32.764611   34.311691   28.220070
  26 H     1.0000    0     1.008   32.096453   37.230535   29.644462
  27 H     1.0000    0     1.008   29.766268   34.838916   29.626123
  28 H     1.0000    0     1.008   32.662615   37.873510   33.720141
  29 H     1.0000    0     1.008   37.197089   33.426177   37.876921
  30 H     1.0000    0     1.008   36.764253   30.209066   34.523862
  31 H     1.0000    0     1.008   35.972079   26.264196   36.409167
  32 H     1.0000    0     1.008   33.685159   23.546035   39.481702
  33 H     1.0000    0     1.008   30.054125   25.312951   41.921070
  34 H     1.0000    0     1.008   27.778102   28.686954   42.697494
  35 H     1.0000    0     1.008   31.024094   32.491211   38.245187

--------------------------------
INTERNAL COORDINATES (ANGSTROEM)
--------------------------------
 C      0   0   0     0.000000000000     0.00000000     0.00000000
 C      1   0   0     1.541312683435     0.00000000     0.00000000
 O      2   1   0     1.443886249505   108.99454320     0.00000000
 C      3   2   1     1.371005640895   122.02273868   291.47489974
 O      4   3   2     1.217035834429   121.26529512   142.54345776
 C      4   3   2     1.496734040884   115.80838204   325.40704704
 C      6   4   3     1.360279589795   115.22324899   293.28506484
 C      7   6   4     1.518242732035   127.74295842    17.93085079
 N      7   6   4     1.397349031434   119.98431056   202.73202944
 C      9   7   6     1.368036551381   124.22750083    19.68585983
 S     10   9   7     1.653608337456   121.91957965   172.03182405
 N     10   9   7     1.370778248232   116.09445236   353.47246305
 C     12  10   9     1.476047827424   124.85838882   349.06141669
 C     13  12  10     1.522648009779   109.76157281   251.93048637
 C     14  13  12     1.406762220575   119.88614864   233.77884016
 C     15  14  13     1.404928884351   120.58558077   181.44189626
 C     16  15  14     1.405348336101   119.65259389     0.20443982
 C     17  16  15     1.401531415619   119.91193682     0.04913838
 O     18  17  16     1.356698910830   120.05236007   179.45776855
 C     18  17  16     1.398370632965   120.32181212   359.97007361
 H      1   2   3     1.096216364006   111.43386281    66.11043552
 H      1   2   3     1.097414609945   110.60890835   305.60081093
 H      1   2   3     1.096743837559   110.45650311   185.93081540
 H      2   1   3     1.097770636500   108.81328876   118.65544757
 H      2   1   3     1.096745961070   110.01177479   236.53253680
 H      8   7   6     1.097839384035   111.54416046   317.13975638
 H      8   7   6     1.097324445819   112.09233682   198.27884555
 H      8   7   6     1.095735017719   111.44132727    77.92207093
 H      9   7   6     1.007804155205   119.87567780   189.79727984
 H     12  10   9     1.012114395414   114.80260155   180.05907826
 H     13  12  10     1.099951343656   106.04958004   133.28735823
 H     15  14  13     1.087691363003   119.85943640     0.91240022
 H     16  15  14     1.088815424513   119.97248074   180.01461012
 H     17  16  15     1.085090589143   119.88150429   179.88780744
 H     19  18  17     0.969189333259   107.47687355     4.47848378
 H     20  18  17     1.084726482546   119.13311061   180.02516902

---------------------------
INTERNAL COORDINATES (A.U.)
---------------------------
 C      0   0   0     0.000000000000     0.00000000     0.00000000
 C      1   0   0     2.912658858432     0.00000000     0.00000000
 O      2   1   0     2.728549580100   108.99454320     0.00000000
 C      3   2   1     2.590825189353   122.02273868   291.47489974
 O      4   3   2     2.299864422240   121.26529512   142.54345776
 C      4   3   2     2.828417432588   115.80838204   325.40704704
 C      6   4   3     2.570555890275   115.22324899   293.28506484
 C      7   6   4     2.869062968363   127.74295842    17.93085079
 N      7   6   4     2.640606982910   119.98431056   202.73202944
 C      9   7   6     2.585214423305   124.22750083    19.68585983
 S     10   9   7     3.124866890561   121.91957965   172.03182405
 N     10   9   7     2.590395479495   116.09445236   353.47246305
 C     12  10   9     2.789326154401   124.85838882   349.06141669
 C     13  12  10     2.877387736843   109.76157281   251.93048637
 C     14  13  12     2.658395332433   119.88614864   233.77884016
 C     15  14  13     2.654930829060   120.58558077   181.44189626
 C     16  15  14     2.655723477993   119.65259389     0.20443982
 C     17  16  15     2.648510543607   119.91193682     0.04913838
 O     18  17  16     2.563789387657   120.05236007   179.45776855
 C     18  17  16     2.642537530023   120.32181212   359.97007361
 H      1   2   3     2.071548711494   111.43386281    66.11043552
 H      1   2   3     2.073813068160   110.60890835   305.60081093
 H      1   2   3     2.072545492053   110.45650311   185.93081540
 H      2   1   3     2.074485860845   108.81328876   118.65544757
 H      2   1   3     2.072549504906   110.01177479   236.53253680
 H      8   7   6     2.074615774860   111.54416046   317.13975638
 H      8   7   6     2.073642682654   112.09233682   198.27884555
 H      8   7   6     2.070639098836   111.44132727    77.92207093
 H      9   7   6     1.904473849966   119.87567780   189.79727984
 H     12  10   9     1.912619023532   114.80260155   180.05907826
 H     13  12  10     2.078606800148   106.04958004   133.28735823
 H     15  14  13     2.055438794308   119.85943640     0.91240022
 H     16  15  14     2.057562962720   119.97248074   180.01461012
 H     17  16  15     2.050524043976   119.88150429   179.88780744
 H     19  18  17     1.831502411778   107.47687355     4.47848378
 H     20  18  17     2.049835982224   119.13311061   180.02516902

---------------------
BASIS SET INFORMATION
---------------------
There are 5 groups of distinct atoms

 Group   1 Type C   : 18s5p2d1f contracted to 4s3p2d1f pattern {8811/311/11/1}
 Group   2 Type O   : 18s5p2d1f contracted to 4s3p2d1f pattern {8811/311/11/1}
 Group   3 Type N   : 18s5p2d1f contracted to 4s3p2d1f pattern {8811/311/11/1}
 Group   4 Type S   : 41s16p2d1f contracted to 5s4p2d1f pattern {13131311/7711/11/1}
 Group   5 Type H   : 5s2p1d contracted to 3s2p1d pattern {311/11/1}

Atom   0C    basis set group =>   1
Atom   1C    basis set group =>   1
Atom   2O    basis set group =>   2
Atom   3C    basis set group =>   1
Atom   4O    basis set group =>   2
Atom   5C    basis set group =>   1
Atom   6C    basis set group =>   1
Atom   7C    basis set group =>   1
Atom   8N    basis set group =>   3
Atom   9C    basis set group =>   1
Atom  10S    basis set group =>   4
Atom  11N    basis set group =>   3
Atom  12C    basis set group =>   1
Atom  13C    basis set group =>   1
Atom  14C    basis set group =>   1
Atom  15C    basis set group =>   1
Atom  16C    basis set group =>   1
Atom  17C    basis set group =>   1
Atom  18O    basis set group =>   2
Atom  19C    basis set group =>   1
Atom  20H    basis set group =>   5
Atom  21H    basis set group =>   5
Atom  22H    basis set group =>   5
Atom  23H    basis set group =>   5
Atom  24H    basis set group =>   5
Atom  25H    basis set group =>   5
Atom  26H    basis set group =>   5
Atom  27H    basis set group =>   5
Atom  28H    basis set group =>   5
Atom  29H    basis set group =>   5
Atom  30H    basis set group =>   5
Atom  31H    basis set group =>   5
Atom  32H    basis set group =>   5
Atom  33H    basis set group =>   5
Atom  34H    basis set group =>   5
Atom  35H    basis set group =>   5
---------------------------------
AUXILIARY/C BASIS SET INFORMATION
---------------------------------
There are 5 groups of distinct atoms

 Group   1 Type C   : 8s6p5d3f1g contracted to 8s6p5d3f1g pattern {11111111/111111/11111/111/1}
 Group   2 Type O   : 8s6p5d3f1g contracted to 8s6p5d3f1g pattern {11111111/111111/11111/111/1}
 Group   3 Type N   : 8s6p5d3f1g contracted to 8s6p5d3f1g pattern {11111111/111111/11111/111/1}
 Group   4 Type S   : 10s8p7d5f2g contracted to 10s8p7d5f2g pattern {1111111111/11111111/1111111/11111/11}
 Group   5 Type H   : 4s3p2d1f contracted to 4s3p2d1f pattern {1111/111/11/1}

Atom   0C    basis set group =>   1
Atom   1C    basis set group =>   1
Atom   2O    basis set group =>   2
Atom   3C    basis set group =>   1
Atom   4O    basis set group =>   2
Atom   5C    basis set group =>   1
Atom   6C    basis set group =>   1
Atom   7C    basis set group =>   1
Atom   8N    basis set group =>   3
Atom   9C    basis set group =>   1
Atom  10S    basis set group =>   4
Atom  11N    basis set group =>   3
Atom  12C    basis set group =>   1
Atom  13C    basis set group =>   1
Atom  14C    basis set group =>   1
Atom  15C    basis set group =>   1
Atom  16C    basis set group =>   1
Atom  17C    basis set group =>   1
Atom  18O    basis set group =>   2
Atom  19C    basis set group =>   1
Atom  20H    basis set group =>   5
Atom  21H    basis set group =>   5
Atom  22H    basis set group =>   5
Atom  23H    basis set group =>   5
Atom  24H    basis set group =>   5
Atom  25H    basis set group =>   5
Atom  26H    basis set group =>   5
Atom  27H    basis set group =>   5
Atom  28H    basis set group =>   5
Atom  29H    basis set group =>   5
Atom  30H    basis set group =>   5
Atom  31H    basis set group =>   5
Atom  32H    basis set group =>   5
Atom  33H    basis set group =>   5
Atom  34H    basis set group =>   5
Atom  35H    basis set group =>   5
------------------------------------------------------------------------------
                           ORCA GTO INTEGRAL CALCULATION
------------------------------------------------------------------------------

                         BASIS SET STATISTICS AND STARTUP INFO

 # of primitive gaussian shells          ...  682
 # of primitive gaussian functions       ... 1312
 # of contracted shells                  ...  298
 # of contracted basis functions         ...  828
 Highest angular momentum                ...    3
 Maximum contraction depth               ...   13
 Integral package used                   ... LIBINT
 Integral threshhold            Thresh   ...  2.500e-11
 Primitive cut-off              TCut     ...  2.500e-12


------------------------------ INTEGRAL EVALUATION ----------------------------


 * One electron integrals 
 Pre-screening matrix                    ... done
 Shell pair data                         ... done (   0.018 sec)

-------------------------------------------------------------------------------
                                 ORCA SCF
-------------------------------------------------------------------------------

------------
SCF SETTINGS
------------
Hamiltonian:
 Ab initio Hamiltonian  Method          .... Hartree-Fock(GTOs)


General Settings:
 Integral files         IntName         .... G2_CONFS/Conf3.orca
 Hartree-Fock type      HFTyp           .... RHF
 Total Charge           Charge          ....    0
 Multiplicity           Mult            ....    1
 Number of Electrons    NEL             ....  154
 Basis Dimension        Dim             ....  828
 Nuclear Repulsion      ENuc            ....   1720.3856546202 Eh

Convergence Acceleration:
 DIIS                   CNVDIIS         .... on
   Start iteration      DIISMaxIt       ....    12
   Startup error        DIISStart       ....  0.200000
   # of expansion vecs  DIISMaxEq       ....     5
   Bias factor          DIISBfac        ....   1.050
   Max. coefficient     DIISMaxC        ....  10.000
 Newton-Raphson         CNVNR           .... off
 SOSCF                  CNVSOSCF        .... on
   Start iteration      SOSCFMaxIt      ....   150
   Startup grad/error   SOSCFStart      ....  0.003300
 Level Shifting         CNVShift        .... on
   Level shift para.    LevelShift      ....    0.2500
   Turn off err/grad.   ShiftErr        ....    0.0010
 Zerner damping         CNVZerner       .... off
 Static damping         CNVDamp         .... on
   Fraction old density DampFac         ....    0.7000
   Max. Damping (<1)    DampMax         ....    0.9800
   Min. Damping (>=0)   DampMin         ....    0.0000
   Turn off err/grad.   DampErr         ....    0.1000
 Fernandez-Rico         CNVRico         .... off

SCF Procedure:
 Maximum # iterations   MaxIter         ....   125
 SCF integral mode      SCFMode         .... Direct
   Integral package                     .... LIBINT
 Reset frequency        DirectResetFreq ....    20
 Integral Threshold     Thresh          ....  2.500e-11 Eh
 Primitive CutOff       TCut            ....  2.500e-12 Eh

Convergence Tolerance:
 Convergence Check Mode ConvCheckMode   .... Total+1el-Energy
 Convergence forced     ConvForced      .... 1
 Energy Change          TolE            ....  1.000e-08 Eh
 1-El. energy change                    ....  1.000e-05 Eh
 Orbital Gradient       TolG            ....  1.000e-05
 Orbital Rotation angle TolX            ....  1.000e-05
 DIIS Error             TolErr          ....  5.000e-07


Diagonalization of the overlap matrix:
Smallest eigenvalue                        ... 3.401e-05
Time for diagonalization                   ...    0.178 sec
Threshold for overlap eigenvalues          ... 1.000e-08
Number of eigenvalues below threshold      ... 0
Time for construction of square roots      ...    0.179 sec
Total time needed                          ...    0.359 sec

-------------------
DFT GRID GENERATION
-------------------

General Integration Accuracy     IntAcc      ...  4.340
Radial Grid Type                 RadialGrid  ... Gauss-Chebyshev
Angular Grid (max. acc.)         AngularGrid ... Lebedev-110
Angular grid pruning method      GridPruning ... 3 (G Style)
Weight generation scheme         WeightScheme... Becke
Basis function cutoff            BFCut       ...    1.0000e-11
Integration weight cutoff        WCut        ...    1.0000e-14
Grids for H and He will be reduced by one unit

# of grid points (after initial pruning)     ...  46246 (   0.0 sec)
# of grid points (after weights+screening)   ...  41169 (   0.7 sec)
nearest neighbour list constructed           ...    0.0 sec
Grid point re-assignment to atoms done       ...    0.0 sec
Grid point division into batches done        ...    0.1 sec
Reduced shell lists constructed in    1.9 sec

Total number of grid points                  ...    41169
Total number of batches                      ...      663
Average number of points per batch           ...       62
Average number of grid points per atom       ...     1144
Average number of shells per batch           ...   152.73 (51.25%)
Average number of basis functions per batch  ...   388.57 (46.93%)
Average number of large shells per batch     ...    98.16 (64.27%)
Average number of large basis fcns per batch ...   251.12 (64.63%)
Maximum spatial batch extension              ...  24.26, 20.64, 18.65 au
Average spatial batch extension              ...   3.50,  3.37,  3.40 au

Time for grid setup =    2.706 sec

------------------------------
INITIAL GUESS: MODEL POTENTIAL
------------------------------
Loading Hartree-Fock densities                     ... done
Calculating cut-offs                               ... done
Setting up the integral package                    ... done
Initializing the effective Hamiltonian             ... done
Starting the Coulomb interaction                   ... done (   7.4 sec)
Reading the grid                                   ... done
Mapping shells                                     ... done
Starting the XC term evaluation                    ... done (   1.6 sec)
Transforming the Hamiltonian                       ... done (   0.1 sec)
Diagonalizing the Hamiltonian                      ... done (   0.2 sec)
Back transforming the eigenvectors                 ... done (   0.0 sec)
Now organizing SCF variables                       ... done
                      ------------------
                      INITIAL GUESS DONE (  12.6 sec)
                      ------------------
--------------
SCF ITERATIONS
--------------
ITER       Energy         Delta-E        Max-DP      RMS-DP      [F,P]     Damp
               ***  Starting incremental Fock matrix formation  ***
