
                                 *****************
                                 * O   R   C   A *
                                 *****************

           --- An Ab Initio, DFT and Semiempirical electronic structure package ---

                  #######################################################
                  #                        -***-                        #
                  #          Department of theory and spectroscopy      #
                  #               Directorship: Frank Neese             #
                  #        Max Planck Institute fuer Kohlenforschung    #
                  #                Kaiser Wilhelm Platz 1               #
                  #                 D-45470 Muelheim/Ruhr               #
                  #                      Germany                        #
                  #                                                     #
                  #                  All rights reserved                #
                  #                        -***-                        #
                  #######################################################


                         Program Version 4.2.0 -  RELEASE  -


 With contributions from (in alphabetic order):
   Daniel Aravena         : Magnetic Suceptibility
   Michael Atanasov       : Ab Initio Ligand Field Theory (pilot matlab implementation)
   Alexander A. Auer      : GIAO ZORA, VPT2
   Ute Becker             : Parallelization
   Giovanni Bistoni       : ED, misc. LED, open-shell LED, HFLED
   Martin Brehm           : Molecular dynamics
   Dmytro Bykov           : SCF Hessian
   Vijay G. Chilkuri      : MRCI spin determinant printing, contributions to CSF-ICE
   Dipayan Datta          : RHF DLPNO-CCSD density
   Achintya Kumar Dutta   : EOM-CC, STEOM-CC
   Dmitry Ganyushin       : Spin-Orbit,Spin-Spin,Magnetic field MRCI
   Miquel Garcia          : C-PCM Hessian, Gaussian charge scheme
   Yang Guo               : DLPNO-NEVPT2, CIM, IAO-localization
   Andreas Hansen         : Spin unrestricted coupled pair/coupled cluster methods
   Benjamin Helmich-Paris : CASSCF linear response (MC-RPA)
   Lee Huntington         : MR-EOM, pCC
   Robert Izsak           : Overlap fitted RIJCOSX, COSX-SCS-MP3, EOM
   Christian Kollmar      : KDIIS, OOCD, Brueckner-CCSD(T), CCSD density
   Simone Kossmann        : Meta GGA functionals, TD-DFT gradient, OOMP2, MP2 Hessian
   Martin Krupicka        : AUTO-CI
   Lucas Lang             : DCDCAS
   Dagmar Lenk            : GEPOL surface, SMD
   Dimitrios Liakos       : Extrapolation schemes; Compound Job, initial MDCI parallelization
   Dimitrios Manganas     : Further ROCIS development; embedding schemes
   Dimitrios Pantazis     : SARC Basis sets
   Taras Petrenko         : DFT Hessian,TD-DFT gradient, ASA, ECA, R-Raman, ABS, FL, XAS/XES, NRVS
   Peter Pinski           : DLPNO-MP2, DLPNO-MP2 Gradient
   Christoph Reimann      : Effective Core Potentials
   Marius Retegan         : Local ZFS, SOC
   Christoph Riplinger    : Optimizer, TS searches, QM/MM, DLPNO-CCSD(T), (RO)-DLPNO pert. Triples
   Tobias Risthaus        : Range-separated hybrids, TD-DFT gradient, RPA, STAB
   Michael Roemelt        : Original ROCIS implementation
   Masaaki Saitow         : Open-shell DLPNO-CCSD energy and density
   Barbara Sandhoefer     : DKH picture change effects
   Avijit Sen             : IP-ROCIS
   Kantharuban Sivalingam : CASSCF convergence, NEVPT2, FIC-MRCI
   Bernardo de Souza      : ESD, SOC TD-DFT
   Georgi Stoychev        : AutoAux, RI-MP2 NMR
   Willem Van den Heuvel  : Paramagnetic NMR
   Boris Wezisla          : Elementary symmetry handling
   Frank Wennmohs         : Technical directorship


 We gratefully acknowledge several colleagues who have allowed us to
 interface, adapt or use parts of their codes:
   Stefan Grimme, W. Hujo, H. Kruse,             : VdW corrections, initial TS optimization,
                  C. Bannwarth                     DFT functionals, gCP, sTDA/sTD-DF
   Ed Valeev, F. Pavosevic, A. Kumar             : LibInt (2-el integral package), F12 methods
   Garnet Chan, S. Sharma, J. Yang, R. Olivares  : DMRG
   Ulf Ekstrom                                   : XCFun DFT Library
   Mihaly Kallay                                 : mrcc  (arbitrary order and MRCC methods)
   Andreas Klamt, Michael Diedenhofen            : otool_cosmo (COSMO solvation model)
   Jiri Pittner, Ondrej Demel                    : Mk-CCSD
   Frank Weinhold                                : gennbo (NPA and NBO analysis)
   Christopher J. Cramer and Donald G. Truhlar   : smd solvation model
   Lars Goerigk                                  : TD-DFT with DH, B97 family of functionals
   V. Asgeirsson, H. Jonsson                     : NEB implementation
   FAccTs GmbH                                   : IRC, NEB, NEB-TS, Multilevel, MM, QM/MM, CI optimization
   S Lehtola, MJT Oliveira, MAL Marques          : LibXC Library


 Your calculation uses the libint2 library for the computation of 2-el integrals
 For citations please refer to: http://libint.valeyev.net

 Your ORCA version has been built with support for libXC version: 4.2.3
 For citations please refer to: https://tddft.org/programs/libxc/

 This ORCA versions uses:
   CBLAS   interface :  Fast vector & matrix operations
   LAPACKE interface :  Fast linear algebra routines
   SCALAPACK package :  Parallel linear algebra routines


----- Orbital basis set information -----
Your calculation utilizes the basis: cc-pVTZ 
       H, B-Ne : Obtained from the ccRepo (grant-hill.group.shef.ac.uk/ccrepo) Feb. 2017
                 T. H. Dunning, Jr., J. Chem. Phys. 90, 1007 (1989)
            He : Obtained from the ccRepo (grant-hill.group.shef.ac.uk/ccrepo) Feb. 2017
                 D. E. Woon, T. H. Dunning, Jr., J. Chem. Phys. 100, 2975 (1994)
  Li-Be, Na-Mg : Obtained from the ccRepo (grant-hill.group.shef.ac.uk/ccrepo) Feb. 2017
                 B. P. Prascher, D. E. Woon, K. A. Peterson, T. H. Dunning, Jr., A. K. Wilson, Theor. Chem. Acc. 128, 69 (2011)
         Al-Ar : Obtained from the ccRepo (grant-hill.group.shef.ac.uk/ccrepo) Feb. 2017
                 D. E. Woon, T. H. Dunning, Jr., J. Chem. Phys. 98, 1358 (1993)
            Ca : Obtained from the Peterson Research Group Website (tyr0.chem.wsu.edu/~kipeters) Feb. 2017
                 J. Koput, K. A. Peterson, J. Phys. Chem. 106, 9595 (2002)
         Sc-Zn : Obtained from the ccRepo (grant-hill.group.shef.ac.uk/ccrepo) Feb. 2017
                 N. B. Balabanov, K. A. Peterson, J. Chem. Phys. 123, 064107 (2005)
                 N. B. Balabanov, K. A. Peterson, J. Chem. Phys. 125, 074110 (2006)
         Ga-Kr : Obtained from the ccRepo (grant-hill.group.shef.ac.uk/ccrepo) Feb. 2017
                 A. K. Wilson, D. E. Woon, K. A. Peterson, T. H. Dunning, Jr., J. Chem. Phys. 110, 7667 (1999)
             Y : Obtained from the ccRepo (grant-hill.group.shef.ac.uk/ccrepo) Feb. 2017
                 K. A. Peterson, D. Figgen, M. Dolg, H. Stoll, J. Chem. Phys. 126, 124101 (2007)
        Ag, Au : Obtained from the Peterson Research Group Website (tyr0.chem.wsu.edu/~kipeters) Feb. 2017
                 K. A. Peterson, C. Puzzarini, Theor. Chem. Acc. 114, 283 (2005)

----- AuxC basis set information -----
Your calculation utilizes the auxiliary basis: cc-pVTZ/C 
  Obtained from the EMSL Basis Set Exchange (bse.pnl.gov) Feb. 2017
  H-He, B-F, Al-Ar, Ga-Kr : F. Weigend, A. Kohn, C. Hattig, J. Chem. Phys. 116, 3175 (2002)
             Li-Be, Na-Mg : C. Haettig, Phys. Chem. Chem. Phys. 7, 59 (2005)
                       Ne : C. Haettig, Phys. Chem. Chem. Phys. 7, 59 (2005)
                            F. Weigend, A. Kohn, C. Hattig, J. Chem. Phys. 116, 3175 (2002)
                    Sc-Zn : J. G. Hill, J. A. Platts, J. Chem. Phys. 128, 044104 (2008)

================================================================================
                                        WARNINGS
                       Please study these warnings very carefully!
================================================================================


WARNING: No MP2 level density has been requested!
         To caclulate MP2 level properties use
         %mp2 Density relaxed end
         or
         %mp2 Density unrelaxed end

WARNING: Post HF methods need fully converged wavefunctions
  ===> : Setting SCFConvForced true
         You can overwrite this default with %scf ConvForced false 


INFO   : the flag for use of LIBINT has been found!

================================================================================
                                       INPUT FILE
================================================================================
NAME = G2_CONFS/Conf30.orca
|  1> ! ri-mp2 cc-pvtz cc-pvtz/c TightSCF  NoKeepInts
|  2> 
|  3> %scf
|  4>   MaxCore 4096
|  5> end
|  6> *xyz  0  1
|  7>     C       14.5866759   14.4013152   16.8096350
|  8>     C       15.5868213   15.5582779   16.7480546
|  9>     O       16.9061987   14.9753058   16.5935084
| 10>     C       18.0665772   15.7085667   16.5008931
| 11>     O       19.1354349   15.1852628   16.2465698
| 12>     C       17.9748808   16.8161271   17.4729755
| 13>     C       17.4275286   17.9932478   17.0626323
| 14>     C       16.9358556   18.3160187   15.6530577
| 15>     N       17.6001889   19.1533398   17.8185850
| 16>     C       18.2926844   19.2225477   18.9992061
| 17>     S       18.3742373   20.6388205   19.8517891
| 18>     N       18.8818286   18.0566692   19.4437140
| 19>     C       18.8566866   16.7644443   18.7103510
| 20>     C       17.9988179   15.8556208   19.6496206
| 21>     C       18.4061051   14.4929671   19.7523496
| 22>     C       17.7073795   13.5461678   20.5143302
| 23>     C       16.5490861   13.9364931   21.1922025
| 24>     C       16.1058219   15.2628730   21.0896467
| 25>     O       14.9665559   15.6203434   21.7335368
| 26>     C       16.8116748   16.2141369   20.3264851
| 27>     H       14.9558297   13.6253090   17.4908239
| 28>     H       14.4577796   13.9627061   15.8131856
| 29>     H       13.6102481   14.7450291   17.1729663
| 30>     H       15.2956421   16.3026631   15.9971861
| 31>     H       15.5560931   16.0411535   17.7372746
| 32>     H       17.0448623   17.4812275   14.9480138
| 33>     H       17.5073647   19.1437369   15.2047007
| 34>     H       15.8822847   18.6145288   15.6577197
| 35>     H       17.2411611   20.0316917   17.4722445
| 36>     H       19.3239813   18.1263020   20.3500996
| 37>     H       19.6653211   16.0333721   18.7506763
| 38>     H       19.2820187   14.1330499   19.2129701
| 39>     H       18.0610557   12.5151849   20.5656429
| 40>     H       16.0006345   13.2051419   21.7800533
| 41>     H       14.6694337   14.8508245   22.2461484
| 42>     H       16.4222499   17.2215353   20.2651499
| 43> *
| 44> 
| 45>                          ****END OF INPUT****
================================================================================

                       ****************************
                       * Single Point Calculation *
                       ****************************

---------------------------------
CARTESIAN COORDINATES (ANGSTROEM)
---------------------------------
  C     14.586676   14.401315   16.809635
  C     15.586821   15.558278   16.748055
  O     16.906199   14.975306   16.593508
  C     18.066577   15.708567   16.500893
  O     19.135435   15.185263   16.246570
  C     17.974881   16.816127   17.472976
  C     17.427529   17.993248   17.062632
  C     16.935856   18.316019   15.653058
  N     17.600189   19.153340   17.818585
  C     18.292684   19.222548   18.999206
  S     18.374237   20.638820   19.851789
  N     18.881829   18.056669   19.443714
  C     18.856687   16.764444   18.710351
  C     17.998818   15.855621   19.649621
  C     18.406105   14.492967   19.752350
  C     17.707379   13.546168   20.514330
  C     16.549086   13.936493   21.192203
  C     16.105822   15.262873   21.089647
  O     14.966556   15.620343   21.733537
  C     16.811675   16.214137   20.326485
  H     14.955830   13.625309   17.490824
  H     14.457780   13.962706   15.813186
  H     13.610248   14.745029   17.172966
  H     15.295642   16.302663   15.997186
  H     15.556093   16.041154   17.737275
  H     17.044862   17.481227   14.948014
  H     17.507365   19.143737   15.204701
  H     15.882285   18.614529   15.657720
  H     17.241161   20.031692   17.472244
  H     19.323981   18.126302   20.350100
  H     19.665321   16.033372   18.750676
  H     19.282019   14.133050   19.212970
  H     18.061056   12.515185   20.565643
  H     16.000635   13.205142   21.780053
  H     14.669434   14.850824   22.246148
  H     16.422250   17.221535   20.265150

----------------------------
CARTESIAN COORDINATES (A.U.)
----------------------------
  NO LB      ZA    FRAG     MASS         X           Y           Z
   0 C     6.0000    0    12.011   27.564823   27.214542   31.765607
   1 C     6.0000    0    12.011   29.454824   29.400884   31.649236
   2 O     8.0000    0    15.999   31.948086   28.299227   31.357186
   3 C     6.0000    0    12.011   34.140883   29.684889   31.182169
   4 O     8.0000    0    15.999   36.160731   28.695988   30.701568
   5 C     6.0000    0    12.011   33.967602   31.777875   33.019138
   6 C     6.0000    0    12.011   32.933256   34.002311   32.243702
   7 C     6.0000    0    12.011   32.004129   34.612259   29.579992
   8 N     7.0000    0    14.007   33.259537   36.194567   33.672246
   9 C     6.0000    0    12.011   34.568164   36.325351   35.903296
  10 S    16.0000    0    32.060   34.722276   39.001718   37.514445
  11 N     7.0000    0    14.007   35.681485   34.122160   36.743294
  12 C     6.0000    0    12.011   35.633973   31.680209   35.357439
  13 C     6.0000    0    12.011   34.012837   29.962781   37.132402
  14 C     6.0000    0    12.011   34.782498   27.387739   37.326531
  15 C     6.0000    0    12.011   33.462098   25.598547   38.766466
  16 C     6.0000    0    12.011   31.273240   26.336155   40.047459
  17 C     6.0000    0    12.011   30.435593   28.842650   39.853657
  18 O     8.0000    0    15.999   28.282692   29.518171   41.070432
  19 C     6.0000    0    12.011   31.769461   30.640278   38.411490
  20 H     1.0000    0     1.008   28.262422   25.748103   33.052867
  21 H     1.0000    0     1.008   27.321244   26.385691   29.882590
  22 H     1.0000    0     1.008   25.719642   27.864067   32.452203
  23 H     1.0000    0     1.008   28.904575   30.807569   30.230301
  24 H     1.0000    0     1.008   29.396756   30.313387   33.518591
  25 H     1.0000    0     1.008   32.210122   33.034732   28.247652
  26 H     1.0000    0     1.008   33.084125   36.176420   28.732720
  27 H     1.0000    0     1.008   30.013168   35.176362   29.588802
  28 H     1.0000    0     1.008   32.581073   37.854411   33.017757
  29 H     1.0000    0     1.008   36.517032   34.253747   38.456115
  30 H     1.0000    0     1.008   37.162071   30.298682   35.433643
  31 H     1.0000    0     1.008   36.437735   26.707594   36.307252
  32 H     1.0000    0     1.008   34.130449   23.650272   38.863433
  33 H     1.0000    0     1.008   30.236817   24.954102   41.158336
  34 H     1.0000    0     1.008   27.721212   28.063991   42.039128
  35 H     1.0000    0     1.008   31.033555   32.543985   38.295583

--------------------------------
INTERNAL COORDINATES (ANGSTROEM)
--------------------------------
 C      0   0   0     0.000000000000     0.00000000     0.00000000
 C      1   0   0     1.530570369502     0.00000000     0.00000000
 O      2   1   0     1.450688705734   107.14664984     0.00000000
 C      3   2   1     1.375764298318   124.06164204   179.99999717
 O      4   3   2     1.216956899618   121.71394626   187.02529646
 C      4   3   2     1.476496685337   107.64412885    40.77670233
 C      6   4   3     1.361465796485   118.36551147   270.13573543
 C      7   6   4     1.527358486335   126.17730273   357.36650207
 N      7   6   4     1.395381493462   120.38312801   195.25568564
 C      9   7   6     1.370476534899   124.83469566   359.37777296
 S     10   9   7     1.655106429027   120.78855708   182.94345057
 N     10   9   7     1.379837250663   116.78174231     1.53007626
 C     12  10   9     1.486034522517   124.64834657     2.37632441
 C     13  12  10     1.563370155170   102.60889895   246.01612505
 C     14  13  12     1.425924688351   116.23658257   217.53786823
 C     15  14  13     1.401877602843   122.83395560   182.47996639
 C     16  15  14     1.397679611145   119.21322250     0.95202479
 C     17  16  15     1.402242661681   119.38371033     0.39329595
 O     18  17  16     1.356578993833   118.68613368   178.80926016
 C     18  17  16     1.409094372850   121.32073279   359.40636278
 H      1   2   3     1.096575792171   109.87321715    45.96976456
 H      1   2   3     1.096313643770   110.04008210   286.28314966
 H      1   2   3     1.097068879891   110.98279841   165.84110134
 H      2   1   3     1.096675957967   111.53875726   128.19046332
 H      2   1   3     1.101212638754   106.08622199   245.62113001
 H      8   7   6     1.098110062412   113.57396392     0.87252445
 H      8   7   6     1.101255678507   111.56228398   242.47085513
 H      8   7   6     1.095053265998   111.30880588   122.73930233
 H      9   7   6     1.010126112595   119.55071328   175.97330431
 H     12  10   9     1.010882086517   114.67020051   184.42071060
 H     13  12  10     1.090863165582   123.50350878   147.85906895
 H     15  14  13     1.089814328471   120.63145078     1.21385367
 H     16  15  14     1.091167075988   120.14149594   180.27138274
 H     17  16  15     1.086849712860   119.51153014   179.67396653
 H     19  18  17     0.971190811141   107.37726752     4.41970013
 H     20  18  17     1.081788008725   118.62328701   179.07850530

---------------------------
INTERNAL COORDINATES (A.U.)
---------------------------
 C      0   0   0     0.000000000000     0.00000000     0.00000000
 C      1   0   0     2.892358827053     0.00000000     0.00000000
 O      2   1   0     2.741404359410   107.14664984     0.00000000
 C      3   2   1     2.599817748646   124.06164204   179.99999717
 O      4   3   2     2.299715257064   121.71394626   187.02529646
 C      4   3   2     2.790174372929   107.64412885    40.77670233
 C      6   4   3     2.572797496058   118.36551147   270.13573543
 C      7   6   4     2.886289247495   126.17730273   357.36650207
 N      7   6   4     2.636888874986   120.38312801   195.25568564
 C      9   7   6     2.589825323924   124.83469566   359.37777296
 S     10   9   7     3.127697873354   120.78855708   182.94345057
 N     10   9   7     2.607514513137   116.78174231     1.53007626
 C     12  10   9     2.808198273110   124.64834657     2.37632441
 C     13  12  10     2.954341439217   102.60889895   246.01612505
 C     14  13  12     2.694607148580   116.23658257   217.53786823
 C     15  14  13     2.649164742651   122.83395560   182.47996639
 C     16  15  14     2.641231688030   119.21322250     0.95202479
 C     17  16  15     2.649854603879   119.38371033     0.39329595
 O     18  17  16     2.563562777376   118.68613368   178.80926016
 C     18  17  16     2.662802461535   121.32073279   359.40636278
 H      1   2   3     2.072227932291   109.87321715    45.96976456
 H      1   2   3     2.071732543607   110.04008210   286.28314966
 H      1   2   3     2.073159733042   110.98279841   165.84110134
 H      2   1   3     2.072417218214   111.53875726   128.19046332
 H      2   1   3     2.080990302457   106.08622199   245.62113001
 H      8   7   6     2.075127282861   113.57396392     0.87252445
 H      8   7   6     2.081071635803   111.56228398   242.47085513
 H      8   7   6     2.069350774792   111.30880588   122.73930233
 H      9   7   6     1.908861713527   119.55071328   175.97330431
 H     12  10   9     1.910290297204   114.67020051   184.42071060
 H     13  12  10     2.061432632532   123.50350878   147.85906895
 H     15  14  13     2.059450617634   120.63145078     1.21385367
 H     16  15  14     2.062006939969   120.14149594   180.27138274
 H     17  16  15     2.053848306037   119.51153014   179.67396653
 H     19  18  17     1.835284656837   107.37726752     4.41970013
 H     20  18  17     2.044283071451   118.62328701   179.07850530

---------------------
BASIS SET INFORMATION
---------------------
There are 5 groups of distinct atoms

 Group   1 Type C   : 18s5p2d1f contracted to 4s3p2d1f pattern {8811/311/11/1}
 Group   2 Type O   : 18s5p2d1f contracted to 4s3p2d1f pattern {8811/311/11/1}
 Group   3 Type N   : 18s5p2d1f contracted to 4s3p2d1f pattern {8811/311/11/1}
 Group   4 Type S   : 41s16p2d1f contracted to 5s4p2d1f pattern {13131311/7711/11/1}
 Group   5 Type H   : 5s2p1d contracted to 3s2p1d pattern {311/11/1}

Atom   0C    basis set group =>   1
Atom   1C    basis set group =>   1
Atom   2O    basis set group =>   2
Atom   3C    basis set group =>   1
Atom   4O    basis set group =>   2
Atom   5C    basis set group =>   1
Atom   6C    basis set group =>   1
Atom   7C    basis set group =>   1
Atom   8N    basis set group =>   3
Atom   9C    basis set group =>   1
Atom  10S    basis set group =>   4
Atom  11N    basis set group =>   3
Atom  12C    basis set group =>   1
Atom  13C    basis set group =>   1
Atom  14C    basis set group =>   1
Atom  15C    basis set group =>   1
Atom  16C    basis set group =>   1
Atom  17C    basis set group =>   1
Atom  18O    basis set group =>   2
Atom  19C    basis set group =>   1
Atom  20H    basis set group =>   5
Atom  21H    basis set group =>   5
Atom  22H    basis set group =>   5
Atom  23H    basis set group =>   5
Atom  24H    basis set group =>   5
Atom  25H    basis set group =>   5
Atom  26H    basis set group =>   5
Atom  27H    basis set group =>   5
Atom  28H    basis set group =>   5
Atom  29H    basis set group =>   5
Atom  30H    basis set group =>   5
Atom  31H    basis set group =>   5
Atom  32H    basis set group =>   5
Atom  33H    basis set group =>   5
Atom  34H    basis set group =>   5
Atom  35H    basis set group =>   5
---------------------------------
AUXILIARY/C BASIS SET INFORMATION
---------------------------------
There are 5 groups of distinct atoms

 Group   1 Type C   : 8s6p5d3f1g contracted to 8s6p5d3f1g pattern {11111111/111111/11111/111/1}
 Group   2 Type O   : 8s6p5d3f1g contracted to 8s6p5d3f1g pattern {11111111/111111/11111/111/1}
 Group   3 Type N   : 8s6p5d3f1g contracted to 8s6p5d3f1g pattern {11111111/111111/11111/111/1}
 Group   4 Type S   : 10s8p7d5f2g contracted to 10s8p7d5f2g pattern {1111111111/11111111/1111111/11111/11}
 Group   5 Type H   : 4s3p2d1f contracted to 4s3p2d1f pattern {1111/111/11/1}

Atom   0C    basis set group =>   1
Atom   1C    basis set group =>   1
Atom   2O    basis set group =>   2
Atom   3C    basis set group =>   1
Atom   4O    basis set group =>   2
Atom   5C    basis set group =>   1
Atom   6C    basis set group =>   1
Atom   7C    basis set group =>   1
Atom   8N    basis set group =>   3
Atom   9C    basis set group =>   1
Atom  10S    basis set group =>   4
Atom  11N    basis set group =>   3
Atom  12C    basis set group =>   1
Atom  13C    basis set group =>   1
Atom  14C    basis set group =>   1
Atom  15C    basis set group =>   1
Atom  16C    basis set group =>   1
Atom  17C    basis set group =>   1
Atom  18O    basis set group =>   2
Atom  19C    basis set group =>   1
Atom  20H    basis set group =>   5
Atom  21H    basis set group =>   5
Atom  22H    basis set group =>   5
Atom  23H    basis set group =>   5
Atom  24H    basis set group =>   5
Atom  25H    basis set group =>   5
Atom  26H    basis set group =>   5
Atom  27H    basis set group =>   5
Atom  28H    basis set group =>   5
Atom  29H    basis set group =>   5
Atom  30H    basis set group =>   5
Atom  31H    basis set group =>   5
Atom  32H    basis set group =>   5
Atom  33H    basis set group =>   5
Atom  34H    basis set group =>   5
Atom  35H    basis set group =>   5

Checking for AutoStart:
The File: G2_CONFS/Conf30.orca.gbw exists
Trying to determine its content:
     ... Fine, the file contains calculation information
     ... Fine, the calculation information was read
     ... Fine, the file contains a basis set
     ... Fine, the basis set was read
     ... Fine, the file contains a geometry
     ... Fine, the geometry was read
     ... The file does not contain orbitals - skipping AutoStart
------------------------------------------------------------------------------
                           ORCA GTO INTEGRAL CALCULATION
------------------------------------------------------------------------------

                         BASIS SET STATISTICS AND STARTUP INFO

 # of primitive gaussian shells          ...  682
 # of primitive gaussian functions       ... 1312
 # of contracted shells                  ...  298
 # of contracted basis functions         ...  828
 Highest angular momentum                ...    3
 Maximum contraction depth               ...   13
 Integral package used                   ... LIBINT
 Integral threshhold            Thresh   ...  2.500e-11
 Primitive cut-off              TCut     ...  2.500e-12


------------------------------ INTEGRAL EVALUATION ----------------------------


 * One electron integrals 
 Pre-screening matrix                    ... done
 Shell pair data                         ... done (   0.014 sec)

-------------------------------------------------------------------------------
                                 ORCA SCF
-------------------------------------------------------------------------------

------------
SCF SETTINGS
------------
Hamiltonian:
 Ab initio Hamiltonian  Method          .... Hartree-Fock(GTOs)


General Settings:
 Integral files         IntName         .... G2_CONFS/Conf30.orca
 Hartree-Fock type      HFTyp           .... RHF
 Total Charge           Charge          ....    0
 Multiplicity           Mult            ....    1
 Number of Electrons    NEL             ....  154
 Basis Dimension        Dim             ....  828
 Nuclear Repulsion      ENuc            ....   1732.9004299552 Eh

Convergence Acceleration:
 DIIS                   CNVDIIS         .... on
   Start iteration      DIISMaxIt       ....    12
   Startup error        DIISStart       ....  0.200000
   # of expansion vecs  DIISMaxEq       ....     5
   Bias factor          DIISBfac        ....   1.050
   Max. coefficient     DIISMaxC        ....  10.000
 Newton-Raphson         CNVNR           .... off
 SOSCF                  CNVSOSCF        .... on
   Start iteration      SOSCFMaxIt      ....   150
   Startup grad/error   SOSCFStart      ....  0.003300
 Level Shifting         CNVShift        .... on
   Level shift para.    LevelShift      ....    0.2500
   Turn off err/grad.   ShiftErr        ....    0.0010
 Zerner damping         CNVZerner       .... off
 Static damping         CNVDamp         .... on
   Fraction old density DampFac         ....    0.7000
   Max. Damping (<1)    DampMax         ....    0.9800
   Min. Damping (>=0)   DampMin         ....    0.0000
   Turn off err/grad.   DampErr         ....    0.1000
 Fernandez-Rico         CNVRico         .... off

SCF Procedure:
 Maximum # iterations   MaxIter         ....   125
 SCF integral mode      SCFMode         .... Direct
   Integral package                     .... LIBINT
 Reset frequency        DirectResetFreq ....    20
 Integral Threshold     Thresh          ....  2.500e-11 Eh
 Primitive CutOff       TCut            ....  2.500e-12 Eh

Convergence Tolerance:
 Convergence Check Mode ConvCheckMode   .... Total+1el-Energy
 Convergence forced     ConvForced      .... 1
 Energy Change          TolE            ....  1.000e-08 Eh
 1-El. energy change                    ....  1.000e-05 Eh
 Orbital Gradient       TolG            ....  1.000e-05
 Orbital Rotation angle TolX            ....  1.000e-05
 DIIS Error             TolErr          ....  5.000e-07


Diagonalization of the overlap matrix:
Smallest eigenvalue                        ... 3.310e-05
Time for diagonalization                   ...    0.112 sec
Threshold for overlap eigenvalues          ... 1.000e-08
Number of eigenvalues below threshold      ... 0
Time for construction of square roots      ...    0.059 sec
Total time needed                          ...    0.173 sec

-------------------
DFT GRID GENERATION
-------------------

General Integration Accuracy     IntAcc      ...  4.340
Radial Grid Type                 RadialGrid  ... Gauss-Chebyshev
Angular Grid (max. acc.)         AngularGrid ... Lebedev-110
Angular grid pruning method      GridPruning ... 3 (G Style)
Weight generation scheme         WeightScheme... Becke
Basis function cutoff            BFCut       ...    1.0000e-11
Integration weight cutoff        WCut        ...    1.0000e-14
Grids for H and He will be reduced by one unit

# of grid points (after initial pruning)     ...  46246 (   0.0 sec)
# of grid points (after weights+screening)   ...  41140 (   0.3 sec)
nearest neighbour list constructed           ...    0.0 sec
Grid point re-assignment to atoms done       ...    0.0 sec
Grid point division into batches done        ...    0.0 sec
Reduced shell lists constructed in    1.0 sec

Total number of grid points                  ...    41140
Total number of batches                      ...      660
Average number of points per batch           ...       62
Average number of grid points per atom       ...     1143
Average number of shells per batch           ...   154.59 (51.87%)
Average number of basis functions per batch  ...   393.27 (47.50%)
Average number of large shells per batch     ...    99.64 (64.46%)
Average number of large basis fcns per batch ...   254.64 (64.75%)
Maximum spatial batch extension              ...  19.30, 25.58, 19.21 au
Average spatial batch extension              ...   3.43,  3.36,  3.31 au

Time for grid setup =    1.301 sec

------------------------------
INITIAL GUESS: MODEL POTENTIAL
------------------------------
Loading Hartree-Fock densities                     ... done
Calculating cut-offs                               ... done
Setting up the integral package                    ... done
Initializing the effective Hamiltonian             ... done
Starting the Coulomb interaction                   ... done (   3.2 sec)
Reading the grid                                   ... done
Mapping shells                                     ... done
Starting the XC term evaluation                    ... done (   1.4 sec)
Transforming the Hamiltonian                       ... done (   0.0 sec)
Diagonalizing the Hamiltonian                      ... done (   0.1 sec)
Back transforming the eigenvectors                 ... done (   0.0 sec)
Now organizing SCF variables                       ... done
                      ------------------
                      INITIAL GUESS DONE (   6.2 sec)
                      ------------------
--------------
SCF ITERATIONS
--------------
ITER       Energy         Delta-E        Max-DP      RMS-DP      [F,P]     Damp
               ***  Starting incremental Fock matrix formation  ***
  0  -1269.9250936238   0.000000000000 0.04928464  0.00045720  0.3063520 0.7000
  1  -1270.1930019480  -0.267908324187 0.03607714  0.00037354  0.1817177 0.7000
                               ***Turning on DIIS***
  2  -1270.3596244285  -0.166622480481 0.02584784  0.00024725  0.1098604 0.7000
  3  -1272.4688579066  -2.109233478133 0.06320620  0.00051792  0.0829366 0.0000
  4  -1270.6722767520   1.796581154574 0.01405087  0.00010556  0.0068275 0.0000
  5  -1270.7287748266  -0.056498074535 0.00553053  0.00005406  0.0036584 0.0000
  6  -1270.7064407976   0.022334028992 0.00246393  0.00002779  0.0033081 0.0000
                      *** Initiating the SOSCF procedure ***
                           *** Shutting down DIIS ***
                      *** Re-Reading the Fockian *** 
                      *** Removing any level shift *** 
ITER      Energy       Delta-E        Grad      Rot      Max-DP    RMS-DP
  7  -1270.72106524  -0.0146244385  0.000836  0.000836  0.001256  0.000016
               *** Restarting incremental Fock matrix formation ***
  8  -1270.72171272  -0.0006474819  0.000454  0.001156  0.000774  0.000009
  9  -1270.72172791  -0.0000151955  0.000214  0.001402  0.001265  0.000013
 10  -1270.72173437  -0.0000064564  0.000071  0.000124  0.000170  0.000002
 11  -1270.72173506  -0.0000006890  0.000036  0.000066  0.000068  0.000001
 12  -1270.72173518  -0.0000001240  0.000009  0.000032  0.000036  0.000000
 13  -1270.72173520  -0.0000000146  0.000007  0.000030  0.000017  0.000000
                  ***Gradient check signals convergence***
              ***Rediagonalizing the Fockian in SOSCF/NRSCF***

               *****************************************************
               *                     SUCCESS                       *
               *           SCF CONVERGED AFTER  14 CYCLES          *
               *****************************************************


----------------
TOTAL SCF ENERGY
----------------

Total Energy       :        -1270.72173521 Eh          -34578.09633 eV

Components:
Nuclear Repulsion  :         1732.90042996 Eh           47154.61799 eV
Electronic Energy  :        -3003.62216516 Eh          -81732.71432 eV
One Electron Energy:        -5186.40844784 Eh         -141129.34874 eV
Two Electron Energy:         2182.78628268 Eh           59396.63442 eV

Virial components:
Potential Energy   :        -2539.64483954 Eh          -69107.24943 eV
Kinetic Energy     :         1268.92310433 Eh           34529.15310 eV
Virial Ratio       :            2.00141745


---------------
SCF CONVERGENCE
---------------

  Last Energy change         ...   -8.9935e-09  Tolerance :   1.0000e-08
  Last MAX-Density change    ...    4.1222e-06  Tolerance :   1.0000e-07
  Last RMS-Density change    ...    5.2874e-08  Tolerance :   5.0000e-09
  Last Orbital Gradient      ...    1.8635e-06  Tolerance :   1.0000e-05
  Last Orbital Rotation      ...    5.3125e-06  Tolerance :   1.0000e-05

             **** THE GBW FILE WAS UPDATED (G2_CONFS/Conf30.orca.gbw) ****
             **** DENSITY FILE WAS UPDATED (G2_CONFS/Conf30.orca.scfp) ****
             **** ENERGY FILE WAS UPDATED (G2_CONFS/Conf30.orca.en.tmp) ****
             **** THE GBW FILE WAS UPDATED (G2_CONFS/Conf30.orca.gbw) ****
             **** DENSITY FILE WAS UPDATED (G2_CONFS/Conf30.orca.scfp) ****
----------------
ORBITAL ENERGIES
----------------

  NO   OCC          E(Eh)            E(eV) 
   0   2.0000     -91.891478     -2500.4942 
   1   2.0000     -20.601234      -560.5881 
   2   2.0000     -20.596916      -560.4706 
   3   2.0000     -20.558755      -559.4322 
   4   2.0000     -15.626328      -425.2140 
   5   2.0000     -15.616948      -424.9588 
   6   2.0000     -11.398287      -310.1631 
   7   2.0000     -11.388898      -309.9077 
   8   2.0000     -11.327980      -308.2500 
   9   2.0000     -11.322607      -308.1038 
  10   2.0000     -11.316112      -307.9270 
  11   2.0000     -11.303646      -307.5878 
  12   2.0000     -11.273754      -306.7744 
  13   2.0000     -11.266719      -306.5830 
  14   2.0000     -11.262664      -306.4727 
  15   2.0000     -11.252780      -306.2037 
  16   2.0000     -11.240615      -305.8727 
  17   2.0000     -11.240282      -305.8636 
  18   2.0000     -11.235012      -305.7202 
  19   2.0000     -11.231554      -305.6261 
  20   2.0000      -8.896470      -242.0853 
  21   2.0000      -6.578041      -178.9976 
  22   2.0000      -6.576029      -178.9428 
  23   2.0000      -6.575450      -178.9271 
  24   2.0000      -1.449184       -39.4343 
  25   2.0000      -1.416623       -38.5483 
  26   2.0000      -1.363895       -37.1135 
  27   2.0000      -1.339715       -36.4555 
  28   2.0000      -1.239837       -33.7377 
  29   2.0000      -1.157869       -31.5072 
  30   2.0000      -1.125417       -30.6242 
  31   2.0000      -1.048384       -28.5280 
  32   2.0000      -1.043189       -28.3866 
  33   2.0000      -1.015012       -27.6199 
  34   2.0000      -1.002392       -27.2765 
  35   2.0000      -0.989308       -26.9204 
  36   2.0000      -0.930086       -25.3089 
  37   2.0000      -0.880924       -23.9712 
  38   2.0000      -0.855332       -23.2748 
  39   2.0000      -0.841375       -22.8950 
  40   2.0000      -0.833866       -22.6906 
  41   2.0000      -0.831491       -22.6260 
  42   2.0000      -0.756321       -20.5805 
  43   2.0000      -0.738861       -20.1054 
  44   2.0000      -0.725317       -19.7369 
  45   2.0000      -0.698136       -18.9973 
  46   2.0000      -0.693632       -18.8747 
  47   2.0000      -0.683596       -18.6016 
  48   2.0000      -0.679758       -18.4971 
  49   2.0000      -0.665002       -18.0956 
  50   2.0000      -0.658085       -17.9074 
  51   2.0000      -0.648773       -17.6540 
  52   2.0000      -0.638216       -17.3667 
  53   2.0000      -0.609439       -16.5837 
  54   2.0000      -0.606908       -16.5148 
  55   2.0000      -0.600352       -16.3364 
  56   2.0000      -0.595739       -16.2109 
  57   2.0000      -0.585246       -15.9253 
  58   2.0000      -0.573312       -15.6006 
  59   2.0000      -0.565161       -15.3788 
  60   2.0000      -0.558542       -15.1987 
  61   2.0000      -0.555520       -15.1165 
  62   2.0000      -0.554812       -15.0972 
  63   2.0000      -0.526789       -14.3347 
  64   2.0000      -0.516539       -14.0557 
  65   2.0000      -0.513745       -13.9797 
  66   2.0000      -0.505030       -13.7426 
  67   2.0000      -0.500427       -13.6173 
  68   2.0000      -0.486905       -13.2494 
  69   2.0000      -0.464091       -12.6286 
  70   2.0000      -0.458266       -12.4700 
  71   2.0000      -0.450167       -12.2497 
  72   2.0000      -0.353035        -9.6066 
  73   2.0000      -0.345834        -9.4106 
  74   2.0000      -0.330215        -8.9856 
  75   2.0000      -0.320652        -8.7254 
  76   2.0000      -0.313081        -8.5194 
  77   0.0000       0.080144         2.1808 
  78   0.0000       0.105241         2.8638 
  79   0.0000       0.110470         3.0060 
  80   0.0000       0.128679         3.5015 
  81   0.0000       0.129847         3.5333 
  82   0.0000       0.142651         3.8817 
  83   0.0000       0.144270         3.9258 
  84   0.0000       0.149622         4.0714 
  85   0.0000       0.158732         4.3193 
  86   0.0000       0.166255         4.5240 
  87   0.0000       0.173613         4.7242 
  88   0.0000       0.181614         4.9420 
  89   0.0000       0.189144         5.1469 
  90   0.0000       0.194267         5.2863 
  91   0.0000       0.205546         5.5932 
  92   0.0000       0.212149         5.7729 
  93   0.0000       0.213998         5.8232 
  94   0.0000       0.221870         6.0374 
  95   0.0000       0.229505         6.2452 
  96   0.0000       0.236170         6.4265 
  97   0.0000       0.244559         6.6548 
  98   0.0000       0.254015         6.9121 
  99   0.0000       0.263980         7.1833 
 100   0.0000       0.273854         7.4520 
 101   0.0000       0.293027         7.9737 
 102   0.0000       0.303145         8.2490 
 103   0.0000       0.311202         8.4682 
 104   0.0000       0.319696         8.6994 
 105   0.0000       0.333539         9.0761 
 106   0.0000       0.341591         9.2952 
 107   0.0000       0.347738         9.4624 
 108   0.0000       0.354714         9.6523 
 109   0.0000       0.356406         9.6983 
 110   0.0000       0.361216         9.8292 
 111   0.0000       0.375270        10.2116 
 112   0.0000       0.379268        10.3204 
 113   0.0000       0.390087        10.6148 
 114   0.0000       0.393606        10.7106 
 115   0.0000       0.409415        11.1408 
 116   0.0000       0.419496        11.4151 
 117   0.0000       0.426832        11.6147 
 118   0.0000       0.430110        11.7039 
 119   0.0000       0.442306        12.0358 
 120   0.0000       0.446097        12.1389 
 121   0.0000       0.447491        12.1768 
 122   0.0000       0.451093        12.2749 
 123   0.0000       0.457643        12.4531 
 124   0.0000       0.466079        12.6826 
 125   0.0000       0.469502        12.7758 
 126   0.0000       0.478511        13.0209 
 127   0.0000       0.483214        13.1489 
 128   0.0000       0.483608        13.1596 
 129   0.0000       0.491157        13.3650 
 130   0.0000       0.500340        13.6150 
 131   0.0000       0.502947        13.6859 
 132   0.0000       0.508783        13.8447 
 133   0.0000       0.518032        14.0964 
 134   0.0000       0.521437        14.1890 
 135   0.0000       0.522988        14.2312 
 136   0.0000       0.530918        14.4470 
 137   0.0000       0.534461        14.5434 
 138   0.0000       0.539582        14.6828 
 139   0.0000       0.548044        14.9130 
 140   0.0000       0.550961        14.9924 
 141   0.0000       0.560208        15.2440 
 142   0.0000       0.562314        15.3013 
 143   0.0000       0.569727        15.5031 
 144   0.0000       0.571524        15.5519 
 145   0.0000       0.580072        15.7845 
 146   0.0000       0.585253        15.9256 
 147   0.0000       0.591706        16.1011 
 148   0.0000       0.592762        16.1299 
 149   0.0000       0.596488        16.2313 
 150   0.0000       0.598928        16.2976 
 151   0.0000       0.604298        16.4438 
 152   0.0000       0.607790        16.5388 
 153   0.0000       0.610859        16.6223 
 154   0.0000       0.616508        16.7760 
 155   0.0000       0.618787        16.8380 
 156   0.0000       0.628040        17.0898 
 157   0.0000       0.635631        17.2964 
 158   0.0000       0.642679        17.4882 
 159   0.0000       0.649090        17.6626 
 160   0.0000       0.651312        17.7231 
 161   0.0000       0.654385        17.8067 
 162   0.0000       0.660312        17.9680 
 163   0.0000       0.663720        18.0607 
 164   0.0000       0.671102        18.2616 
 165   0.0000       0.672550        18.3010 
 166   0.0000       0.678815        18.4715 
 167   0.0000       0.685927        18.6650 
 168   0.0000       0.692753        18.8508 
 169   0.0000       0.695891        18.9362 
 170   0.0000       0.705157        19.1883 
 171   0.0000       0.711442        19.3593 
 172   0.0000       0.715933        19.4815 
 173   0.0000       0.726748        19.7758 
 174   0.0000       0.732778        19.9399 
 175   0.0000       0.736340        20.0368 
 176   0.0000       0.739404        20.1202 
 177   0.0000       0.748611        20.3707 
 178   0.0000       0.761840        20.7307 
 179   0.0000       0.762726        20.7548 
 180   0.0000       0.770329        20.9617 
 181   0.0000       0.780051        21.2263 
 182   0.0000       0.788716        21.4620 
 183   0.0000       0.792737        21.5715 
 184   0.0000       0.797479        21.7005 
 185   0.0000       0.814242        22.1566 
 186   0.0000       0.818745        22.2792 
 187   0.0000       0.826690        22.4954 
 188   0.0000       0.832400        22.6508 
 189   0.0000       0.834268        22.7016 
 190   0.0000       0.843999        22.9664 
 191   0.0000       0.847700        23.0671 
 192   0.0000       0.861334        23.4381 
 193   0.0000       0.869543        23.6615 
 194   0.0000       0.876833        23.8598 
 195   0.0000       0.877750        23.8848 
 196   0.0000       0.885607        24.0986 
 197   0.0000       0.890222        24.2242 
 198   0.0000       0.904030        24.5999 
 199   0.0000       0.905462        24.6389 
 200   0.0000       0.914911        24.8960 
 201   0.0000       0.921144        25.0656 
 202   0.0000       0.934964        25.4417 
 203   0.0000       0.937017        25.4975 
 204   0.0000       0.943792        25.6819 
 205   0.0000       0.950576        25.8665 
 206   0.0000       0.959158        26.1000 
 207   0.0000       0.961315        26.1587 
 208   0.0000       0.974227        26.5101 
 209   0.0000       0.981443        26.7064 
 210   0.0000       0.986525        26.8447 
 211   0.0000       0.990163        26.9437 
 212   0.0000       0.995389        27.0859 
 213   0.0000       0.999387        27.1947 
 214   0.0000       1.010933        27.5089 
 215   0.0000       1.017686        27.6926 
 216   0.0000       1.024481        27.8775 
 217   0.0000       1.026886        27.9430 
 218   0.0000       1.035297        28.1719 
 219   0.0000       1.037026        28.2189 
 220   0.0000       1.048228        28.5237 
 221   0.0000       1.055392        28.7187 
 222   0.0000       1.063705        28.9449 
 223   0.0000       1.068907        29.0864 
 224   0.0000       1.077452        29.3190 
 225   0.0000       1.083539        29.4846 
 226   0.0000       1.096964        29.8499 
 227   0.0000       1.104390        30.0520 
 228   0.0000       1.106358        30.1055 
 229   0.0000       1.114857        30.3368 
 230   0.0000       1.124526        30.5999 
 231   0.0000       1.127874        30.6910 
 232   0.0000       1.140097        31.0236 
 233   0.0000       1.144012        31.1301 
 234   0.0000       1.157331        31.4926 
 235   0.0000       1.160373        31.5753 
 236   0.0000       1.162527        31.6340 
 237   0.0000       1.172122        31.8951 
 238   0.0000       1.180507        32.1232 
 239   0.0000       1.182229        32.1701 
 240   0.0000       1.193867        32.4868 
 241   0.0000       1.194653        32.5082 
 242   0.0000       1.202545        32.7229 
 243   0.0000       1.215551        33.0768 
 244   0.0000       1.221347        33.2345 
 245   0.0000       1.224778        33.3279 
 246   0.0000       1.237288        33.6683 
 247   0.0000       1.247184        33.9376 
 248   0.0000       1.253610        34.1125 
 249   0.0000       1.262147        34.3448 
 250   0.0000       1.264344        34.4046 
 251   0.0000       1.273279        34.6477 
 252   0.0000       1.286141        34.9977 
 253   0.0000       1.293927        35.2095 
 254   0.0000       1.301601        35.4184 
 255   0.0000       1.307571        35.5808 
 256   0.0000       1.312271        35.7087 
 257   0.0000       1.318858        35.8879 
 258   0.0000       1.330701        36.2102 
 259   0.0000       1.335198        36.3326 
 260   0.0000       1.344562        36.5874 
 261   0.0000       1.346548        36.6414 
 262   0.0000       1.360246        37.0142 
 263   0.0000       1.365388        37.1541 
 264   0.0000       1.376968        37.4692 
 265   0.0000       1.389328        37.8055 
 266   0.0000       1.391501        37.8647 
 267   0.0000       1.407165        38.2909 
 268   0.0000       1.414283        38.4846 
 269   0.0000       1.418178        38.5906 
 270   0.0000       1.430543        38.9271 
 271   0.0000       1.438099        39.1327 
 272   0.0000       1.439181        39.1621 
 273   0.0000       1.453580        39.5539 
 274   0.0000       1.461101        39.7586 
 275   0.0000       1.463502        39.8239 
 276   0.0000       1.473953        40.1083 
 277   0.0000       1.481486        40.3133 
 278   0.0000       1.484977        40.4083 
 279   0.0000       1.488284        40.4983 
 280   0.0000       1.495546        40.6959 
 281   0.0000       1.504532        40.9404 
 282   0.0000       1.507387        41.0181 
 283   0.0000       1.518730        41.3267 
 284   0.0000       1.524599        41.4865 
 285   0.0000       1.531029        41.6614 
 286   0.0000       1.532754        41.7084 
 287   0.0000       1.543668        42.0053 
 288   0.0000       1.545964        42.0678 
 289   0.0000       1.555815        42.3359 
 290   0.0000       1.563507        42.5452 
 291   0.0000       1.571414        42.7604 
 292   0.0000       1.574514        42.8447 
 293   0.0000       1.580327        43.0029 
 294   0.0000       1.586759        43.1779 
 295   0.0000       1.601312        43.5739 
 296   0.0000       1.610364        43.8202 
 297   0.0000       1.613230        43.8982 
 298   0.0000       1.626006        44.2459 
 299   0.0000       1.638005        44.5724 
 300   0.0000       1.643299        44.7164 
 301   0.0000       1.650170        44.9034 
 302   0.0000       1.653791        45.0019 
 303   0.0000       1.662289        45.2332 
 304   0.0000       1.666847        45.3572 
 305   0.0000       1.674622        45.5688 
 306   0.0000       1.686885        45.9025 
 307   0.0000       1.695872        46.1470 
 308   0.0000       1.703817        46.3632 
 309   0.0000       1.710229        46.5377 
 310   0.0000       1.726080        46.9690 
 311   0.0000       1.731094        47.1055 
 312   0.0000       1.738325        47.3022 
 313   0.0000       1.749290        47.6006 
 314   0.0000       1.756073        47.7852 
 315   0.0000       1.760418        47.9034 
 316   0.0000       1.776717        48.3469 
 317   0.0000       1.781977        48.4901 
 318   0.0000       1.788038        48.6550 
 319   0.0000       1.809340        49.2347 
 320   0.0000       1.820353        49.5343 
 321   0.0000       1.826985        49.7148 
 322   0.0000       1.840472        50.0818 
 323   0.0000       1.843282        50.1583 
 324   0.0000       1.852861        50.4189 
 325   0.0000       1.876675        51.0669 
 326   0.0000       1.895201        51.5710 
 327   0.0000       1.905355        51.8473 
 328   0.0000       1.909681        51.9651 
 329   0.0000       1.919816        52.2408 
 330   0.0000       1.941814        52.8394 
 331   0.0000       1.944368        52.9090 
 332   0.0000       1.949332        53.0440 
 333   0.0000       1.961681        53.3801 
 334   0.0000       1.966933        53.5230 
 335   0.0000       1.987495        54.0825 
 336   0.0000       1.993511        54.2462 
 337   0.0000       1.998835        54.3911 
 338   0.0000       2.011853        54.7453 
 339   0.0000       2.015515        54.8449 
 340   0.0000       2.037535        55.4442 
 341   0.0000       2.052250        55.8446 
 342   0.0000       2.070356        56.3373 
 343   0.0000       2.078571        56.5608 
 344   0.0000       2.098904        57.1141 
 345   0.0000       2.109093        57.3914 
 346   0.0000       2.133844        58.0648 
 347   0.0000       2.146398        58.4065 
 348   0.0000       2.154288        58.6212 
 349   0.0000       2.174389        59.1681 
 350   0.0000       2.185479        59.4699 
 351   0.0000       2.188472        59.5514 
 352   0.0000       2.210009        60.1374 
 353   0.0000       2.219954        60.4080 
 354   0.0000       2.245840        61.1124 
 355   0.0000       2.264145        61.6105 
 356   0.0000       2.279201        62.0202 
 357   0.0000       2.288167        62.2642 
 358   0.0000       2.298820        62.5541 
 359   0.0000       2.306030        62.7503 
 360   0.0000       2.317949        63.0746 
 361   0.0000       2.328889        63.3723 
 362   0.0000       2.332257        63.4640 
 363   0.0000       2.352526        64.0155 
 364   0.0000       2.362474        64.2862 
 365   0.0000       2.368362        64.4464 
 366   0.0000       2.372809        64.5674 
 367   0.0000       2.392082        65.0919 
 368   0.0000       2.406407        65.4817 
 369   0.0000       2.421136        65.8825 
 370   0.0000       2.440145        66.3997 
 371   0.0000       2.451674        66.7134 
 372   0.0000       2.466141        67.1071 
 373   0.0000       2.472770        67.2875 
 374   0.0000       2.485164        67.6248 
 375   0.0000       2.487097        67.6774 
 376   0.0000       2.510137        68.3043 
 377   0.0000       2.515149        68.4407 
 378   0.0000       2.529669        68.8358 
 379   0.0000       2.546816        69.3024 
 380   0.0000       2.564248        69.7767 
 381   0.0000       2.572689        70.0064 
 382   0.0000       2.583375        70.2972 
 383   0.0000       2.590569        70.4930 
 384   0.0000       2.605729        70.9055 
 385   0.0000       2.619762        71.2873 
 386   0.0000       2.627952        71.5102 
 387   0.0000       2.634917        71.6997 
 388   0.0000       2.650647        72.1278 
 389   0.0000       2.655696        72.2652 
 390   0.0000       2.672930        72.7341 
 391   0.0000       2.685411        73.0738 
 392   0.0000       2.700537        73.4853 
 393   0.0000       2.716840        73.9290 
 394   0.0000       2.717900        73.9578 
 395   0.0000       2.729843        74.2828 
 396   0.0000       2.745806        74.7172 
 397   0.0000       2.749211        74.8098 
 398   0.0000       2.756621        75.0115 
 399   0.0000       2.764922        75.2374 
 400   0.0000       2.771144        75.4067 
 401   0.0000       2.779941        75.6460 
 402   0.0000       2.794190        76.0338 
 403   0.0000       2.801860        76.2425 
 404   0.0000       2.812661        76.5364 
 405   0.0000       2.821730        76.7832 
 406   0.0000       2.828816        76.9760 
 407   0.0000       2.846781        77.4648 
 408   0.0000       2.857212        77.7487 
 409   0.0000       2.872384        78.1616 
 410   0.0000       2.876774        78.2810 
 411   0.0000       2.891174        78.6728 
 412   0.0000       2.902570        78.9829 
 413   0.0000       2.908291        79.1386 
 414   0.0000       2.919892        79.4543 
 415   0.0000       2.929490        79.7155 
 416   0.0000       2.935555        79.8805 
 417   0.0000       2.943716        80.1026 
 418   0.0000       2.957693        80.4829 
 419   0.0000       2.960389        80.5563 
 420   0.0000       2.974459        80.9391 
 421   0.0000       2.979067        81.0645 
 422   0.0000       2.991095        81.3918 
 423   0.0000       2.995089        81.5005 
 424   0.0000       3.008129        81.8554 
 425   0.0000       3.017393        82.1074 
 426   0.0000       3.028971        82.4225 
 427   0.0000       3.031968        82.5040 
 428   0.0000       3.041655        82.7676 
 429   0.0000       3.050167        82.9993 
 430   0.0000       3.053136        83.0801 
 431   0.0000       3.056650        83.1757 
 432   0.0000       3.064379        83.3860 
 433   0.0000       3.070536        83.5535 
 434   0.0000       3.080131        83.8146 
 435   0.0000       3.086970        84.0007 
 436   0.0000       3.093144        84.1687 
 437   0.0000       3.098866        84.3244 
 438   0.0000       3.100003        84.3554 
 439   0.0000       3.113158        84.7133 
 440   0.0000       3.119961        84.8984 
 441   0.0000       3.127358        85.0997 
 442   0.0000       3.135802        85.3295 
 443   0.0000       3.145460        85.5923 
 444   0.0000       3.148441        85.6734 
 445   0.0000       3.154189        85.8299 
 446   0.0000       3.156448        85.8913 
 447   0.0000       3.166351        86.1608 
 448   0.0000       3.180367        86.5422 
 449   0.0000       3.183364        86.6237 
 450   0.0000       3.190137        86.8081 
 451   0.0000       3.191931        86.8568 
 452   0.0000       3.205120        87.2158 
 453   0.0000       3.219657        87.6113 
 454   0.0000       3.225310        87.7652 
 455   0.0000       3.238885        88.1345 
 456   0.0000       3.240425        88.1765 
 457   0.0000       3.247004        88.3555 
 458   0.0000       3.249940        88.4354 
 459   0.0000       3.259767        88.7028 
 460   0.0000       3.274480        89.1031 
 461   0.0000       3.279726        89.2459 
 462   0.0000       3.284764        89.3830 
 463   0.0000       3.289684        89.5169 
 464   0.0000       3.297201        89.7214 
 465   0.0000       3.303587        89.8952 
 466   0.0000       3.313380        90.1617 
 467   0.0000       3.314062        90.1802 
 468   0.0000       3.320363        90.3517 
 469   0.0000       3.330059        90.6155 
 470   0.0000       3.334114        90.7259 
 471   0.0000       3.340692        90.9049 
 472   0.0000       3.347140        91.0803 
 473   0.0000       3.351063        91.1871 
 474   0.0000       3.357176        91.3534 
 475   0.0000       3.362238        91.4911 
 476   0.0000       3.368001        91.6480 
 477   0.0000       3.379545        91.9621 
 478   0.0000       3.381131        92.0053 
 479   0.0000       3.387030        92.1658 
 480   0.0000       3.393786        92.3496 
 481   0.0000       3.396626        92.4269 
 482   0.0000       3.401896        92.5703 
 483   0.0000       3.411734        92.8380 
 484   0.0000       3.416340        92.9633 
 485   0.0000       3.422454        93.1297 
 486   0.0000       3.428657        93.2985 
 487   0.0000       3.435248        93.4778 
 488   0.0000       3.437983        93.5523 
 489   0.0000       3.440774        93.6282 
 490   0.0000       3.449675        93.8704 
 491   0.0000       3.454820        94.0104 
 492   0.0000       3.457119        94.0730 
 493   0.0000       3.470223        94.4296 
 494   0.0000       3.474488        94.5456 
 495   0.0000       3.481571        94.7384 
 496   0.0000       3.495424        95.1153 
 497   0.0000       3.503389        95.3321 
 498   0.0000       3.507103        95.4331 
 499   0.0000       3.511229        95.5454 
 500   0.0000       3.515436        95.6599 
 501   0.0000       3.526011        95.9476 
 502   0.0000       3.530727        96.0760 
 503   0.0000       3.533839        96.1606 
 504   0.0000       3.544964        96.4634 
 505   0.0000       3.552455        96.6672 
 506   0.0000       3.561781        96.9210 
 507   0.0000       3.569103        97.1202 
 508   0.0000       3.580945        97.4425 
 509   0.0000       3.583209        97.5041 
 510   0.0000       3.598944        97.9323 
 511   0.0000       3.603413        98.0539 
 512   0.0000       3.607552        98.1665 
 513   0.0000       3.615835        98.3919 
 514   0.0000       3.617556        98.4387 
 515   0.0000       3.626571        98.6840 
 516   0.0000       3.630056        98.7788 
 517   0.0000       3.633798        98.8807 
 518   0.0000       3.640822        99.0718 
 519   0.0000       3.645521        99.1997 
 520   0.0000       3.652973        99.4024 
 521   0.0000       3.661297        99.6290 
 522   0.0000       3.662496        99.6616 
 523   0.0000       3.673999        99.9746 
 524   0.0000       3.680497       100.1514 
 525   0.0000       3.682801       100.2141 
 526   0.0000       3.693973       100.5181 
 527   0.0000       3.701650       100.7270 
 528   0.0000       3.711155       100.9857 
 529   0.0000       3.717153       101.1489 
 530   0.0000       3.723857       101.3313 
 531   0.0000       3.727534       101.4314 
 532   0.0000       3.736463       101.6743 
 533   0.0000       3.741919       101.8228 
 534   0.0000       3.748981       102.0150 
 535   0.0000       3.750797       102.0644 
 536   0.0000       3.758382       102.2708 
 537   0.0000       3.772462       102.6539 
 538   0.0000       3.774040       102.6969 
 539   0.0000       3.777074       102.7794 
 540   0.0000       3.785529       103.0095 
 541   0.0000       3.789975       103.1305 
 542   0.0000       3.801020       103.4310 
 543   0.0000       3.806192       103.5717 
 544   0.0000       3.808631       103.6381 
 545   0.0000       3.812407       103.7409 
 546   0.0000       3.817839       103.8887 
 547   0.0000       3.836389       104.3934 
 548   0.0000       3.847063       104.6839 
 549   0.0000       3.849514       104.7506 
 550   0.0000       3.860614       105.0527 
 551   0.0000       3.864982       105.1715 
 552   0.0000       3.871640       105.3527 
 553   0.0000       3.882201       105.6401 
 554   0.0000       3.893061       105.9356 
 555   0.0000       3.897576       106.0584 
 556   0.0000       3.904456       106.2456 
 557   0.0000       3.917740       106.6071 
 558   0.0000       3.932966       107.0215 
 559   0.0000       3.936865       107.1275 
 560   0.0000       3.953986       107.5934 
 561   0.0000       3.957367       107.6854 
 562   0.0000       3.966785       107.9417 
 563   0.0000       3.976171       108.1971 
 564   0.0000       3.980141       108.3052 
 565   0.0000       3.984507       108.4239 
 566   0.0000       4.001115       108.8759 
 567   0.0000       4.008597       109.0795 
 568   0.0000       4.015234       109.2601 
 569   0.0000       4.026035       109.5540 
 570   0.0000       4.030096       109.6645 
 571   0.0000       4.036935       109.8506 
 572   0.0000       4.042751       110.0088 
 573   0.0000       4.059699       110.4700 
 574   0.0000       4.064994       110.6141 
 575   0.0000       4.069317       110.7317 
 576   0.0000       4.080411       111.0336 
 577   0.0000       4.090651       111.3123 
 578   0.0000       4.096517       111.4719 
 579   0.0000       4.100188       111.5718 
 580   0.0000       4.112603       111.9096 
 581   0.0000       4.117033       112.0302 
 582   0.0000       4.123122       112.1958 
 583   0.0000       4.129539       112.3705 
 584   0.0000       4.136299       112.5544 
 585   0.0000       4.148193       112.8781 
 586   0.0000       4.156279       113.0981 
 587   0.0000       4.159341       113.1814 
 588   0.0000       4.164359       113.3180 
 589   0.0000       4.166555       113.3777 
 590   0.0000       4.179655       113.7342 
 591   0.0000       4.185039       113.8807 
 592   0.0000       4.196634       114.1962 
 593   0.0000       4.203841       114.3923 
 594   0.0000       4.208429       114.5172 
 595   0.0000       4.222108       114.8894 
 596   0.0000       4.225713       114.9875 
 597   0.0000       4.235976       115.2668 
 598   0.0000       4.240619       115.3931 
 599   0.0000       4.249654       115.6390 
 600   0.0000       4.258184       115.8711 
 601   0.0000       4.271772       116.2408 
 602   0.0000       4.281157       116.4962 
 603   0.0000       4.283446       116.5585 
 604   0.0000       4.297689       116.9461 
 605   0.0000       4.307796       117.2211 
 606   0.0000       4.316401       117.4552 
 607   0.0000       4.331174       117.8572 
 608   0.0000       4.333812       117.9290 
 609   0.0000       4.341091       118.1271 
 610   0.0000       4.347603       118.3043 
 611   0.0000       4.358149       118.5913 
 612   0.0000       4.360523       118.6559 
 613   0.0000       4.363529       118.7377 
 614   0.0000       4.368974       118.8858 
 615   0.0000       4.385938       119.3474 
 616   0.0000       4.393000       119.5396 
 617   0.0000       4.401180       119.7622 
 618   0.0000       4.403191       119.8169 
 619   0.0000       4.413152       120.0880 
 620   0.0000       4.418928       120.2451 
 621   0.0000       4.426397       120.4484 
 622   0.0000       4.430190       120.5516 
 623   0.0000       4.440235       120.8249 
 624   0.0000       4.455664       121.2448 
 625   0.0000       4.464060       121.4733 
 626   0.0000       4.466724       121.5457 
 627   0.0000       4.473132       121.7201 
 628   0.0000       4.485705       122.0622 
 629   0.0000       4.493154       122.2649 
 630   0.0000       4.499176       122.4288 
 631   0.0000       4.512892       122.8020 
 632   0.0000       4.513845       122.8280 
 633   0.0000       4.525082       123.1338 
 634   0.0000       4.535559       123.4188 
 635   0.0000       4.542543       123.6089 
 636   0.0000       4.548334       123.7665 
 637   0.0000       4.568228       124.3078 
 638   0.0000       4.574989       124.4918 
 639   0.0000       4.577942       124.5721 
 640   0.0000       4.580166       124.6327 
 641   0.0000       4.588461       124.8584 
 642   0.0000       4.598018       125.1184 
 643   0.0000       4.611829       125.4942 
 644   0.0000       4.613094       125.5287 
 645   0.0000       4.622220       125.7770 
 646   0.0000       4.632861       126.0666 
 647   0.0000       4.644466       126.3823 
 648   0.0000       4.656198       126.7016 
 649   0.0000       4.658175       126.7554 
 650   0.0000       4.664770       126.9348 
 651   0.0000       4.670288       127.0850 
 652   0.0000       4.691127       127.6521 
 653   0.0000       4.697774       127.8329 
 654   0.0000       4.705223       128.0356 
 655   0.0000       4.710396       128.1764 
 656   0.0000       4.724270       128.5539 
 657   0.0000       4.728580       128.6712 
 658   0.0000       4.733980       128.8182 
 659   0.0000       4.741264       129.0164 
 660   0.0000       4.746055       129.1467 
 661   0.0000       4.769466       129.7838 
 662   0.0000       4.810603       130.9032 
 663   0.0000       4.821428       131.1977 
 664   0.0000       4.832177       131.4902 
 665   0.0000       4.852411       132.0408 
 666   0.0000       4.860997       132.2745 
 667   0.0000       4.869545       132.5071 
 668   0.0000       4.888198       133.0146 
 669   0.0000       4.893124       133.1487 
 670   0.0000       4.910236       133.6143 
 671   0.0000       4.916357       133.7809 
 672   0.0000       4.930316       134.1607 
 673   0.0000       4.955894       134.8567 
 674   0.0000       4.963305       135.0584 
 675   0.0000       5.000516       136.0709 
 676   0.0000       5.004203       136.1713 
 677   0.0000       5.014293       136.4459 
 678   0.0000       5.030761       136.8940 
 679   0.0000       5.036046       137.0378 
 680   0.0000       5.045482       137.2945 
 681   0.0000       5.048478       137.3761 
 682   0.0000       5.070629       137.9788 
 683   0.0000       5.094733       138.6347 
 684   0.0000       5.096719       138.6888 
 685   0.0000       5.102367       138.8425 
 686   0.0000       5.125319       139.4670 
 687   0.0000       5.134361       139.7131 
 688   0.0000       5.136964       139.7839 
 689   0.0000       5.163545       140.5072 
 690   0.0000       5.169659       140.6736 
 691   0.0000       5.175771       140.8399 
 692   0.0000       5.179668       140.9459 
 693   0.0000       5.192338       141.2907 
 694   0.0000       5.202801       141.5754 
 695   0.0000       5.205637       141.6526 
 696   0.0000       5.218336       141.9981 
 697   0.0000       5.222634       142.1151 
 698   0.0000       5.232006       142.3701 
 699   0.0000       5.240510       142.6015 
 700   0.0000       5.260667       143.1500 
 701   0.0000       5.263398       143.2243 
 702   0.0000       5.277561       143.6097 
 703   0.0000       5.283462       143.7703 
 704   0.0000       5.317847       144.7060 
 705   0.0000       5.329429       145.0211 
 706   0.0000       5.334529       145.1599 
 707   0.0000       5.356474       145.7571 
 708   0.0000       5.370375       146.1353 
 709   0.0000       5.374132       146.2376 
 710   0.0000       5.388514       146.6289 
 711   0.0000       5.403939       147.0486 
 712   0.0000       5.436764       147.9419 
 713   0.0000       5.456509       148.4792 
 714   0.0000       5.462078       148.6307 
 715   0.0000       5.483888       149.2242 
 716   0.0000       5.492653       149.4627 
 717   0.0000       5.501100       149.6925 
 718   0.0000       5.502745       149.7373 
 719   0.0000       5.513615       150.0331 
 720   0.0000       5.533152       150.5647 
 721   0.0000       5.536698       150.6612 
 722   0.0000       5.542172       150.8102 
 723   0.0000       5.549195       151.0013 
 724   0.0000       5.579637       151.8296 
 725   0.0000       5.598062       152.3310 
 726   0.0000       5.605095       152.5224 
 727   0.0000       5.619017       152.9012 
 728   0.0000       5.636732       153.3833 
 729   0.0000       5.639919       153.4700 
 730   0.0000       5.649610       153.7337 
 731   0.0000       5.664001       154.1253 
 732   0.0000       5.669511       154.2752 
 733   0.0000       5.680766       154.5815 
 734   0.0000       5.682862       154.6385 
 735   0.0000       5.695750       154.9892 
 736   0.0000       5.701879       155.1560 
 737   0.0000       5.739347       156.1756 
 738   0.0000       5.747130       156.3873 
 739   0.0000       5.761465       156.7774 
 740   0.0000       5.772030       157.0649 
 741   0.0000       5.797659       157.7623 
 742   0.0000       5.809754       158.0914 
 743   0.0000       5.822925       158.4499 
 744   0.0000       5.829937       158.6406 
 745   0.0000       5.846993       159.1048 
 746   0.0000       5.864811       159.5896 
 747   0.0000       5.878561       159.9638 
 748   0.0000       5.893385       160.3672 
 749   0.0000       5.912048       160.8750 
 750   0.0000       5.939526       161.6227 
 751   0.0000       5.962819       162.2566 
 752   0.0000       5.972293       162.5143 
 753   0.0000       5.975913       162.6129 
 754   0.0000       5.995593       163.1484 
 755   0.0000       6.003745       163.3702 
 756   0.0000       6.051418       164.6675 
 757   0.0000       6.059114       164.8769 
 758   0.0000       6.064741       165.0300 
 759   0.0000       6.094612       165.8428 
 760   0.0000       6.126352       166.7065 
 761   0.0000       6.169428       167.8787 
 762   0.0000       6.231374       169.5643 
 763   0.0000       6.236317       169.6988 
 764   0.0000       6.240341       169.8083 
 765   0.0000       6.262274       170.4051 
 766   0.0000       6.291224       171.1929 
 767   0.0000       6.317141       171.8982 
 768   0.0000       6.337662       172.4566 
 769   0.0000       6.353831       172.8965 
 770   0.0000       6.359431       173.0489 
 771   0.0000       6.386172       173.7766 
 772   0.0000       6.396949       174.0698 
 773   0.0000       6.449784       175.5076 
 774   0.0000       6.481134       176.3606 
 775   0.0000       6.488421       176.5589 
 776   0.0000       6.522033       177.4735 
 777   0.0000       6.547385       178.1634 
 778   0.0000       6.585807       179.2089 
 779   0.0000       6.611769       179.9154 
 780   0.0000       6.662946       181.3080 
 781   0.0000       6.674405       181.6198 
 782   0.0000       6.723586       182.9581 
 783   0.0000       6.802568       185.1073 
 784   0.0000       6.811913       185.3616 
 785   0.0000       6.865290       186.8141 
 786   0.0000       6.893988       187.5949 
 787   0.0000       6.912884       188.1091 
 788   0.0000       6.941415       188.8855 
 789   0.0000       6.957214       189.3154 
 790   0.0000       7.008199       190.7028 
 791   0.0000       7.071451       192.4240 
 792   0.0000       7.085857       192.8160 
 793   0.0000       7.119604       193.7343 
 794   0.0000       7.215518       196.3442 
 795   0.0000       7.250670       197.3008 
 796   0.0000       7.271444       197.8660 
 797   0.0000       7.281107       198.1290 
 798   0.0000       7.336052       199.6241 
 799   0.0000       7.354887       200.1367 
 800   0.0000       7.394003       201.2011 
 801   0.0000       7.501846       204.1356 
 802   0.0000       7.528634       204.8646 
 803   0.0000       7.564298       205.8350 
 804   0.0000       7.588849       206.5031 
 805   0.0000       7.790008       211.9769 
 806   0.0000       7.813910       212.6273 
 807   0.0000       7.927537       215.7192 
 808   0.0000       7.973047       216.9576 
 809   0.0000       9.524719       259.1808 
 810   0.0000       9.740666       265.0570 
 811   0.0000      10.819112       294.4030 
 812   0.0000      11.267291       306.5986 
 813   0.0000      12.109044       329.5038 
 814   0.0000      12.439755       338.5029 
 815   0.0000      12.731617       346.4449 
 816   0.0000      13.000275       353.7555 
 817   0.0000      13.264886       360.9559 
 818   0.0000      13.390829       364.3830 
 819   0.0000      13.502276       367.4156 
 820   0.0000      13.580824       369.5530 
 821   0.0000      13.769477       374.6865 
 822   0.0000      13.920871       378.8061 
 823   0.0000      14.054820       382.4511 
 824   0.0000      14.185144       385.9974 
 825   0.0000      14.426316       392.5600 
 826   0.0000      14.673215       399.2785 
 827   0.0000      15.853610       431.3987 

                    ********************************
                    * MULLIKEN POPULATION ANALYSIS *
                    ********************************

-----------------------
MULLIKEN ATOMIC CHARGES
-----------------------
   0 C :   -0.263777
   1 C :    0.019196
   2 O :   -0.315036
   3 C :    0.402500
   4 O :   -0.371010
   5 C :   -0.173316
   6 C :    0.113652
   7 C :   -0.333005
   8 N :   -0.131948
   9 C :    0.202501
  10 S :   -0.436026
  11 N :   -0.220202
  12 C :    0.096950
  13 C :    0.065427
  14 C :   -0.234176
  15 C :   -0.120385
  16 C :   -0.281429
  17 C :    0.325844
  18 O :   -0.359617
  19 C :   -0.307827
  20 H :    0.112521
  21 H :    0.097636
  22 H :    0.089169
  23 H :    0.100323
  24 H :    0.099244
  25 H :    0.117894
  26 H :    0.140850
  27 H :    0.124445
  28 H :    0.195459
  29 H :    0.197836
  30 H :    0.192746
  31 H :    0.142805
  32 H :    0.160805
  33 H :    0.128899
  34 H :    0.243306
  35 H :    0.177746
Sum of atomic charges:   -0.0000000

--------------------------------
MULLIKEN REDUCED ORBITAL CHARGES
--------------------------------
  0 C s       :     3.265546  s :     3.265546
      pz      :     1.025375  p :     2.920467
      px      :     0.948606
      py      :     0.946486
      dz2     :     0.012749  d :     0.073235
      dxz     :     0.008896
      dyz     :     0.025582
      dx2y2   :     0.008252
      dxy     :     0.017756
      f0      :     0.000745  f :     0.004530
      f+1     :     0.000259
      f-1     :     0.000915
      f+2     :     0.000133
      f-2     :     0.000854
      f+3     :     0.000930
      f-3     :     0.000694
  1 C s       :     3.169495  s :     3.169495
      pz      :     0.991905  p :     2.639029
      px      :     0.674596
      py      :     0.972529
      dz2     :     0.021011  d :     0.160607
      dxz     :     0.027606
      dyz     :     0.033002
      dx2y2   :     0.040296
      dxy     :     0.038692
      f0      :     0.001445  f :     0.011673
      f+1     :     0.001279
      f-1     :     0.001442
      f+2     :     0.000873
      f-2     :     0.001453
      f+3     :     0.002845
      f-3     :     0.002336
  2 O s       :     3.731907  s :     3.731907
      pz      :     1.775895  p :     4.546690
      px      :     1.180972
      py      :     1.589823
      dz2     :     0.004208  d :     0.034199
      dxz     :     0.004492
      dyz     :     0.003519
      dx2y2   :     0.004415
      dxy     :     0.017565
      f0      :     0.000253  f :     0.002239
      f+1     :     0.000510
      f-1     :     0.000156
      f+2     :     0.000104
      f-2     :     0.000214
      f+3     :     0.000410
      f-3     :     0.000592
  3 C s       :     3.073811  s :     3.073811
      pz      :     0.691490  p :     2.209222
      px      :     0.711022
      py      :     0.806711
      dz2     :     0.029248  d :     0.288509
      dxz     :     0.080819
      dyz     :     0.023756
      dx2y2   :     0.084123
      dxy     :     0.070564
      f0      :     0.002426  f :     0.025957
      f+1     :     0.002042
      f-1     :     0.001936
      f+2     :     0.002368
      f-2     :     0.004741
      f+3     :     0.008044
      f-3     :     0.004400
  4 O s       :     3.767492  s :     3.767492
      pz      :     1.465023  p :     4.565006
      px      :     1.450518
      py      :     1.649464
      dz2     :     0.004431  d :     0.036042
      dxz     :     0.009796
      dyz     :     0.002429
      dx2y2   :     0.009102
      dxy     :     0.010283
      f0      :     0.000190  f :     0.002471
      f+1     :     0.000345
      f-1     :     0.000078
      f+2     :     0.000253
      f-2     :     0.000338
      f+3     :     0.000540
      f-3     :     0.000726
  5 C s       :     3.187510  s :     3.187510
      pz      :     0.933836  p :     2.876512
      px      :     0.994044
      py      :     0.948631
      dz2     :     0.019012  d :     0.098186
      dxz     :     0.013983
      dyz     :     0.029436
      dx2y2   :     0.018972
      dxy     :     0.016783
      f0      :     0.000993  f :     0.011109
      f+1     :     0.001436
      f-1     :     0.002062
      f+2     :     0.002247
      f-2     :     0.001296
      f+3     :     0.001240
      f-3     :     0.001835
  6 C s       :     3.189629  s :     3.189629
      pz      :     0.867596  p :     2.512932
      px      :     0.879811
      py      :     0.765525
      dz2     :     0.032461  d :     0.169698
      dxz     :     0.019257
      dyz     :     0.047045
      dx2y2   :     0.029318
      dxy     :     0.041617
      f0      :     0.001693  f :     0.014088
      f+1     :     0.001080
      f-1     :     0.002985
      f+2     :     0.002360
      f-2     :     0.002006
      f+3     :     0.001949
      f-3     :     0.002014
  7 C s       :     3.301242  s :     3.301242
      pz      :     0.885474  p :     2.951713
      px      :     1.015773
      py      :     1.050466
      dz2     :     0.018738  d :     0.075390
      dxz     :     0.012310
      dyz     :     0.017695
      dx2y2   :     0.013270
      dxy     :     0.013377
      f0      :     0.001149  f :     0.004660
      f+1     :     0.000822
      f-1     :     0.000851
      f+2     :     0.000510
      f-2     :     0.000367
      f+3     :     0.000542
      f-3     :     0.000418
  8 N s       :     3.347014  s :     3.347014
      pz      :     1.178893  p :     3.720209
      px      :     1.465893
      py      :     1.075423
      dz2     :     0.014108  d :     0.059733
      dxz     :     0.008779
      dyz     :     0.017199
      dx2y2   :     0.008933
      dxy     :     0.010713
      f0      :     0.000706  f :     0.004992
      f+1     :     0.000981
      f-1     :     0.000714
      f+2     :     0.000930
      f-2     :     0.000779
      f+3     :     0.000457
      f-3     :     0.000426
  9 C s       :     3.169095  s :     3.169095
      pz      :     0.772791  p :     2.348288
      px      :     0.690530
      py      :     0.884966
      dz2     :     0.066832  d :     0.262568
      dxz     :     0.035269
      dyz     :     0.051712
      dx2y2   :     0.048407
      dxy     :     0.060347
      f0      :     0.003132  f :     0.017549
      f+1     :     0.002001
      f-1     :     0.002771
      f+2     :     0.002722
      f-2     :     0.002128
      f+3     :     0.002159
      f-3     :     0.002636
 10 S s       :     5.857032  s :     5.857032
      pz      :     3.578849  p :    10.484424
      px      :     3.719153
      py      :     3.186421
      dz2     :     0.007822  d :     0.084455
      dxz     :     0.004302
      dyz     :     0.036185
      dx2y2   :     0.023420
      dxy     :     0.012726
      f0      :     0.001272  f :     0.010116
      f+1     :     0.000043
      f-1     :     0.001602
      f+2     :     0.003355
      f-2     :     0.001024
      f+3     :     0.001198
      f-3     :     0.001622
 11 N s       :     3.386158  s :     3.386158
      pz      :     1.198802  p :     3.771768
      px      :     1.506301
      py      :     1.066664
      dz2     :     0.011434  d :     0.057888
      dxz     :     0.006251
      dyz     :     0.016666
      dx2y2   :     0.012343
      dxy     :     0.011195
      f0      :     0.000359  f :     0.004388
      f+1     :     0.000494
      f-1     :     0.000579
      f+2     :     0.000756
      f-2     :     0.000568
      f+3     :     0.000830
      f-3     :     0.000802
 12 C s       :     3.106137  s :     3.106137
      pz      :     0.843151  p :     2.608447
      px      :     0.960225
      py      :     0.805071
      dz2     :     0.035904  d :     0.177620
      dxz     :     0.025157
      dyz     :     0.040977
      dx2y2   :     0.026613
      dxy     :     0.048969
      f0      :     0.001153  f :     0.010847
      f+1     :     0.001341
      f-1     :     0.001813
      f+2     :     0.001985
      f-2     :     0.001847
      f+3     :     0.001317
[...]
      f+2     :     0.006754
      f-2     :     0.005221
      f+3     :     0.006960
      f-3     :     0.009550
 15 C s       :     2.704740  s :     2.704740
      pz      :     0.879775  p :     2.790955
      px      :     0.943813
      py      :     0.967368
      dz2     :     0.085422  d :     0.422716
      dxz     :     0.071177
      dyz     :     0.052264
      dx2y2   :     0.114852
      dxy     :     0.099000
      f0      :     0.002757  f :     0.041946
      f+1     :     0.005059
      f-1     :     0.005758
      f+2     :     0.006961
      f-2     :     0.006398
      f+3     :     0.007588
      f-3     :     0.007426
 16 C s       :     2.701184  s :     2.701184
      pz      :     0.935705  p :     2.873867
      px      :     0.968448
      py      :     0.969714
      dz2     :     0.039237  d :     0.392742
      dxz     :     0.058701
      dyz     :     0.080232
      dx2y2   :     0.097923
      dxy     :     0.116649
      f0      :     0.004131  f :     0.040820
      f+1     :     0.004595
      f-1     :     0.003255
      f+2     :     0.006174
      f-2     :     0.005318
      f+3     :     0.008865
      f-3     :     0.008484
 17 C s       :     2.704833  s :     2.704833
      pz      :     0.837024  p :     2.679328
      px      :     0.820151
      py      :     1.022152
      dz2     :     0.114240  d :     0.705923
      dxz     :     0.113121
      dyz     :     0.127008
      dx2y2   :     0.175613
      dxy     :     0.175941
      f0      :     0.008032  f :     0.098815
      f+1     :     0.016228
      f-1     :     0.007746
      f+2     :     0.015473
      f-2     :     0.014096
      f+3     :     0.017214
      f-3     :     0.020027
 18 O s       :     3.178313  s :     3.178313
      pz      :     1.469060  p :     4.350380
      px      :     1.391478
      py      :     1.489842
      dz2     :     0.007434  d :     0.075661
      dxz     :     0.017293
      dyz     :     0.015413
      dx2y2   :     0.018587
      dxy     :     0.016935
      f0      :     0.000562  f :     0.005059
      f+1     :     0.000766
      f-1     :     0.000285
      f+2     :     0.000722
      f-2     :     0.000852
      f+3     :     0.000836
      f-3     :     0.001037
 19 C s       :     2.699135  s :     2.699135
      pz      :     0.930645  p :     2.857247
      px      :     0.960206
      py      :     0.966395
      dz2     :     0.064136  d :     0.382460
      dxz     :     0.065173
      dyz     :     0.051878
      dx2y2   :     0.098460
      dxy     :     0.102813
      f0      :     0.002888  f :     0.039645
      f+1     :     0.004606
      f-1     :     0.004794
      f+2     :     0.006792
      f-2     :     0.006514
      f+3     :     0.007550
      f-3     :     0.006500
 20 H s       :     0.842231  s :     0.842231
      pz      :     0.052126  p :     0.149784
      px      :     0.040939
      py      :     0.056718
      dz2     :     0.006962  d :     0.027650
      dxz     :     0.003554
      dyz     :     0.006443
      dx2y2   :     0.005282
      dxy     :     0.005410
 21 H s       :     0.849412  s :     0.849412
      pz      :     0.066805  p :     0.151615
      px      :     0.039238
      py      :     0.045571
      dz2     :     0.008639  d :     0.027525
      dxz     :     0.007472
      dyz     :     0.008128
      dx2y2   :     0.001248
      dxy     :     0.002038
 22 H s       :     0.846375  s :     0.846375
      pz      :     0.043629  p :     0.149956
      px      :     0.065095
      py      :     0.041232
      dz2     :     0.003928  d :     0.027322
      dxz     :     0.007210
      dyz     :     0.001958
      dx2y2   :     0.006721
      dxy     :     0.007506
 23 H s       :     0.859262  s :     0.859262
      pz      :     0.058335  p :     0.149980
      px      :     0.031058
      py      :     0.060586
      dz2     :     0.007435  d :     0.027041
      dxz     :     0.003788
      dyz     :     0.006967
      dx2y2   :     0.004665
      dxy     :     0.004187
 24 H s       :     0.850686  s :     0.850686
      pz      :     0.076446  p :     0.155487
      px      :     0.029708
      py      :     0.049332
      dz2     :     0.009778  d :     0.027875
      dxz     :     0.005428
      dyz     :     0.008888
      dx2y2   :     0.001653
      dxy     :     0.002128
 25 H s       :     0.834664  s :     0.834664
      pz      :     0.050462  p :     0.149888
      px      :     0.040083
      py      :     0.059344
      dz2     :     0.006761  d :     0.027589
      dxz     :     0.003561
      dyz     :     0.006961
      dx2y2   :     0.004587
      dxy     :     0.005720
 26 H s       :     0.829256  s :     0.829256
      pz      :     0.041113  p :     0.149245
      px      :     0.048336
      py      :     0.059796
      dz2     :     0.004171  d :     0.027348
      dxz     :     0.003404
      dyz     :     0.006131
      dx2y2   :     0.008058
      dxy     :     0.005584
 27 H s       :     0.839503  s :     0.839503
      pz      :     0.037449  p :     0.154112
      px      :     0.072819
      py      :     0.043844
      dz2     :     0.002390  d :     0.027877
      dxz     :     0.007970
      dyz     :     0.000884
      dx2y2   :     0.007502
      dxy     :     0.009131
 28 H s       :     0.742436  s :     0.742436
      pz      :     0.060252  p :     0.252304
      px      :     0.088110
      py      :     0.103941
      dz2     :     0.008104  d :     0.061302
      dxz     :     0.003780
      dyz     :     0.016216
      dx2y2   :     0.015119
      dxy     :     0.018083
 29 H s       :     0.747554  s :     0.747554
      pz      :     0.117047  p :     0.256159
      px      :     0.093312
      py      :     0.045801
      dz2     :     0.022208  d :     0.061774
      dxz     :     0.018543
      dyz     :     0.013085
      dx2y2   :     0.004661
      dxy     :     0.003276
 30 H s       :     0.801756  s :     0.801756
      pz      :     0.040936  p :     0.177195
      px      :     0.070674
      py      :     0.065586
      dz2     :     0.003058  d :     0.031946
      dxz     :     0.006292
      dyz     :     0.003893
      dx2y2   :     0.009536
      dxy     :     0.009167
 31 H s       :     0.839772  s :     0.839772
      pz      :     0.054679  p :     0.159889
      px      :     0.067564
      py      :     0.037647
      dz2     :     0.004936  d :     0.027713
      dxz     :     0.006847
      dyz     :     0.003223
      dx2y2   :     0.006134
      dxy     :     0.006572
 32 H s       :     0.841402  s :     0.841402
      pz      :     0.036527  p :     0.149264
      px      :     0.039076
      py      :     0.073660
      dz2     :     0.002568  d :     0.026132
      dxz     :     0.000863
      dyz     :     0.006873
      dx2y2   :     0.007880
      dxy     :     0.007949
 33 H s       :     0.848487  s :     0.848487
      pz      :     0.056052  p :     0.158450
      px      :     0.048250
      py      :     0.054148
      dz2     :     0.005445  d :     0.027580
      dxz     :     0.004339
      dyz     :     0.005861
      dx2y2   :     0.006243
      dxy     :     0.005692
 34 H s       :     0.705618  s :     0.705618
      pz      :     0.111746  p :     0.345794
      px      :     0.081859
      py      :     0.152189
      dz2     :     0.021520  d :     0.098976
      dxz     :     0.010092
      dyz     :     0.024717
      dx2y2   :     0.021876
      dxy     :     0.020771
 35 H s       :     0.840525  s :     0.840525
      pz      :     0.043255  p :     0.161398
      px      :     0.042440
      py      :     0.075703
      dz2     :     0.002598  d :     0.028477
      dxz     :     0.001261
      dyz     :     0.007804
      dx2y2   :     0.008318
      dxy     :     0.008495


                      *****************************
                      * MAYER POPULATION ANALYSIS *
                      *****************************

  NA   - Mulliken gross atomic population
  ZA   - Total nuclear charge
  QA   - Mulliken gross atomic charge
  VA   - Mayer's total valence
  BVA  - Mayer's bonded valence
  FA   - Mayer's free valence

  ATOM       NA         ZA         QA         VA         BVA        FA
  0 C      6.2638     6.0000    -0.2638     3.9109     3.9109     0.0000
  1 C      5.9808     6.0000     0.0192     3.8582     3.8582    -0.0000
  2 O      8.3150     8.0000    -0.3150     2.0408     2.0408    -0.0000
  3 C      5.5975     6.0000     0.4025     4.2380     4.2380     0.0000
  4 O      8.3710     8.0000    -0.3710     2.1480     2.1480    -0.0000
  5 C      6.1733     6.0000    -0.1733     3.6009     3.6009    -0.0000
  6 C      5.8863     6.0000     0.1137     3.8188     3.8188    -0.0000
  7 C      6.3330     6.0000    -0.3330     3.8804     3.8804    -0.0000
  8 N      7.1319     7.0000    -0.1319     3.2599     3.2599    -0.0000
  9 C      5.7975     6.0000     0.2025     4.1390     4.1390     0.0000
 10 S     16.4360    16.0000    -0.4360     1.7549     1.7549    -0.0000
 11 N      7.2202     7.0000    -0.2202     3.2710     3.2710     0.0000
 12 C      5.9031     6.0000     0.0969     3.8888     3.8888     0.0000
 13 C      5.9346     6.0000     0.0654     3.6565     3.6565    -0.0000
 14 C      6.2342     6.0000    -0.2342     3.8924     3.8924     0.0000
 15 C      6.1204     6.0000    -0.1204     3.8070     3.8070    -0.0000
 16 C      6.2814     6.0000    -0.2814     3.7879     3.7879    -0.0000
 17 C      5.6742     6.0000     0.3258     3.8508     3.8508    -0.0000
 18 O      8.3596     8.0000    -0.3596     2.1137     2.1137     0.0000
 19 C      6.3078     6.0000    -0.3078     3.8158     3.8158    -0.0000
 20 H      0.8875     1.0000     0.1125     0.9863     0.9863    -0.0000
 21 H      0.9024     1.0000     0.0976     0.9850     0.9850     0.0000
 22 H      0.9108     1.0000     0.0892     0.9814     0.9814    -0.0000
 23 H      0.8997     1.0000     0.1003     0.9648     0.9648     0.0000
 24 H      0.9008     1.0000     0.0992     0.9545     0.9545    -0.0000
 25 H      0.8821     1.0000     0.1179     0.9825     0.9825     0.0000
 26 H      0.8592     1.0000     0.1408     0.9778     0.9778    -0.0000
 27 H      0.8756     1.0000     0.1244     0.9695     0.9695    -0.0000
 28 H      0.8045     1.0000     0.1955     1.0222     1.0222    -0.0000
 29 H      0.8022     1.0000     0.1978     1.0179     1.0179     0.0000
 30 H      0.8073     1.0000     0.1927     0.9872     0.9872     0.0000
 31 H      0.8572     1.0000     0.1428     0.9934     0.9934     0.0000
 32 H      0.8392     1.0000     0.1608     0.9773     0.9773    -0.0000
 33 H      0.8711     1.0000     0.1289     0.9919     0.9919    -0.0000
 34 H      0.7567     1.0000     0.2433     1.0089     1.0089     0.0000
 35 H      0.8223     1.0000     0.1777     0.9851     0.9851    -0.0000

  Mayer bond orders larger than 0.100000
B(  0-C ,  1-C ) :   0.9787 B(  0-C , 20-H ) :   0.9771 B(  0-C , 21-H ) :   0.9832 
B(  0-C , 22-H ) :   0.9771 B(  1-C ,  2-O ) :   0.9138 B(  1-C , 23-H ) :   0.9709 
B(  1-C , 24-H ) :   0.9587 B(  2-O ,  3-C ) :   1.1367 B(  3-C ,  4-O ) :   2.1122 
B(  3-C ,  5-C ) :   0.9112 B(  5-C ,  6-C ) :   1.7157 B(  5-C , 12-C ) :   0.9543 
B(  6-C ,  7-C ) :   0.9428 B(  6-C ,  8-N ) :   1.1021 B(  7-C , 25-H ) :   0.9795 
B(  7-C , 26-H ) :   0.9693 B(  7-C , 27-H ) :   0.9691 B(  8-N ,  9-C ) :   1.2004 
B(  8-N , 28-H ) :   0.9518 B(  9-C , 10-S ) :   1.6112 B(  9-C , 11-N ) :   1.2779 
B( 11-N , 12-C ) :   1.0238 B( 11-N , 29-H ) :   0.9476 B( 12-C , 13-C ) :   0.8752 
B( 12-C , 30-H ) :   0.9869 B( 13-C , 14-C ) :   1.3838 B( 13-C , 19-C ) :   1.3509 
B( 14-C , 15-C ) :   1.3951 B( 14-C , 31-H ) :   0.9728 B( 15-C , 16-C ) :   1.3564 
B( 15-C , 32-H ) :   0.9702 B( 16-C , 17-C ) :   1.3290 B( 16-C , 33-H ) :   0.9864 
B( 17-C , 18-O ) :   1.1058 B( 17-C , 19-C ) :   1.3577 B( 18-O , 34-H ) :   0.9780 
B( 19-C , 35-H ) :   0.9537 

-------
TIMINGS
-------

Total SCF time: 0 days 1 hours 39 min 34 sec 

Total time                  ....    5974.388 sec
Sum of individual times     ....    5970.169 sec  ( 99.9%)

Fock matrix formation       ....    5958.732 sec  ( 99.7%)
Diagonalization             ....       1.339 sec  (  0.0%)
Density matrix formation    ....       0.209 sec  (  0.0%)
Population analysis         ....       0.335 sec  (  0.0%)
Initial guess               ....       4.890 sec  (  0.1%)
Orbital Transformation      ....       0.000 sec  (  0.0%)
Orbital Orthonormalization  ....       0.000 sec  (  0.0%)
DIIS solution               ....       2.092 sec  (  0.0%)
SOSCF solution              ....       1.272 sec  (  0.0%)

------------------------------------------------------------------------------
                                ORCA  MP2 
------------------------------------------------------------------------------

Freezing NCore=48 chemical core electrons

-------------
RI-MP2 ENERGY
-------------
Dimension of the basis                    ...  828
Memory devoted to MP2                     ...  256 MB   
Data format for buffers                   ... DOUBLE
Compression type for matrix containers    ... UNCOMPRESSED
Overall scaling of the MP2 energy         ...   1.000e+00
Calculating two index integrals           ... done (    0.040 sec)
Cholesky decomposition of V**-1           ... done (    0.341 sec)

-----------------
RI-TRANSFORMATION (AUX index driven)
-----------------

Dimension of the orbital-basis         ... 828
Dimension of the aux-basis             ... 2141
Transformation of internal/external MOs...   24-  76 to   77- 827
Number Format for Storage              ... Double (8 Byte)
Integral mode                          ... Direct

First Phase: integral generation and transformation of MO indices
  Aux angular momentum 0               ... done (    4.923 sec)
  Aux angular momentum 1               ... done (    7.651 sec)
  Aux angular momentum 2               ... done (   10.283 sec)
  Aux angular momentum 3               ... done (    8.289 sec)
  Aux angular momentum 4               ... done (    2.967 sec)
Closing buffer VIA ( 0.63 GB; CompressionRatio= 1.00)
  Phase 1 completed in    34.393 sec
Second Phase: sorting and transformation of aux index

IA-Transformation
Memory available                       ... 167 MB 
Max. # MO pairs treated in a batch     ... 12    
# of internal orbitals                 ... 53
# batches for internal orbitals        ... 5
Closing buffer IAV ( 0.63 GB; CompressionRatio= 1.00)
(ia|v) transformation done in    22.679 sec

  Phase 2 completed in    22.739 sec
RI-Integral transformation completed in    57.137 sec
Opening buffers                              ... done

Starting loop over batches of integrals:

Operator 0  - window                       ... ( 24- 76)x( 77-827)
Operator 0  - Memory available             ...   256 MB
Operator 0  - Memory needed per MO         ...  12.3 MB
Operator 0  - Number of orbitals per batch ... 13
Operator 0  - Number of batches            ... 5

OPERATOR  0   PASS   0:  MOs    24 ...   36
  Reading integrals       ... ok
  Internal MO  26
  Internal MO  29
  Internal MO  32
  Internal MO  35
OPERATOR  0   PASS   1:  MOs    37 ...   49
  Reading integrals       ... ok
  Internal MO  38
  Internal MO  41
  Internal MO  44
  Internal MO  47
OPERATOR  0   PASS   2:  MOs    50 ...   62
  Reading integrals       ... ok
  Internal MO  50
  Internal MO  53
  Internal MO  56
  Internal MO  59
  Internal MO  62
OPERATOR  0   PASS   3:  MOs    63 ...   75
  Reading integrals       ... ok
  Internal MO  65
  Internal MO  68
  Internal MO  71
  Internal MO  74
OPERATOR  0   PASS   4:  MOs    76 ...   76
  Reading integrals       ... ok
Time spent in pair loops =    82.360 sec
Deleting buffer (Ka|jb)[aa] ...done

-----------------------------------------------
 RI-MP2 CORRELATION ENERGY:     -3.555595428 Eh
-----------------------------------------------


-------
TIMINGS
-------

Total time                :  139.991 sec
Integral trafo            :   57.152 sec ( 40.8%)
I/O of integrals          :    4.052 sec (  2.9%)
K(i,j) Operators          :   49.296 sec ( 35.2%)
T(i,j) pair energies      :    8.455 sec (  6.0%)
V-calculation             :    0.040 sec (  0.0%)
V**(-1/2)                 :    0.341 sec (  0.2%)
Gamma(ia|P)               :    0.000 sec (  0.0%)
Gamma-Trafo               :    0.000 sec (  0.0%)
D(virtual)                :    0.000 sec (  0.0%)
D(internal)               :    0.000 sec (  0.0%)
W(virtual)                :    0.000 sec (  0.0%)
W(internal)               :    0.000 sec (  0.0%)
L(virtual)                :    0.000 sec (  0.0%)
L(internal)               :    0.000 sec (  0.0%)
G(D)                      :    0.000 sec (  0.0%)
G(Z)                      :    0.000 sec (  0.0%)
Z-Vector Solution         :    0.000 sec (  0.0%)
3-Index Derivative        :    0.000 sec (  0.0%)
2-Index Derivative        :    0.000 sec (  0.0%)
Separable Gradient        :    0.000 sec (  0.0%)


---------------------------------------
MP2 TOTAL ENERGY:    -1274.277330634 Eh
---------------------------------------

-------------------------   --------------------
FINAL SINGLE POINT ENERGY     -1274.277330634211
-------------------------   --------------------


                            ***************************************
                            *     ORCA property calculations      *
                            ***************************************


  WARNING: The energy has been calculated at the MP2 level but the densities
           used in the property calculations are still SCF densities
           MP2 response densities have not been calculated 
           use %mp2 Density relaxed end
           or  %mp2 Density unrelaxed end

                                    ---------------------
                                    Active property flags
                                    ---------------------
   (+) Dipole Moment


------------------------------------------------------------------------------
                       ORCA ELECTRIC PROPERTIES CALCULATION
------------------------------------------------------------------------------

Dipole Moment Calculation                       ... on
Quadrupole Moment Calculation                   ... off
Polarizability Calculation                      ... off
GBWName                                         ... G2_CONFS/Conf30.orca.gbw
Electron density file                           ... G2_CONFS/Conf30.orca.scfp
The origin for moment calculation is the CENTER OF MASS  = (32.846645, 31.446261 35.248266)

-------------
DIPOLE MOMENT
-------------
                                X             Y             Z
Electronic contribution:     10.84155       8.70201       6.78166
Nuclear contribution   :    -12.35544      -9.74057      -7.35106
                        -----------------------------------------
Total Dipole Moment    :     -1.51389      -1.03856      -0.56941
                        -----------------------------------------
Magnitude (a.u.)       :      1.92216
Magnitude (Debye)      :      4.88574



--------------------
Rotational spectrum 
--------------------
 
Rotational constants in cm-1:     0.012071     0.009208     0.006895 
Rotational constants in MHz :   361.871074   276.061923   206.696795 

 Dipole components along the rotational axes: 
x,y,z [a.u.] :    -1.387139    -0.715553     1.121840 
x,y,z [Debye]:    -3.525827    -1.818791     2.851492 

 

Timings for individual modules:

Sum of individual times         ...     6115.950 sec (= 101.932 min)
GTO integral calculation        ...        1.227 sec (=   0.020 min)   0.0 %
SCF iterations                  ...     5974.437 sec (=  99.574 min)  97.7 %
MP2 module                      ...      140.286 sec (=   2.338 min)   2.3 %
                             ****ORCA TERMINATED NORMALLY****
TOTAL RUN TIME: 0 days 1 hours 41 minutes 56 seconds 821 msec
