
                                 *****************
                                 * O   R   C   A *
                                 *****************

           --- An Ab Initio, DFT and Semiempirical electronic structure package ---

                  #######################################################
                  #                        -***-                        #
                  #          Department of theory and spectroscopy      #
                  #               Directorship: Frank Neese             #
                  #        Max Planck Institute fuer Kohlenforschung    #
                  #                Kaiser Wilhelm Platz 1               #
                  #                 D-45470 Muelheim/Ruhr               #
                  #                      Germany                        #
                  #                                                     #
                  #                  All rights reserved                #
                  #                        -***-                        #
                  #######################################################


                         Program Version 4.2.0 -  RELEASE  -


 With contributions from (in alphabetic order):
   Daniel Aravena         : Magnetic Suceptibility
   Michael Atanasov       : Ab Initio Ligand Field Theory (pilot matlab implementation)
   Alexander A. Auer      : GIAO ZORA, VPT2
   Ute Becker             : Parallelization
   Giovanni Bistoni       : ED, misc. LED, open-shell LED, HFLED
   Martin Brehm           : Molecular dynamics
   Dmytro Bykov           : SCF Hessian
   Vijay G. Chilkuri      : MRCI spin determinant printing, contributions to CSF-ICE
   Dipayan Datta          : RHF DLPNO-CCSD density
   Achintya Kumar Dutta   : EOM-CC, STEOM-CC
   Dmitry Ganyushin       : Spin-Orbit,Spin-Spin,Magnetic field MRCI
   Miquel Garcia          : C-PCM Hessian, Gaussian charge scheme
   Yang Guo               : DLPNO-NEVPT2, CIM, IAO-localization
   Andreas Hansen         : Spin unrestricted coupled pair/coupled cluster methods
   Benjamin Helmich-Paris : CASSCF linear response (MC-RPA)
   Lee Huntington         : MR-EOM, pCC
   Robert Izsak           : Overlap fitted RIJCOSX, COSX-SCS-MP3, EOM
   Christian Kollmar      : KDIIS, OOCD, Brueckner-CCSD(T), CCSD density
   Simone Kossmann        : Meta GGA functionals, TD-DFT gradient, OOMP2, MP2 Hessian
   Martin Krupicka        : AUTO-CI
   Lucas Lang             : DCDCAS
   Dagmar Lenk            : GEPOL surface, SMD
   Dimitrios Liakos       : Extrapolation schemes; Compound Job, initial MDCI parallelization
   Dimitrios Manganas     : Further ROCIS development; embedding schemes
   Dimitrios Pantazis     : SARC Basis sets
   Taras Petrenko         : DFT Hessian,TD-DFT gradient, ASA, ECA, R-Raman, ABS, FL, XAS/XES, NRVS
   Peter Pinski           : DLPNO-MP2, DLPNO-MP2 Gradient
   Christoph Reimann      : Effective Core Potentials
   Marius Retegan         : Local ZFS, SOC
   Christoph Riplinger    : Optimizer, TS searches, QM/MM, DLPNO-CCSD(T), (RO)-DLPNO pert. Triples
   Tobias Risthaus        : Range-separated hybrids, TD-DFT gradient, RPA, STAB
   Michael Roemelt        : Original ROCIS implementation
   Masaaki Saitow         : Open-shell DLPNO-CCSD energy and density
   Barbara Sandhoefer     : DKH picture change effects
   Avijit Sen             : IP-ROCIS
   Kantharuban Sivalingam : CASSCF convergence, NEVPT2, FIC-MRCI
   Bernardo de Souza      : ESD, SOC TD-DFT
   Georgi Stoychev        : AutoAux, RI-MP2 NMR
   Willem Van den Heuvel  : Paramagnetic NMR
   Boris Wezisla          : Elementary symmetry handling
   Frank Wennmohs         : Technical directorship


 We gratefully acknowledge several colleagues who have allowed us to
 interface, adapt or use parts of their codes:
   Stefan Grimme, W. Hujo, H. Kruse,             : VdW corrections, initial TS optimization,
                  C. Bannwarth                     DFT functionals, gCP, sTDA/sTD-DF
   Ed Valeev, F. Pavosevic, A. Kumar             : LibInt (2-el integral package), F12 methods
   Garnet Chan, S. Sharma, J. Yang, R. Olivares  : DMRG
   Ulf Ekstrom                                   : XCFun DFT Library
   Mihaly Kallay                                 : mrcc  (arbitrary order and MRCC methods)
   Andreas Klamt, Michael Diedenhofen            : otool_cosmo (COSMO solvation model)
   Jiri Pittner, Ondrej Demel                    : Mk-CCSD
   Frank Weinhold                                : gennbo (NPA and NBO analysis)
   Christopher J. Cramer and Donald G. Truhlar   : smd solvation model
   Lars Goerigk                                  : TD-DFT with DH, B97 family of functionals
   V. Asgeirsson, H. Jonsson                     : NEB implementation
   FAccTs GmbH                                   : IRC, NEB, NEB-TS, Multilevel, MM, QM/MM, CI optimization
   S Lehtola, MJT Oliveira, MAL Marques          : LibXC Library


 Your calculation uses the libint2 library for the computation of 2-el integrals
 For citations please refer to: http://libint.valeyev.net

 Your ORCA version has been built with support for libXC version: 4.2.3
 For citations please refer to: https://tddft.org/programs/libxc/

 This ORCA versions uses:
   CBLAS   interface :  Fast vector & matrix operations
   LAPACKE interface :  Fast linear algebra routines
   SCALAPACK package :  Parallel linear algebra routines


----- Orbital basis set information -----
Your calculation utilizes the basis: cc-pVTZ 
       H, B-Ne : Obtained from the ccRepo (grant-hill.group.shef.ac.uk/ccrepo) Feb. 2017
                 T. H. Dunning, Jr., J. Chem. Phys. 90, 1007 (1989)
            He : Obtained from the ccRepo (grant-hill.group.shef.ac.uk/ccrepo) Feb. 2017
                 D. E. Woon, T. H. Dunning, Jr., J. Chem. Phys. 100, 2975 (1994)
  Li-Be, Na-Mg : Obtained from the ccRepo (grant-hill.group.shef.ac.uk/ccrepo) Feb. 2017
                 B. P. Prascher, D. E. Woon, K. A. Peterson, T. H. Dunning, Jr., A. K. Wilson, Theor. Chem. Acc. 128, 69 (2011)
         Al-Ar : Obtained from the ccRepo (grant-hill.group.shef.ac.uk/ccrepo) Feb. 2017
                 D. E. Woon, T. H. Dunning, Jr., J. Chem. Phys. 98, 1358 (1993)
            Ca : Obtained from the Peterson Research Group Website (tyr0.chem.wsu.edu/~kipeters) Feb. 2017
                 J. Koput, K. A. Peterson, J. Phys. Chem. 106, 9595 (2002)
         Sc-Zn : Obtained from the ccRepo (grant-hill.group.shef.ac.uk/ccrepo) Feb. 2017
                 N. B. Balabanov, K. A. Peterson, J. Chem. Phys. 123, 064107 (2005)
                 N. B. Balabanov, K. A. Peterson, J. Chem. Phys. 125, 074110 (2006)
         Ga-Kr : Obtained from the ccRepo (grant-hill.group.shef.ac.uk/ccrepo) Feb. 2017
                 A. K. Wilson, D. E. Woon, K. A. Peterson, T. H. Dunning, Jr., J. Chem. Phys. 110, 7667 (1999)
             Y : Obtained from the ccRepo (grant-hill.group.shef.ac.uk/ccrepo) Feb. 2017
                 K. A. Peterson, D. Figgen, M. Dolg, H. Stoll, J. Chem. Phys. 126, 124101 (2007)
        Ag, Au : Obtained from the Peterson Research Group Website (tyr0.chem.wsu.edu/~kipeters) Feb. 2017
                 K. A. Peterson, C. Puzzarini, Theor. Chem. Acc. 114, 283 (2005)

----- AuxC basis set information -----
Your calculation utilizes the auxiliary basis: cc-pVTZ/C 
  Obtained from the EMSL Basis Set Exchange (bse.pnl.gov) Feb. 2017
  H-He, B-F, Al-Ar, Ga-Kr : F. Weigend, A. Kohn, C. Hattig, J. Chem. Phys. 116, 3175 (2002)
             Li-Be, Na-Mg : C. Haettig, Phys. Chem. Chem. Phys. 7, 59 (2005)
                       Ne : C. Haettig, Phys. Chem. Chem. Phys. 7, 59 (2005)
                            F. Weigend, A. Kohn, C. Hattig, J. Chem. Phys. 116, 3175 (2002)
                    Sc-Zn : J. G. Hill, J. A. Platts, J. Chem. Phys. 128, 044104 (2008)

================================================================================
                                        WARNINGS
                       Please study these warnings very carefully!
================================================================================


WARNING: No MP2 level density has been requested!
         To caclulate MP2 level properties use
         %mp2 Density relaxed end
         or
         %mp2 Density unrelaxed end

WARNING: Post HF methods need fully converged wavefunctions
  ===> : Setting SCFConvForced true
         You can overwrite this default with %scf ConvForced false 


INFO   : the flag for use of LIBINT has been found!

================================================================================
                                       INPUT FILE
================================================================================
NAME = G2_CONFS/Conf3.orca
|  1> ! ri-mp2 cc-pvtz cc-pvtz/c TightSCF NoKeepInts
|  2> 
|  3> %scf
|  4>   MaxCore 4096
|  5> end
|  6> *xyz  0  1
|  7>     C       15.2809537   14.3020365   16.9941160
|  8>     C       15.3688656   15.5656861   16.1159896
|  9>     O       16.6821802   15.6332313   15.5197934
| 10>     C       17.8077670   15.8709955   16.2655675
| 11>     O       18.8606698   15.3143701   16.0150878
| 12>     C       17.6347356   16.7954138   17.4299230
| 13>     C       17.3493365   18.0858961   17.1081104
| 14>     C       16.8261943   18.6203191   15.7868325
| 15>     N       17.6275797   19.1101868   18.0169523
| 16>     C       18.5088556   18.9975159   19.0572321
| 17>     S       18.9414470   20.2986995   19.9814650
| 18>     N       19.0352989   17.7497018   19.2690113
| 19>     C       18.5560731   16.5113452   18.6243930
| 20>     C       17.8222727   15.6509179   19.6440296
| 21>     C       18.2060366   14.3112684   19.8364989
| 22>     C       17.5197667   13.4954676   20.7515551
| 23>     C       16.4377796   14.0223353   21.4773087
| 24>     C       16.0494121   15.3550593   21.2841566
| 25>     O       14.9983733   15.8634282   21.9751779
| 26>     C       16.7339061   16.1648190   20.3724562
| 27>     H       15.9552339   14.3655183   17.8560943
| 28>     H       15.5469119   13.4092555   16.4140064
| 29>     H       14.2609489   14.1701105   17.3749477
| 30>     H       14.6187419   15.4948748   15.3176159
| 31>     H       15.1383040   16.4553824   16.7144322
| 32>     H       17.3382853   18.1569647   14.9334177
| 33>     H       16.9847115   19.7015505   15.6871736
| 34>     H       15.7516308   18.4359602   15.6774693
| 35>     H       17.2843116   20.0417981   17.8439303
| 36>     H       19.6838519   17.6883709   20.0436035
| 37>     H       19.4548049   15.9859490   18.2692410
| 38>     H       19.0356041   13.8984139   19.2669013
| 39>     H       17.8254184   12.4600251   20.8928169
| 40>     H       15.9039581   13.3950368   22.1836746
| 41>     H       14.6995384   15.1804820   22.5945406
| 42>     H       16.4172435   17.1936081   20.2384811
| 43> *
| 44> 
| 45>                          ****END OF INPUT****
================================================================================

                       ****************************
                       * Single Point Calculation *
                       ****************************

---------------------------------
CARTESIAN COORDINATES (ANGSTROEM)
---------------------------------
  C     15.280954   14.302036   16.994116
  C     15.368866   15.565686   16.115990
  O     16.682180   15.633231   15.519793
  C     17.807767   15.870995   16.265567
  O     18.860670   15.314370   16.015088
  C     17.634736   16.795414   17.429923
  C     17.349336   18.085896   17.108110
  C     16.826194   18.620319   15.786832
  N     17.627580   19.110187   18.016952
  C     18.508856   18.997516   19.057232
  S     18.941447   20.298699   19.981465
  N     19.035299   17.749702   19.269011
  C     18.556073   16.511345   18.624393
  C     17.822273   15.650918   19.644030
  C     18.206037   14.311268   19.836499
  C     17.519767   13.495468   20.751555
  C     16.437780   14.022335   21.477309
  C     16.049412   15.355059   21.284157
  O     14.998373   15.863428   21.975178
  C     16.733906   16.164819   20.372456
  H     15.955234   14.365518   17.856094
  H     15.546912   13.409255   16.414006
  H     14.260949   14.170110   17.374948
  H     14.618742   15.494875   15.317616
  H     15.138304   16.455382   16.714432
  H     17.338285   18.156965   14.933418
  H     16.984711   19.701550   15.687174
  H     15.751631   18.435960   15.677469
  H     17.284312   20.041798   17.843930
  H     19.683852   17.688371   20.043603
  H     19.454805   15.985949   18.269241
  H     19.035604   13.898414   19.266901
  H     17.825418   12.460025   20.892817
  H     15.903958   13.395037   22.183675
  H     14.699538   15.180482   22.594541
  H     16.417244   17.193608   20.238481

----------------------------
CARTESIAN COORDINATES (A.U.)
----------------------------
  NO LB      ZA    FRAG     MASS         X           Y           Z
   0 C     6.0000    0    12.011   28.876818   27.026932   32.114225
   1 C     6.0000    0    12.011   29.042947   29.414884   30.454807
   2 O     8.0000    0    15.999   31.524752   29.542526   29.328159
   3 C     6.0000    0    12.011   33.651803   29.991835   30.737468
   4 O     8.0000    0    15.999   35.641501   28.939965   30.264130
   5 C     6.0000    0    12.011   33.324821   31.738732   32.937781
   6 C     6.0000    0    12.011   32.785495   34.177391   32.329643
   7 C     6.0000    0    12.011   31.796899   35.187304   29.832790
   8 N     7.0000    0    14.007   33.311298   36.113019   34.047106
   9 C     6.0000    0    12.011   34.976668   35.900102   36.012950
  10 S    16.0000    0    32.060   35.794147   38.358983   37.759497
  11 N     7.0000    0    14.007   35.971502   33.542075   36.413154
  12 C     6.0000    0    12.011   35.065896   31.201921   35.195002
  13 C     6.0000    0    12.011   33.679214   29.575949   37.121836
  14 C     6.0000    0    12.011   34.404423   27.044378   37.485550
  15 C     6.0000    0    12.011   33.107561   25.502738   39.214756
  16 C     6.0000    0    12.011   31.062902   26.498373   40.586232
  17 C     6.0000    0    12.011   30.328993   29.016857   40.221227
  18 O     8.0000    0    15.999   28.342818   29.977535   41.527068
  19 C     6.0000    0    12.011   31.622500   30.547081   38.498363
  20 H     1.0000    0     1.008   30.151022   27.146895   33.743128
  21 H     1.0000    0     1.008   29.379406   25.339821   31.017977
  22 H     1.0000    0     1.008   26.949288   26.777628   32.833893
  23 H     1.0000    0     1.008   27.625419   29.281070   28.946099
  24 H     1.0000    0     1.008   28.607249   31.096166   31.585699
  25 H     1.0000    0     1.008   32.764611   34.311691   28.220070
  26 H     1.0000    0     1.008   32.096453   37.230535   29.644462
  27 H     1.0000    0     1.008   29.766268   34.838916   29.626123
  28 H     1.0000    0     1.008   32.662615   37.873510   33.720141
  29 H     1.0000    0     1.008   37.197089   33.426177   37.876921
  30 H     1.0000    0     1.008   36.764253   30.209066   34.523862
  31 H     1.0000    0     1.008   35.972079   26.264196   36.409167
  32 H     1.0000    0     1.008   33.685159   23.546035   39.481702
  33 H     1.0000    0     1.008   30.054125   25.312951   41.921070
  34 H     1.0000    0     1.008   27.778102   28.686954   42.697494
  35 H     1.0000    0     1.008   31.024094   32.491211   38.245187

--------------------------------
INTERNAL COORDINATES (ANGSTROEM)
--------------------------------
 C      0   0   0     0.000000000000     0.00000000     0.00000000
 C      1   0   0     1.541312683435     0.00000000     0.00000000
 O      2   1   0     1.443886249505   108.99454320     0.00000000
 C      3   2   1     1.371005640895   122.02273868   291.47489974
 O      4   3   2     1.217035834429   121.26529512   142.54345776
 C      4   3   2     1.496734040884   115.80838204   325.40704704
 C      6   4   3     1.360279589795   115.22324899   293.28506484
 C      7   6   4     1.518242732035   127.74295842    17.93085079
 N      7   6   4     1.397349031434   119.98431056   202.73202944
 C      9   7   6     1.368036551381   124.22750083    19.68585983
 S     10   9   7     1.653608337456   121.91957965   172.03182405
 N     10   9   7     1.370778248232   116.09445236   353.47246305
 C     12  10   9     1.476047827424   124.85838882   349.06141669
 C     13  12  10     1.522648009779   109.76157281   251.93048637
 C     14  13  12     1.406762220575   119.88614864   233.77884016
 C     15  14  13     1.404928884351   120.58558077   181.44189626
 C     16  15  14     1.405348336101   119.65259389     0.20443982
 C     17  16  15     1.401531415619   119.91193682     0.04913838
 O     18  17  16     1.356698910830   120.05236007   179.45776855
 C     18  17  16     1.398370632965   120.32181212   359.97007361
 H      1   2   3     1.096216364006   111.43386281    66.11043552
 H      1   2   3     1.097414609945   110.60890835   305.60081093
 H      1   2   3     1.096743837559   110.45650311   185.93081540
 H      2   1   3     1.097770636500   108.81328876   118.65544757
 H      2   1   3     1.096745961070   110.01177479   236.53253680
 H      8   7   6     1.097839384035   111.54416046   317.13975638
 H      8   7   6     1.097324445819   112.09233682   198.27884555
 H      8   7   6     1.095735017719   111.44132727    77.92207093
 H      9   7   6     1.007804155205   119.87567780   189.79727984
 H     12  10   9     1.012114395414   114.80260155   180.05907826
 H     13  12  10     1.099951343656   106.04958004   133.28735823
 H     15  14  13     1.087691363003   119.85943640     0.91240022
 H     16  15  14     1.088815424513   119.97248074   180.01461012
 H     17  16  15     1.085090589143   119.88150429   179.88780744
 H     19  18  17     0.969189333259   107.47687355     4.47848378
 H     20  18  17     1.084726482546   119.13311061   180.02516902

---------------------------
INTERNAL COORDINATES (A.U.)
---------------------------
 C      0   0   0     0.000000000000     0.00000000     0.00000000
 C      1   0   0     2.912658858432     0.00000000     0.00000000
 O      2   1   0     2.728549580100   108.99454320     0.00000000
 C      3   2   1     2.590825189353   122.02273868   291.47489974
 O      4   3   2     2.299864422240   121.26529512   142.54345776
 C      4   3   2     2.828417432588   115.80838204   325.40704704
 C      6   4   3     2.570555890275   115.22324899   293.28506484
 C      7   6   4     2.869062968363   127.74295842    17.93085079
 N      7   6   4     2.640606982910   119.98431056   202.73202944
 C      9   7   6     2.585214423305   124.22750083    19.68585983
 S     10   9   7     3.124866890561   121.91957965   172.03182405
 N     10   9   7     2.590395479495   116.09445236   353.47246305
 C     12  10   9     2.789326154401   124.85838882   349.06141669
 C     13  12  10     2.877387736843   109.76157281   251.93048637
 C     14  13  12     2.658395332433   119.88614864   233.77884016
 C     15  14  13     2.654930829060   120.58558077   181.44189626
 C     16  15  14     2.655723477993   119.65259389     0.20443982
 C     17  16  15     2.648510543607   119.91193682     0.04913838
 O     18  17  16     2.563789387657   120.05236007   179.45776855
 C     18  17  16     2.642537530023   120.32181212   359.97007361
 H      1   2   3     2.071548711494   111.43386281    66.11043552
 H      1   2   3     2.073813068160   110.60890835   305.60081093
 H      1   2   3     2.072545492053   110.45650311   185.93081540
 H      2   1   3     2.074485860845   108.81328876   118.65544757
 H      2   1   3     2.072549504906   110.01177479   236.53253680
 H      8   7   6     2.074615774860   111.54416046   317.13975638
 H      8   7   6     2.073642682654   112.09233682   198.27884555
 H      8   7   6     2.070639098836   111.44132727    77.92207093
 H      9   7   6     1.904473849966   119.87567780   189.79727984
 H     12  10   9     1.912619023532   114.80260155   180.05907826
 H     13  12  10     2.078606800148   106.04958004   133.28735823
 H     15  14  13     2.055438794308   119.85943640     0.91240022
 H     16  15  14     2.057562962720   119.97248074   180.01461012
 H     17  16  15     2.050524043976   119.88150429   179.88780744
 H     19  18  17     1.831502411778   107.47687355     4.47848378
 H     20  18  17     2.049835982224   119.13311061   180.02516902

---------------------
BASIS SET INFORMATION
---------------------
There are 5 groups of distinct atoms

 Group   1 Type C   : 18s5p2d1f contracted to 4s3p2d1f pattern {8811/311/11/1}
 Group   2 Type O   : 18s5p2d1f contracted to 4s3p2d1f pattern {8811/311/11/1}
 Group   3 Type N   : 18s5p2d1f contracted to 4s3p2d1f pattern {8811/311/11/1}
 Group   4 Type S   : 41s16p2d1f contracted to 5s4p2d1f pattern {13131311/7711/11/1}
 Group   5 Type H   : 5s2p1d contracted to 3s2p1d pattern {311/11/1}

Atom   0C    basis set group =>   1
Atom   1C    basis set group =>   1
Atom   2O    basis set group =>   2
Atom   3C    basis set group =>   1
Atom   4O    basis set group =>   2
Atom   5C    basis set group =>   1
Atom   6C    basis set group =>   1
Atom   7C    basis set group =>   1
Atom   8N    basis set group =>   3
Atom   9C    basis set group =>   1
Atom  10S    basis set group =>   4
Atom  11N    basis set group =>   3
Atom  12C    basis set group =>   1
Atom  13C    basis set group =>   1
Atom  14C    basis set group =>   1
Atom  15C    basis set group =>   1
Atom  16C    basis set group =>   1
Atom  17C    basis set group =>   1
Atom  18O    basis set group =>   2
Atom  19C    basis set group =>   1
Atom  20H    basis set group =>   5
Atom  21H    basis set group =>   5
Atom  22H    basis set group =>   5
Atom  23H    basis set group =>   5
Atom  24H    basis set group =>   5
Atom  25H    basis set group =>   5
Atom  26H    basis set group =>   5
Atom  27H    basis set group =>   5
Atom  28H    basis set group =>   5
Atom  29H    basis set group =>   5
Atom  30H    basis set group =>   5
Atom  31H    basis set group =>   5
Atom  32H    basis set group =>   5
Atom  33H    basis set group =>   5
Atom  34H    basis set group =>   5
Atom  35H    basis set group =>   5
---------------------------------
AUXILIARY/C BASIS SET INFORMATION
---------------------------------
There are 5 groups of distinct atoms

 Group   1 Type C   : 8s6p5d3f1g contracted to 8s6p5d3f1g pattern {11111111/111111/11111/111/1}
 Group   2 Type O   : 8s6p5d3f1g contracted to 8s6p5d3f1g pattern {11111111/111111/11111/111/1}
 Group   3 Type N   : 8s6p5d3f1g contracted to 8s6p5d3f1g pattern {11111111/111111/11111/111/1}
 Group   4 Type S   : 10s8p7d5f2g contracted to 10s8p7d5f2g pattern {1111111111/11111111/1111111/11111/11}
 Group   5 Type H   : 4s3p2d1f contracted to 4s3p2d1f pattern {1111/111/11/1}

Atom   0C    basis set group =>   1
Atom   1C    basis set group =>   1
Atom   2O    basis set group =>   2
Atom   3C    basis set group =>   1
Atom   4O    basis set group =>   2
Atom   5C    basis set group =>   1
Atom   6C    basis set group =>   1
Atom   7C    basis set group =>   1
Atom   8N    basis set group =>   3
Atom   9C    basis set group =>   1
Atom  10S    basis set group =>   4
Atom  11N    basis set group =>   3
Atom  12C    basis set group =>   1
Atom  13C    basis set group =>   1
Atom  14C    basis set group =>   1
Atom  15C    basis set group =>   1
Atom  16C    basis set group =>   1
Atom  17C    basis set group =>   1
Atom  18O    basis set group =>   2
Atom  19C    basis set group =>   1
Atom  20H    basis set group =>   5
Atom  21H    basis set group =>   5
Atom  22H    basis set group =>   5
Atom  23H    basis set group =>   5
Atom  24H    basis set group =>   5
Atom  25H    basis set group =>   5
Atom  26H    basis set group =>   5
Atom  27H    basis set group =>   5
Atom  28H    basis set group =>   5
Atom  29H    basis set group =>   5
Atom  30H    basis set group =>   5
Atom  31H    basis set group =>   5
Atom  32H    basis set group =>   5
Atom  33H    basis set group =>   5
Atom  34H    basis set group =>   5
Atom  35H    basis set group =>   5
------------------------------------------------------------------------------
                           ORCA GTO INTEGRAL CALCULATION
------------------------------------------------------------------------------

                         BASIS SET STATISTICS AND STARTUP INFO

 # of primitive gaussian shells          ...  682
 # of primitive gaussian functions       ... 1312
 # of contracted shells                  ...  298
 # of contracted basis functions         ...  828
 Highest angular momentum                ...    3
 Maximum contraction depth               ...   13
 Integral package used                   ... LIBINT
 Integral threshhold            Thresh   ...  2.500e-11
 Primitive cut-off              TCut     ...  2.500e-12


------------------------------ INTEGRAL EVALUATION ----------------------------


 * One electron integrals 
 Pre-screening matrix                    ... done
 Shell pair data                         ... done (   0.018 sec)

-------------------------------------------------------------------------------
                                 ORCA SCF
-------------------------------------------------------------------------------

------------
SCF SETTINGS
------------
Hamiltonian:
 Ab initio Hamiltonian  Method          .... Hartree-Fock(GTOs)


General Settings:
 Integral files         IntName         .... G2_CONFS/Conf3.orca
 Hartree-Fock type      HFTyp           .... RHF
 Total Charge           Charge          ....    0
 Multiplicity           Mult            ....    1
 Number of Electrons    NEL             ....  154
 Basis Dimension        Dim             ....  828
 Nuclear Repulsion      ENuc            ....   1720.3856546202 Eh

Convergence Acceleration:
 DIIS                   CNVDIIS         .... on
   Start iteration      DIISMaxIt       ....    12
   Startup error        DIISStart       ....  0.200000
   # of expansion vecs  DIISMaxEq       ....     5
   Bias factor          DIISBfac        ....   1.050
   Max. coefficient     DIISMaxC        ....  10.000
 Newton-Raphson         CNVNR           .... off
 SOSCF                  CNVSOSCF        .... on
   Start iteration      SOSCFMaxIt      ....   150
   Startup grad/error   SOSCFStart      ....  0.003300
 Level Shifting         CNVShift        .... on
   Level shift para.    LevelShift      ....    0.2500
   Turn off err/grad.   ShiftErr        ....    0.0010
 Zerner damping         CNVZerner       .... off
 Static damping         CNVDamp         .... on
   Fraction old density DampFac         ....    0.7000
   Max. Damping (<1)    DampMax         ....    0.9800
   Min. Damping (>=0)   DampMin         ....    0.0000
   Turn off err/grad.   DampErr         ....    0.1000
 Fernandez-Rico         CNVRico         .... off

SCF Procedure:
 Maximum # iterations   MaxIter         ....   125
 SCF integral mode      SCFMode         .... Direct
   Integral package                     .... LIBINT
 Reset frequency        DirectResetFreq ....    20
 Integral Threshold     Thresh          ....  2.500e-11 Eh
 Primitive CutOff       TCut            ....  2.500e-12 Eh

Convergence Tolerance:
 Convergence Check Mode ConvCheckMode   .... Total+1el-Energy
 Convergence forced     ConvForced      .... 1
 Energy Change          TolE            ....  1.000e-08 Eh
 1-El. energy change                    ....  1.000e-05 Eh
 Orbital Gradient       TolG            ....  1.000e-05
 Orbital Rotation angle TolX            ....  1.000e-05
 DIIS Error             TolErr          ....  5.000e-07


Diagonalization of the overlap matrix:
Smallest eigenvalue                        ... 3.401e-05
Time for diagonalization                   ...    0.178 sec
Threshold for overlap eigenvalues          ... 1.000e-08
Number of eigenvalues below threshold      ... 0
Time for construction of square roots      ...    0.179 sec
Total time needed                          ...    0.359 sec

-------------------
DFT GRID GENERATION
-------------------

General Integration Accuracy     IntAcc      ...  4.340
Radial Grid Type                 RadialGrid  ... Gauss-Chebyshev
Angular Grid (max. acc.)         AngularGrid ... Lebedev-110
Angular grid pruning method      GridPruning ... 3 (G Style)
Weight generation scheme         WeightScheme... Becke
Basis function cutoff            BFCut       ...    1.0000e-11
Integration weight cutoff        WCut        ...    1.0000e-14
Grids for H and He will be reduced by one unit

# of grid points (after initial pruning)     ...  46246 (   0.0 sec)
# of grid points (after weights+screening)   ...  41169 (   0.7 sec)
nearest neighbour list constructed           ...    0.0 sec
Grid point re-assignment to atoms done       ...    0.0 sec
Grid point division into batches done        ...    0.1 sec
Reduced shell lists constructed in    1.9 sec

Total number of grid points                  ...    41169
Total number of batches                      ...      663
Average number of points per batch           ...       62
Average number of grid points per atom       ...     1144
Average number of shells per batch           ...   152.73 (51.25%)
Average number of basis functions per batch  ...   388.57 (46.93%)
Average number of large shells per batch     ...    98.16 (64.27%)
Average number of large basis fcns per batch ...   251.12 (64.63%)
Maximum spatial batch extension              ...  24.26, 20.64, 18.65 au
Average spatial batch extension              ...   3.50,  3.37,  3.40 au

Time for grid setup =    2.706 sec

------------------------------
INITIAL GUESS: MODEL POTENTIAL
------------------------------
Loading Hartree-Fock densities                     ... done
Calculating cut-offs                               ... done
Setting up the integral package                    ... done
Initializing the effective Hamiltonian             ... done
Starting the Coulomb interaction                   ... done (   7.4 sec)
Reading the grid                                   ... done
Mapping shells                                     ... done
Starting the XC term evaluation                    ... done (   1.6 sec)
Transforming the Hamiltonian                       ... done (   0.1 sec)
Diagonalizing the Hamiltonian                      ... done (   0.2 sec)
Back transforming the eigenvectors                 ... done (   0.0 sec)
Now organizing SCF variables                       ... done
                      ------------------
                      INITIAL GUESS DONE (  12.6 sec)
                      ------------------
--------------
SCF ITERATIONS
--------------
ITER       Energy         Delta-E        Max-DP      RMS-DP      [F,P]     Damp
               ***  Starting incremental Fock matrix formation  ***
  0  -1269.9993663512   0.000000000000 0.04930446  0.00044042  0.3038700 0.7000
  1  -1270.2645600833  -0.265193732091 0.03608228  0.00035655  0.1784323 0.7000
                               ***Turning on DIIS***
  2  -1270.4300531184  -0.165493035092 0.02584564  0.00023817  0.1097964 0.7000
  3  -1272.5464374384  -2.116384319997 0.06319349  0.00051124  0.0829484 0.0000
  4  -1270.7388577863   1.807579652114 0.01335757  0.00009867  0.0066872 0.0000
  5  -1270.7954052555  -0.056547469207 0.00452390  0.00005184  0.0033878 0.0000
                      *** Initiating the SOSCF procedure ***
                           *** Shutting down DIIS ***
                      *** Re-Reading the Fockian *** 
                      *** Removing any level shift *** 
ITER      Energy       Delta-E        Grad      Rot      Max-DP    RMS-DP
  6  -1270.77470624   0.0206990177  0.001442  0.001442  0.002185  0.000026
               *** Restarting incremental Fock matrix formation ***
  7  -1270.78966014  -0.0149539037  0.000730  0.001838  0.001284  0.000016
  8  -1270.78970380  -0.0000436550  0.000362  0.002082  0.001450  0.000017
  9  -1270.78972045  -0.0000166546  0.000148  0.000303  0.000374  0.000004
 10  -1270.78972248  -0.0000020278  0.000049  0.000127  0.000117  0.000001
 11  -1270.78972265  -0.0000001747  0.000019  0.000087  0.000059  0.000001
 12  -1270.78972270  -0.0000000478  0.000009  0.000026  0.000027  0.000000
 13  -1270.78972271  -0.0000000043  0.000003  0.000009  0.000006  0.000000
                  ***Gradient check signals convergence***
              ***Rediagonalizing the Fockian in SOSCF/NRSCF***

               *****************************************************
               *                     SUCCESS                       *
               *           SCF CONVERGED AFTER  14 CYCLES          *
               *****************************************************


----------------
TOTAL SCF ENERGY
----------------

Total Energy       :        -1270.78972270 Eh          -34579.94637 eV

Components:
Nuclear Repulsion  :         1720.38565462 Eh           46814.07364 eV
Electronic Energy  :        -2991.17537732 Eh          -81394.02001 eV
One Electron Energy:        -5161.44201556 Eh         -140449.97758 eV
Two Electron Energy:         2170.26663824 Eh           59055.95757 eV

Virial components:
Potential Energy   :        -2539.79377181 Eh          -69111.30208 eV
Kinetic Energy     :         1269.00404911 Eh           34531.35572 eV
Virial Ratio       :            2.00140715


---------------
SCF CONVERGENCE
---------------

  Last Energy change         ...    5.9727e-09  Tolerance :   1.0000e-08
  Last MAX-Density change    ...    2.0924e-06  Tolerance :   1.0000e-07
  Last RMS-Density change    ...    3.0343e-08  Tolerance :   5.0000e-09
  Last Orbital Gradient      ...    1.2077e-06  Tolerance :   1.0000e-05
  Last Orbital Rotation      ...    2.6283e-06  Tolerance :   1.0000e-05

             **** THE GBW FILE WAS UPDATED (G2_CONFS/Conf3.orca.gbw) ****
             **** DENSITY FILE WAS UPDATED (G2_CONFS/Conf3.orca.scfp) ****
             **** ENERGY FILE WAS UPDATED (G2_CONFS/Conf3.orca.en.tmp) ****
             **** THE GBW FILE WAS UPDATED (G2_CONFS/Conf3.orca.gbw) ****
             **** DENSITY FILE WAS UPDATED (G2_CONFS/Conf3.orca.scfp) ****
----------------
ORBITAL ENERGIES
----------------

  NO   OCC          E(Eh)            E(eV) 
   0   2.0000     -91.890507     -2500.4678 
   1   2.0000     -20.599842      -560.5502 
   2   2.0000     -20.598216      -560.5059 
   3   2.0000     -20.549563      -559.1820 
   4   2.0000     -15.630426      -425.3255 
   5   2.0000     -15.608733      -424.7352 
   6   2.0000     -11.396677      -310.1194 
   7   2.0000     -11.385425      -309.8132 
   8   2.0000     -11.340357      -308.5868 
   9   2.0000     -11.317402      -307.9622 
  10   2.0000     -11.310407      -307.7718 
  11   2.0000     -11.306716      -307.6714 
  12   2.0000     -11.267454      -306.6030 
  13   2.0000     -11.262231      -306.4609 
  14   2.0000     -11.261035      -306.4283 
  15   2.0000     -11.258054      -306.3472 
  16   2.0000     -11.246043      -306.0204 
  17   2.0000     -11.241274      -305.8906 
  18   2.0000     -11.240099      -305.8586 
  19   2.0000     -11.229301      -305.5648 
  20   2.0000      -8.895573      -242.0608 
  21   2.0000      -6.577150      -178.9734 
  22   2.0000      -6.575137      -178.9186 
  23   2.0000      -6.574552      -178.9026 
  24   2.0000      -1.447553       -39.3899 
  25   2.0000      -1.419494       -38.6264 
  26   2.0000      -1.360316       -37.0161 
  27   2.0000      -1.343772       -36.5659 
  28   2.0000      -1.240562       -33.7574 
  29   2.0000      -1.161208       -31.5981 
  30   2.0000      -1.127033       -30.6681 
  31   2.0000      -1.048678       -28.5360 
  32   2.0000      -1.035008       -28.1640 
  33   2.0000      -1.018783       -27.7225 
  34   2.0000      -1.006894       -27.3990 
  35   2.0000      -0.989822       -26.9344 
  36   2.0000      -0.927587       -25.2409 
  37   2.0000      -0.891944       -24.2710 
  38   2.0000      -0.854496       -23.2520 
  39   2.0000      -0.843405       -22.9502 
  40   2.0000      -0.837376       -22.7862 
  41   2.0000      -0.829772       -22.5793 
  42   2.0000      -0.746805       -20.3216 
  43   2.0000      -0.736415       -20.0389 
  44   2.0000      -0.730565       -19.8797 
  45   2.0000      -0.699092       -19.0233 
  46   2.0000      -0.690595       -18.7920 
  47   2.0000      -0.682732       -18.5781 
  48   2.0000      -0.674518       -18.3546 
  49   2.0000      -0.661618       -18.0035 
  50   2.0000      -0.656601       -17.8670 
  51   2.0000      -0.646419       -17.5900 
  52   2.0000      -0.636929       -17.3317 
  53   2.0000      -0.617802       -16.8112 
  54   2.0000      -0.609695       -16.5906 
  55   2.0000      -0.609229       -16.5780 
  56   2.0000      -0.602432       -16.3930 
  57   2.0000      -0.586476       -15.9588 
  58   2.0000      -0.578803       -15.7500 
  59   2.0000      -0.567072       -15.4308 
  60   2.0000      -0.560196       -15.2437 
  61   2.0000      -0.548959       -14.9379 
  62   2.0000      -0.545084       -14.8325 
  63   2.0000      -0.534547       -14.5458 
  64   2.0000      -0.522954       -14.2303 
  65   2.0000      -0.513565       -13.9748 
  66   2.0000      -0.503177       -13.6921 
  67   2.0000      -0.501426       -13.6445 
  68   2.0000      -0.485043       -13.1987 
  69   2.0000      -0.466323       -12.6893 
  70   2.0000      -0.456415       -12.4197 
  71   2.0000      -0.449697       -12.2369 
  72   2.0000      -0.361629        -9.8404 
  73   2.0000      -0.350822        -9.5464 
  74   2.0000      -0.330122        -8.9831 
  75   2.0000      -0.325608        -8.8602 
  76   2.0000      -0.319115        -8.6836 
  77   0.0000       0.078906         2.1472 
  78   0.0000       0.103013         2.8031 
  79   0.0000       0.118201         3.2164 
  80   0.0000       0.129252         3.5171 
  81   0.0000       0.132548         3.6068 
  82   0.0000       0.143645         3.9088 
  83   0.0000       0.147161         4.0045 
  84   0.0000       0.158745         4.3197 
  85   0.0000       0.160320         4.3625 
  86   0.0000       0.166335         4.5262 
  87   0.0000       0.173386         4.7181 
  88   0.0000       0.182850         4.9756 
  89   0.0000       0.193887         5.2759 
  90   0.0000       0.198799         5.4096 
  91   0.0000       0.205310         5.5868 
  92   0.0000       0.210398         5.7252 
  93   0.0000       0.214541         5.8379 
  94   0.0000       0.222350         6.0504 
  95   0.0000       0.237156         6.4534 
  96   0.0000       0.242478         6.5982 
  97   0.0000       0.246103         6.6968 
  98   0.0000       0.259051         7.0491 
  99   0.0000       0.270190         7.3522 
 100   0.0000       0.288714         7.8563 
 101   0.0000       0.293641         7.9904 
 102   0.0000       0.303735         8.2650 
 103   0.0000       0.311879         8.4867 
 104   0.0000       0.320622         8.7246 
 105   0.0000       0.328412         8.9365 
 106   0.0000       0.333205         9.0670 
 107   0.0000       0.339096         9.2273 
 108   0.0000       0.349727         9.5166 
 109   0.0000       0.362389         9.8611 
 110   0.0000       0.368408        10.0249 
 111   0.0000       0.372982        10.1493 
 112   0.0000       0.376829        10.2540 
 113   0.0000       0.388474        10.5709 
 114   0.0000       0.401061        10.9134 
 115   0.0000       0.413665        11.2564 
 116   0.0000       0.421345        11.4654 
 117   0.0000       0.421650        11.4737 
 118   0.0000       0.432179        11.7602 
 119   0.0000       0.439780        11.9670 
 120   0.0000       0.446379        12.1466 
 121   0.0000       0.447783        12.1848 
 122   0.0000       0.454234        12.3603 
 123   0.0000       0.460537        12.5319 
 124   0.0000       0.463188        12.6040 
 125   0.0000       0.470054        12.7908 
 126   0.0000       0.478849        13.0301 
 127   0.0000       0.487294        13.2599 
 128   0.0000       0.488451        13.2914 
 129   0.0000       0.497889        13.5482 
 130   0.0000       0.502988        13.6870 
 131   0.0000       0.507970        13.8226 
 132   0.0000       0.513075        13.9615 
 133   0.0000       0.518792        14.1171 
 134   0.0000       0.521920        14.2022 
 135   0.0000       0.523345        14.2409 
 136   0.0000       0.532363        14.4863 
 137   0.0000       0.536438        14.5972 
 138   0.0000       0.545260        14.8373 
 139   0.0000       0.552673        15.0390 
 140   0.0000       0.557245        15.1634 
 141   0.0000       0.559622        15.2281 
 142   0.0000       0.563335        15.3291 
 143   0.0000       0.567372        15.4390 
 144   0.0000       0.569936        15.5087 
 145   0.0000       0.575160        15.6509 
 146   0.0000       0.581144        15.8137 
 147   0.0000       0.591725        16.1017 
 148   0.0000       0.596860        16.2414 
 149   0.0000       0.600005        16.3270 
 150   0.0000       0.607607        16.5338 
 151   0.0000       0.611042        16.6273 
 152   0.0000       0.613276        16.6881 
 153   0.0000       0.616871        16.7859 
 154   0.0000       0.621789        16.9197 
 155   0.0000       0.625227        17.0133 
 156   0.0000       0.627387        17.0721 
 157   0.0000       0.631165        17.1749 
 158   0.0000       0.637999        17.3608 
 159   0.0000       0.644006        17.5243 
 160   0.0000       0.646581        17.5944 
 161   0.0000       0.650145        17.6914 
 162   0.0000       0.661125        17.9901 
 163   0.0000       0.666032        18.1236 
 164   0.0000       0.669569        18.2199 
 165   0.0000       0.679961        18.5027 
 166   0.0000       0.681907        18.5556 
 167   0.0000       0.684690        18.6314 
 168   0.0000       0.689480        18.7617 
 169   0.0000       0.697950        18.9922 
 170   0.0000       0.704932        19.1822 
 171   0.0000       0.706811        19.2333 
 172   0.0000       0.714821        19.4513 
 173   0.0000       0.723180        19.6787 
 174   0.0000       0.728038        19.8109 
 175   0.0000       0.732946        19.9445 
 176   0.0000       0.736658        20.0455 
 177   0.0000       0.742292        20.1988 
 178   0.0000       0.749778        20.4025 
 179   0.0000       0.756901        20.5963 
 180   0.0000       0.771767        21.0008 
 181   0.0000       0.775922        21.1139 
 182   0.0000       0.786742        21.4083 
 183   0.0000       0.790074        21.4990 
 184   0.0000       0.800401        21.7800 
 185   0.0000       0.803825        21.8732 
 186   0.0000       0.810576        22.0569 
 187   0.0000       0.820191        22.3185 
 188   0.0000       0.835776        22.7426 
 189   0.0000       0.839138        22.8341 
 190   0.0000       0.841433        22.8966 
 191   0.0000       0.850840        23.1525 
 192   0.0000       0.859224        23.3807 
 193   0.0000       0.864557        23.5258 
 194   0.0000       0.873142        23.7594 
 195   0.0000       0.881015        23.9736 
 196   0.0000       0.888673        24.1820 
 197   0.0000       0.893294        24.3078 
 198   0.0000       0.900761        24.5110 
 199   0.0000       0.906841        24.6764 
 200   0.0000       0.914669        24.8894 
 201   0.0000       0.920826        25.0570 
 202   0.0000       0.930968        25.3329 
 203   0.0000       0.936824        25.4923 
 204   0.0000       0.946899        25.7664 
 205   0.0000       0.951656        25.8959 
 206   0.0000       0.955920        26.0119 
 207   0.0000       0.964233        26.2381 
 208   0.0000       0.971962        26.4484 
 209   0.0000       0.975906        26.5558 
 210   0.0000       0.981345        26.7037 
 211   0.0000       0.995940        27.1009 
 212   0.0000       0.999419        27.1956 
 213   0.0000       1.005605        27.3639 
 214   0.0000       1.014540        27.6070 
 215   0.0000       1.020331        27.7646 
 216   0.0000       1.023644        27.8548 
 217   0.0000       1.027827        27.9686 
 218   0.0000       1.039131        28.2762 
 219   0.0000       1.047591        28.5064 
 220   0.0000       1.052290        28.6343 
 221   0.0000       1.055607        28.7245 
 222   0.0000       1.072263        29.1778 
 223   0.0000       1.078819        29.3562 
 224   0.0000       1.088325        29.6148 
 225   0.0000       1.096127        29.8271 
 226   0.0000       1.101021        29.9603 
 227   0.0000       1.111030        30.2327 
 228   0.0000       1.117274        30.4026 
 229   0.0000       1.120589        30.4928 
 230   0.0000       1.122454        30.5435 
 231   0.0000       1.140219        31.0269 
 232   0.0000       1.144765        31.1506 
 233   0.0000       1.153651        31.3924 
 234   0.0000       1.159916        31.5629 
 235   0.0000       1.163136        31.6506 
 236   0.0000       1.167537        31.7703 
 237   0.0000       1.180560        32.1247 
 238   0.0000       1.188626        32.3441 
 239   0.0000       1.194092        32.4929 
 240   0.0000       1.196051        32.5462 
 241   0.0000       1.201871        32.7046 
 242   0.0000       1.211010        32.9533 
 243   0.0000       1.215461        33.0744 
 244   0.0000       1.223551        33.2945 
 245   0.0000       1.225158        33.3382 
 246   0.0000       1.236520        33.6474 
 247   0.0000       1.239762        33.7356 
 248   0.0000       1.254184        34.1281 
 249   0.0000       1.262339        34.3500 
 250   0.0000       1.267043        34.4780 
 251   0.0000       1.278543        34.7909 
 252   0.0000       1.282592        34.9011 
 253   0.0000       1.289967        35.1018 
 254   0.0000       1.296223        35.2720 
 255   0.0000       1.309764        35.6405 
 256   0.0000       1.320765        35.9399 
 257   0.0000       1.330016        36.1916 
 258   0.0000       1.334030        36.3008 
 259   0.0000       1.337844        36.4046 
 260   0.0000       1.341540        36.5051 
 261   0.0000       1.360333        37.0166 
 262   0.0000       1.363184        37.0941 
 263   0.0000       1.371517        37.3209 
 264   0.0000       1.379886        37.5486 
 265   0.0000       1.385892        37.7120 
 266   0.0000       1.393961        37.9316 
 267   0.0000       1.399012        38.0690 
 268   0.0000       1.405110        38.2350 
 269   0.0000       1.422430        38.7063 
 270   0.0000       1.422843        38.7175 
 271   0.0000       1.430697        38.9313 
 272   0.0000       1.436612        39.0922 
 273   0.0000       1.440961        39.2105 
 274   0.0000       1.448687        39.4208 
 275   0.0000       1.455981        39.6193 
 276   0.0000       1.461027        39.7566 
 277   0.0000       1.477742        40.2114 
 278   0.0000       1.480922        40.2979 
 279   0.0000       1.490412        40.5562 
 280   0.0000       1.498594        40.7788 
 281   0.0000       1.508796        41.0564 
 282   0.0000       1.512958        41.1697 
 283   0.0000       1.522260        41.4228 
 284   0.0000       1.524494        41.4836 
 285   0.0000       1.533011        41.7154 
 286   0.0000       1.534160        41.7466 
 287   0.0000       1.545672        42.0599 
 288   0.0000       1.555832        42.3363 
 289   0.0000       1.563997        42.5585 
 290   0.0000       1.568879        42.6914 
 291   0.0000       1.575271        42.8653 
 292   0.0000       1.583846        43.0986 
 293   0.0000       1.588116        43.2148 
 294   0.0000       1.594520        43.3891 
 295   0.0000       1.603465        43.6325 
 296   0.0000       1.613670        43.9102 
 297   0.0000       1.621156        44.1139 
 298   0.0000       1.623390        44.1747 
 299   0.0000       1.634658        44.4813 
 300   0.0000       1.636958        44.5439 
 301   0.0000       1.639377        44.6097 
 302   0.0000       1.645053        44.7642 
 303   0.0000       1.663561        45.2678 
 304   0.0000       1.666760        45.3548 
 305   0.0000       1.676030        45.6071 
 306   0.0000       1.681705        45.7615 
 307   0.0000       1.684159        45.8283 
 308   0.0000       1.694496        46.1096 
 309   0.0000       1.715669        46.6857 
 310   0.0000       1.721920        46.8558 
 311   0.0000       1.723214        46.8910 
 312   0.0000       1.744768        47.4776 
 313   0.0000       1.753344        47.7109 
 314   0.0000       1.757017        47.8109 
 315   0.0000       1.760485        47.9052 
 316   0.0000       1.769744        48.1572 
 317   0.0000       1.778192        48.3871 
 318   0.0000       1.786669        48.6177 
 319   0.0000       1.792948        48.7886 
 320   0.0000       1.809495        49.2389 
 321   0.0000       1.819047        49.4988 
 322   0.0000       1.838800        50.0363 
 323   0.0000       1.845272        50.2124 
 324   0.0000       1.861336        50.6495 
 325   0.0000       1.871456        50.9249 
 326   0.0000       1.885077        51.2955 
 327   0.0000       1.891556        51.4719 
 328   0.0000       1.910222        51.9798 
 329   0.0000       1.912961        52.0543 
 330   0.0000       1.927379        52.4466 
 331   0.0000       1.939417        52.7742 
 332   0.0000       1.949823        53.0574 
 333   0.0000       1.954921        53.1961 
 334   0.0000       1.960961        53.3605 
 335   0.0000       1.982631        53.9501 
 336   0.0000       1.989203        54.1290 
 337   0.0000       2.001916        54.4749 
 338   0.0000       2.021706        55.0134 
 339   0.0000       2.025812        55.1251 
 340   0.0000       2.027972        55.1839 
 341   0.0000       2.038564        55.4722 
 342   0.0000       2.049782        55.7774 
 343   0.0000       2.059721        56.0479 
 344   0.0000       2.088219        56.8233 
 345   0.0000       2.120228        57.6943 
 346   0.0000       2.125626        57.8412 
 347   0.0000       2.135766        58.1171 
 348   0.0000       2.143597        58.3302 
 349   0.0000       2.156705        58.6869 
 350   0.0000       2.165168        58.9172 
 351   0.0000       2.210507        60.1510 
 352   0.0000       2.214036        60.2470 
 353   0.0000       2.230090        60.6838 
 354   0.0000       2.237285        60.8796 
 355   0.0000       2.262675        61.5705 
 356   0.0000       2.277856        61.9836 
 357   0.0000       2.284765        62.1716 
 358   0.0000       2.300233        62.5925 
 359   0.0000       2.307185        62.7817 
 360   0.0000       2.311939        62.9111 
 361   0.0000       2.318971        63.1024 
 362   0.0000       2.346655        63.8557 
 363   0.0000       2.358588        64.1805 
 364   0.0000       2.363484        64.3137 
 365   0.0000       2.367086        64.4117 
 366   0.0000       2.387842        64.9765 
 367   0.0000       2.406604        65.4870 
 368   0.0000       2.408433        65.5368 
 369   0.0000       2.448821        66.6358 
 370   0.0000       2.452098        66.7250 
 371   0.0000       2.455652        66.8217 
 372   0.0000       2.470845        67.2351 
 373   0.0000       2.479173        67.4617 
 374   0.0000       2.483192        67.5711 
 375   0.0000       2.492029        67.8116 
 376   0.0000       2.512515        68.3690 
 377   0.0000       2.522474        68.6400 
 378   0.0000       2.537353        69.0449 
 379   0.0000       2.542000        69.1713 
 380   0.0000       2.563191        69.7480 
 381   0.0000       2.576010        70.0968 
 382   0.0000       2.579149        70.1822 
 383   0.0000       2.598672        70.7135 
 384   0.0000       2.603489        70.8445 
 385   0.0000       2.615753        71.1782 
 386   0.0000       2.626864        71.4806 
 387   0.0000       2.659457        72.3675 
 388   0.0000       2.670573        72.6700 
 389   0.0000       2.679700        72.9183 
 390   0.0000       2.692855        73.2763 
 391   0.0000       2.695434        73.3465 
 392   0.0000       2.698898        73.4407 
 393   0.0000       2.716618        73.9229 
 394   0.0000       2.720485        74.0282 
 395   0.0000       2.734537        74.4105 
 396   0.0000       2.745473        74.7081 
 397   0.0000       2.757016        75.0222 
 398   0.0000       2.764283        75.2200 
 399   0.0000       2.774581        75.5002 
 400   0.0000       2.777011        75.5663 
 401   0.0000       2.803779        76.2947 
 402   0.0000       2.808571        76.4251 
 403   0.0000       2.817957        76.6805 
 404   0.0000       2.824650        76.8626 
 405   0.0000       2.830031        77.0091 
 406   0.0000       2.837345        77.2081 
 407   0.0000       2.842200        77.3402 
 408   0.0000       2.857933        77.7683 
 409   0.0000       2.865838        77.9834 
 410   0.0000       2.874102        78.2083 
 411   0.0000       2.889516        78.6277 
 412   0.0000       2.894227        78.7559 
 413   0.0000       2.903822        79.0170 
 414   0.0000       2.916546        79.3632 
 415   0.0000       2.931507        79.7704 
 416   0.0000       2.937923        79.9450 
 417   0.0000       2.949037        80.2474 
 418   0.0000       2.953514        80.3692 
 419   0.0000       2.959417        80.5298 
 420   0.0000       2.963703        80.6465 
 421   0.0000       2.968816        80.7856 
 422   0.0000       2.984991        81.2257 
 423   0.0000       2.995065        81.4999 
 424   0.0000       3.009092        81.8816 
 425   0.0000       3.016266        82.0768 
 426   0.0000       3.020392        82.1890 
 427   0.0000       3.024628        82.3043 
 428   0.0000       3.030570        82.4660 
 429   0.0000       3.037687        82.6597 
 430   0.0000       3.047638        82.9304 
 431   0.0000       3.060684        83.2854 
 432   0.0000       3.067985        83.4841 
 433   0.0000       3.070662        83.5570 
 434   0.0000       3.078069        83.7585 
 435   0.0000       3.087168        84.0061 
 436   0.0000       3.089770        84.0769 
 437   0.0000       3.092521        84.1518 
 438   0.0000       3.101891        84.4067 
 439   0.0000       3.113240        84.7156 
 440   0.0000       3.117821        84.8402 
 441   0.0000       3.122738        84.9740 
 442   0.0000       3.131614        85.2156 
 443   0.0000       3.136059        85.3365 
 444   0.0000       3.145620        85.5967 
 445   0.0000       3.152054        85.7718 
 446   0.0000       3.157187        85.9114 
 447   0.0000       3.159855        85.9840 
 448   0.0000       3.173896        86.3661 
 449   0.0000       3.185058        86.6698 
 450   0.0000       3.198382        87.0324 
 451   0.0000       3.203611        87.1747 
 452   0.0000       3.209685        87.3400 
 453   0.0000       3.211153        87.3799 
 454   0.0000       3.221203        87.6534 
 455   0.0000       3.233898        87.9988 
 456   0.0000       3.240035        88.1658 
 457   0.0000       3.249889        88.4340 
 458   0.0000       3.251891        88.4884 
 459   0.0000       3.257332        88.6365 
 460   0.0000       3.264418        88.8293 
 461   0.0000       3.275145        89.1212 
 462   0.0000       3.278873        89.2227 
 463   0.0000       3.288134        89.4747 
 464   0.0000       3.297091        89.7184 
 465   0.0000       3.303925        89.9044 
 466   0.0000       3.314284        90.1862 
 467   0.0000       3.320774        90.3629 
 468   0.0000       3.325278        90.4854 
 469   0.0000       3.332866        90.6919 
 470   0.0000       3.333660        90.7135 
 471   0.0000       3.345742        91.0423 
 472   0.0000       3.348148        91.1078 
 473   0.0000       3.359972        91.4295 
 474   0.0000       3.360241        91.4368 
 475   0.0000       3.365645        91.5839 
 476   0.0000       3.372711        91.7761 
 477   0.0000       3.376632        91.8828 
 478   0.0000       3.381008        92.0019 
 479   0.0000       3.387315        92.1735 
 480   0.0000       3.394668        92.3736 
 481   0.0000       3.402490        92.5865 
 482   0.0000       3.409084        92.7659 
 483   0.0000       3.416115        92.9572 
 484   0.0000       3.417517        92.9954 
 485   0.0000       3.423541        93.1593 
 486   0.0000       3.429716        93.3273 
 487   0.0000       3.431864        93.3858 
 488   0.0000       3.437070        93.5274 
 489   0.0000       3.445800        93.7650 
 490   0.0000       3.450786        93.9007 
 491   0.0000       3.452981        93.9604 
 492   0.0000       3.459840        94.1470 
 493   0.0000       3.470408        94.4346 
 494   0.0000       3.471610        94.4673 
 495   0.0000       3.481051        94.7242 
 496   0.0000       3.489167        94.9451 
 497   0.0000       3.505003        95.3760 
 498   0.0000       3.505401        95.3868 
 499   0.0000       3.509625        95.5017 
 500   0.0000       3.519662        95.7749 
 501   0.0000       3.529287        96.0368 
 502   0.0000       3.530343        96.0655 
 503   0.0000       3.533598        96.1541 
 504   0.0000       3.544042        96.4383 
 505   0.0000       3.548204        96.5516 
 506   0.0000       3.562436        96.9388 
 507   0.0000       3.567933        97.0884 
 508   0.0000       3.570989        97.1716 
 509   0.0000       3.586438        97.5919 
 510   0.0000       3.596439        97.8641 
 511   0.0000       3.606620        98.1411 
 512   0.0000       3.608319        98.1874 
 513   0.0000       3.614009        98.3422 
 514   0.0000       3.623901        98.6113 
 515   0.0000       3.628756        98.7435 
 516   0.0000       3.634996        98.9133 
 517   0.0000       3.638356        99.0047 
 518   0.0000       3.644360        99.1681 
 519   0.0000       3.652311        99.3844 
 520   0.0000       3.654084        99.4327 
 521   0.0000       3.655551        99.4726 
 522   0.0000       3.664482        99.7156 
 523   0.0000       3.676692       100.0479 
 524   0.0000       3.682476       100.2053 
 525   0.0000       3.685414       100.2852 
 526   0.0000       3.689372       100.3929 
 527   0.0000       3.697332       100.6095 
 528   0.0000       3.706235       100.8518 
 529   0.0000       3.711655       100.9993 
 530   0.0000       3.718462       101.1845 
 531   0.0000       3.725355       101.3721 
 532   0.0000       3.732035       101.5538 
 533   0.0000       3.736948       101.6875 
 534   0.0000       3.746025       101.9345 
 535   0.0000       3.752724       102.1168 
 536   0.0000       3.754956       102.1775 
 537   0.0000       3.762691       102.3880 
 538   0.0000       3.777842       102.8003 
 539   0.0000       3.783164       102.9451 
 540   0.0000       3.794111       103.2430 
 541   0.0000       3.795564       103.2826 
 542   0.0000       3.799232       103.3824 
 543   0.0000       3.800594       103.4194 
 544   0.0000       3.821066       103.9765 
 545   0.0000       3.824286       104.0641 
 546   0.0000       3.831935       104.2723 
 547   0.0000       3.835057       104.3572 
 548   0.0000       3.840545       104.5065 
 549   0.0000       3.846931       104.6803 
 550   0.0000       3.857005       104.9545 
 551   0.0000       3.868240       105.2602 
 552   0.0000       3.876541       105.4860 
 553   0.0000       3.891448       105.8917 
 554   0.0000       3.901559       106.1668 
 555   0.0000       3.908125       106.3455 
 556   0.0000       3.910289       106.4044 
 557   0.0000       3.920749       106.6890 
 558   0.0000       3.925465       106.8173 
 559   0.0000       3.935573       107.0924 
 560   0.0000       3.943135       107.2982 
 561   0.0000       3.957499       107.6890 
 562   0.0000       3.966400       107.9312 
 563   0.0000       3.971893       108.0807 
 564   0.0000       3.980337       108.3105 
 565   0.0000       3.991768       108.6215 
 566   0.0000       3.993186       108.6601 
 567   0.0000       3.999834       108.8410 
 568   0.0000       4.004277       108.9619 
 569   0.0000       4.027331       109.5892 
 570   0.0000       4.033469       109.7563 
 571   0.0000       4.040845       109.9570 
 572   0.0000       4.053814       110.3099 
 573   0.0000       4.058677       110.4422 
 574   0.0000       4.076557       110.9287 
 575   0.0000       4.082356       111.0866 
 576   0.0000       4.084834       111.1540 
 577   0.0000       4.091152       111.3259 
 578   0.0000       4.097604       111.5015 
 579   0.0000       4.102336       111.6302 
 580   0.0000       4.107538       111.7718 
 581   0.0000       4.123319       112.2012 
 582   0.0000       4.126925       112.2993 
 583   0.0000       4.137488       112.5868 
 584   0.0000       4.143924       112.7619 
 585   0.0000       4.150214       112.9331 
 586   0.0000       4.153600       113.0252 
 587   0.0000       4.162745       113.2740 
 588   0.0000       4.166836       113.3854 
 589   0.0000       4.177338       113.6711 
 590   0.0000       4.179190       113.7215 
 591   0.0000       4.187227       113.9402 
 592   0.0000       4.187677       113.9525 
 593   0.0000       4.204562       114.4119 
 594   0.0000       4.209064       114.5344 
 595   0.0000       4.216156       114.7274 
 596   0.0000       4.222241       114.8930 
 597   0.0000       4.229432       115.0887 
 598   0.0000       4.241651       115.4212 
 599   0.0000       4.243276       115.4654 
 600   0.0000       4.254186       115.7623 
 601   0.0000       4.260838       115.9433 
 602   0.0000       4.270963       116.2188 
 603   0.0000       4.279038       116.4386 
 604   0.0000       4.284189       116.5787 
 605   0.0000       4.296948       116.9259 
 606   0.0000       4.305513       117.1590 
 607   0.0000       4.317667       117.4897 
 608   0.0000       4.323364       117.6447 
 609   0.0000       4.326634       117.7337 
 610   0.0000       4.339727       118.0900 
 611   0.0000       4.349552       118.3573 
 612   0.0000       4.361394       118.6796 
 613   0.0000       4.364397       118.7613 
 614   0.0000       4.371716       118.9604 
 615   0.0000       4.381619       119.2299 
 616   0.0000       4.389430       119.4425 
 617   0.0000       4.397771       119.6694 
 618   0.0000       4.409819       119.9973 
 619   0.0000       4.415045       120.1395 
 620   0.0000       4.424616       120.3999 
 621   0.0000       4.428240       120.4985 
 622   0.0000       4.434118       120.6585 
 623   0.0000       4.439919       120.8163 
 624   0.0000       4.450435       121.1025 
 625   0.0000       4.458960       121.3345 
 626   0.0000       4.466391       121.5367 
 627   0.0000       4.482336       121.9706 
 628   0.0000       4.491998       122.2335 
 629   0.0000       4.496411       122.3536 
 630   0.0000       4.502011       122.5060 
 631   0.0000       4.519164       122.9727 
 632   0.0000       4.526118       123.1619 
 633   0.0000       4.542644       123.6116 
 634   0.0000       4.544885       123.6726 
 635   0.0000       4.551913       123.8638 
 636   0.0000       4.557797       124.0240 
 637   0.0000       4.563821       124.1879 
 638   0.0000       4.569484       124.3420 
 639   0.0000       4.584937       124.7625 
 640   0.0000       4.589314       124.8816 
 641   0.0000       4.600120       125.1756 
 642   0.0000       4.608350       125.3996 
 643   0.0000       4.627024       125.9077 
 644   0.0000       4.629161       125.9659 
 645   0.0000       4.631889       126.0401 
 646   0.0000       4.637116       126.1823 
 647   0.0000       4.647627       126.4684 
 648   0.0000       4.651014       126.5605 
 649   0.0000       4.661976       126.8588 
 650   0.0000       4.670545       127.0920 
 651   0.0000       4.673982       127.1855 
 652   0.0000       4.679750       127.3425 
 653   0.0000       4.686056       127.5141 
 654   0.0000       4.696224       127.7908 
 655   0.0000       4.706639       128.0742 
 656   0.0000       4.712213       128.2258 
 657   0.0000       4.717084       128.3584 
 658   0.0000       4.727716       128.6477 
 659   0.0000       4.745304       129.1263 
 660   0.0000       4.751786       129.3027 
 661   0.0000       4.765204       129.6678 
 662   0.0000       4.770378       129.8086 
 663   0.0000       4.794217       130.4573 
 664   0.0000       4.816520       131.0642 
 665   0.0000       4.841005       131.7304 
 666   0.0000       4.859241       132.2267 
 667   0.0000       4.875079       132.6576 
 668   0.0000       4.892535       133.1326 
 669   0.0000       4.896585       133.2428 
 670   0.0000       4.907965       133.5525 
 671   0.0000       4.911539       133.6498 
 672   0.0000       4.936892       134.3397 
 673   0.0000       4.957100       134.8895 
 674   0.0000       4.972119       135.2982 
 675   0.0000       4.987597       135.7194 
 676   0.0000       5.004631       136.1829 
 677   0.0000       5.014847       136.4609 
 678   0.0000       5.020698       136.6201 
 679   0.0000       5.041760       137.1933 
 680   0.0000       5.048238       137.3695 
 681   0.0000       5.053067       137.5010 
 682   0.0000       5.074595       138.0867 
 683   0.0000       5.084087       138.3450 
 684   0.0000       5.095966       138.6683 
 685   0.0000       5.116688       139.2322 
 686   0.0000       5.125000       139.4583 
 687   0.0000       5.132381       139.6592 
 688   0.0000       5.151830       140.1884 
 689   0.0000       5.161956       140.4640 
 690   0.0000       5.168099       140.6311 
 691   0.0000       5.180744       140.9752 
 692   0.0000       5.191472       141.2671 
 693   0.0000       5.196498       141.4039 
 694   0.0000       5.208781       141.7381 
 695   0.0000       5.213836       141.8757 
 696   0.0000       5.222267       142.1051 
 697   0.0000       5.226458       142.2192 
 698   0.0000       5.242257       142.6491 
 699   0.0000       5.247593       142.7943 
 700   0.0000       5.264409       143.2519 
 701   0.0000       5.280570       143.6916 
 702   0.0000       5.284677       143.8034 
 703   0.0000       5.291350       143.9850 
 704   0.0000       5.316241       144.6623 
 705   0.0000       5.331523       145.0781 
 706   0.0000       5.341802       145.3578 
 707   0.0000       5.347760       145.5199 
 708   0.0000       5.361496       145.8937 
 709   0.0000       5.373895       146.2311 
 710   0.0000       5.385331       146.5423 
 711   0.0000       5.407042       147.1331 
 712   0.0000       5.419431       147.4702 
 713   0.0000       5.445288       148.1738 
 714   0.0000       5.461298       148.6095 
 715   0.0000       5.478405       149.0750 
 716   0.0000       5.486925       149.3068 
 717   0.0000       5.500974       149.6891 
 718   0.0000       5.514501       150.0572 
 719   0.0000       5.525832       150.3655 
 720   0.0000       5.539374       150.7340 
 721   0.0000       5.543196       150.8380 
 722   0.0000       5.551747       151.0707 
 723   0.0000       5.565535       151.4459 
 724   0.0000       5.579545       151.8271 
 725   0.0000       5.598007       152.3295 
 726   0.0000       5.618559       152.8888 
 727   0.0000       5.628707       153.1649 
 728   0.0000       5.634180       153.3138 
 729   0.0000       5.644834       153.6037 
 730   0.0000       5.653713       153.8454 
 731   0.0000       5.664715       154.1447 
 732   0.0000       5.672343       154.3523 
 733   0.0000       5.679729       154.5533 
 734   0.0000       5.692006       154.8874 
 735   0.0000       5.704605       155.2302 
 736   0.0000       5.714514       155.4998 
 737   0.0000       5.731844       155.9714 
 738   0.0000       5.745554       156.3445 
 739   0.0000       5.748715       156.4305 
 740   0.0000       5.763275       156.8267 
 741   0.0000       5.769803       157.0043 
 742   0.0000       5.804468       157.9476 
 743   0.0000       5.815246       158.2409 
 744   0.0000       5.826572       158.5491 
 745   0.0000       5.843956       159.0221 
 746   0.0000       5.862833       159.5358 
 747   0.0000       5.885369       160.1490 
 748   0.0000       5.888883       160.2447 
 749   0.0000       5.922969       161.1722 
 750   0.0000       5.927812       161.3040 
 751   0.0000       5.953265       161.9966 
 752   0.0000       5.972657       162.5243 
 753   0.0000       6.002715       163.3422 
 754   0.0000       6.005407       163.4154 
 755   0.0000       6.031983       164.1386 
 756   0.0000       6.048469       164.5872 
 757   0.0000       6.053342       164.7198 
 758   0.0000       6.073525       165.2690 
 759   0.0000       6.091371       165.7546 
 760   0.0000       6.101870       166.0403 
 761   0.0000       6.145674       167.2323 
 762   0.0000       6.219860       169.2510 
 763   0.0000       6.235387       169.6735 
 764   0.0000       6.244074       169.9099 
 765   0.0000       6.305955       171.5938 
 766   0.0000       6.309581       171.6924 
 767   0.0000       6.331546       172.2901 
 768   0.0000       6.338905       172.4904 
 769   0.0000       6.345156       172.6605 
 770   0.0000       6.362809       173.1408 
 771   0.0000       6.378048       173.5555 
 772   0.0000       6.403530       174.2489 
 773   0.0000       6.435491       175.1186 
 774   0.0000       6.449701       175.5053 
 775   0.0000       6.461121       175.8160 
 776   0.0000       6.497715       176.8118 
 777   0.0000       6.551909       178.2865 
 778   0.0000       6.573124       178.8638 
 779   0.0000       6.599027       179.5687 
 780   0.0000       6.647837       180.8968 
 781   0.0000       6.663623       181.3264 
 782   0.0000       6.710856       182.6117 
 783   0.0000       6.750710       183.6962 
 784   0.0000       6.810479       185.3225 
 785   0.0000       6.821361       185.6187 
 786   0.0000       6.905961       187.9208 
 787   0.0000       6.920385       188.3133 
 788   0.0000       6.929214       188.5535 
 789   0.0000       6.985224       190.0776 
 790   0.0000       7.048327       191.7947 
 791   0.0000       7.052308       191.9031 
 792   0.0000       7.080546       192.6715 
 793   0.0000       7.110543       193.4877 
 794   0.0000       7.229142       196.7150 
 795   0.0000       7.257402       197.4839 
 796   0.0000       7.279897       198.0961 
 797   0.0000       7.299210       198.6216 
 798   0.0000       7.341852       199.7820 
 799   0.0000       7.379834       200.8155 
 800   0.0000       7.390387       201.1027 
 801   0.0000       7.522549       204.6990 
 802   0.0000       7.561871       205.7690 
 803   0.0000       7.583443       206.3560 
 804   0.0000       7.610803       207.1005 
 805   0.0000       7.767459       211.3633 
 806   0.0000       7.816964       212.7104 
 807   0.0000       7.932851       215.8638 
 808   0.0000       7.990430       217.4307 
 809   0.0000       9.449496       257.1339 
 810   0.0000       9.612027       261.5566 
 811   0.0000      10.756909       292.7104 
 812   0.0000      11.069284       301.2105 
 813   0.0000      12.024928       327.2149 
 814   0.0000      12.622281       343.4697 
 815   0.0000      12.934316       351.9606 
 816   0.0000      13.058612       355.3429 
 817   0.0000      13.160652       358.1196 
 818   0.0000      13.216022       359.6262 
 819   0.0000      13.410120       364.9079 
 820   0.0000      13.494910       367.2152 
 821   0.0000      13.690683       372.5424 
 822   0.0000      13.946167       379.4945 
 823   0.0000      14.071941       382.9170 
 824   0.0000      14.154112       385.1530 
 825   0.0000      14.395308       391.7162 
 826   0.0000      14.465455       393.6250 
 827   0.0000      15.958754       434.2598 

                    ********************************
                    * MULLIKEN POPULATION ANALYSIS *
                    ********************************

-----------------------
MULLIKEN ATOMIC CHARGES
-----------------------
   0 C :   -0.295057
   1 C :    0.023088
   2 O :   -0.342957
   3 C :    0.433188
   4 O :   -0.382432
   5 C :   -0.232570
   6 C :    0.138340
   7 C :   -0.304761
   8 N :   -0.126576
   9 C :    0.194303
  10 S :   -0.437498
  11 N :   -0.195440
  12 C :    0.060373
  13 C :    0.003698
  14 C :   -0.190704
  15 C :   -0.126741
  16 C :   -0.275734
  17 C :    0.299566
  18 O :   -0.355908
  19 C :   -0.225532
  20 H :    0.118112
  21 H :    0.111420
  22 H :    0.095997
  23 H :    0.122472
  24 H :    0.087410
  25 H :    0.140140
  26 H :    0.116647
  27 H :    0.122309
  28 H :    0.196391
  29 H :    0.193224
  30 H :    0.170803
  31 H :    0.161093
  32 H :    0.162413
  33 H :    0.132481
  34 H :    0.241310
  35 H :    0.167133
Sum of atomic charges:   -0.0000000

--------------------------------
MULLIKEN REDUCED ORBITAL CHARGES
--------------------------------
  0 C s       :     3.273319  s :     3.273319
      pz      :     0.987032  p :     2.945013
      px      :     1.014870
      py      :     0.943111
      dz2     :     0.010367  d :     0.072301
      dxz     :     0.015304
      dyz     :     0.020173
      dx2y2   :     0.022270
      dxy     :     0.004187
      f0      :     0.000288  f :     0.004423
      f+1     :     0.000422
      f-1     :     0.000589
      f+2     :     0.001978
      f-2     :     0.000394
      f+3     :     0.000367
      f-3     :     0.000386
  1 C s       :     3.165445  s :     3.165445
      pz      :     0.948882  p :     2.644289
      px      :     0.725901
      py      :     0.969506
      dz2     :     0.020471  d :     0.155664
      dxz     :     0.040722
      dyz     :     0.028396
      dx2y2   :     0.035906
      dxy     :     0.030170
      f0      :     0.000842  f :     0.011514
      f+1     :     0.001808
      f-1     :     0.000655
      f+2     :     0.002967
      f-2     :     0.001473
      f+3     :     0.001577
      f-3     :     0.002193
  2 O s       :     3.732093  s :     3.732093
      pz      :     1.598860  p :     4.575068
      px      :     1.177265
      py      :     1.798942
      dz2     :     0.003978  d :     0.033549
      dxz     :     0.016444
      dyz     :     0.003095
      dx2y2   :     0.005094
      dxy     :     0.004938
      f0      :     0.000156  f :     0.002247
      f+1     :     0.000303
      f-1     :     0.000024
      f+2     :     0.000602
      f-2     :     0.000234
      f+3     :     0.000555
      f-3     :     0.000372
  3 C s       :     3.052598  s :     3.052598
      pz      :     0.763031  p :     2.195627
      px      :     0.705023
      py      :     0.727573
      dz2     :     0.037277  d :     0.292238
      dxz     :     0.091093
      dyz     :     0.024996
      dx2y2   :     0.069808
      dxy     :     0.069065
      f0      :     0.002375  f :     0.026348
      f+1     :     0.004750
      f-1     :     0.001584
      f+2     :     0.003340
      f-2     :     0.004771
      f+3     :     0.005904
      f-3     :     0.003625
  4 O s       :     3.763684  s :     3.763684
      pz      :     1.643934  p :     4.580292
      px      :     1.445310
      py      :     1.491047
      dz2     :     0.004567  d :     0.035979
      dxz     :     0.008247
      dyz     :     0.002021
      dx2y2   :     0.009845
      dxy     :     0.011300
      f0      :     0.000246  f :     0.002476
      f+1     :     0.000380
      f-1     :     0.000121
      f+2     :     0.000209
      f-2     :     0.000290
      f+3     :     0.000578
      f-3     :     0.000652
  5 C s       :     3.163711  s :     3.163711
      pz      :     0.931167  p :     2.969131
      px      :     1.101459
      py      :     0.936505
      dz2     :     0.016071  d :     0.089939
      dxz     :     0.013655
      dyz     :     0.028727
      dx2y2   :     0.013954
      dxy     :     0.017531
      f0      :     0.000866  f :     0.009790
      f+1     :     0.001183
      f-1     :     0.001929
      f+2     :     0.001991
      f-2     :     0.000974
      f+3     :     0.001397
      f-3     :     0.001450
  6 C s       :     3.193293  s :     3.193293
      pz      :     0.837791  p :     2.476718
      px      :     0.836065
      py      :     0.802862
      dz2     :     0.035784  d :     0.177163
      dxz     :     0.019406
      dyz     :     0.049819
      dx2y2   :     0.021130
      dxy     :     0.051024
      f0      :     0.001983  f :     0.014487
      f+1     :     0.000987
      f-1     :     0.003135
      f+2     :     0.002682
      f-2     :     0.002165
      f+3     :     0.002104
      f-3     :     0.001432
  7 C s       :     3.289676  s :     3.289676
      pz      :     0.907064  p :     2.940614
      px      :     1.013423
      py      :     1.020127
      dz2     :     0.019669  d :     0.069881
      dxz     :     0.013738
      dyz     :     0.010638
      dx2y2   :     0.019606
      dxy     :     0.006230
      f0      :     0.000639  f :     0.004590
      f+1     :     0.001084
      f-1     :     0.001071
      f+2     :     0.000283
      f-2     :     0.000421
      f+3     :     0.000497
      f-3     :     0.000597
  8 N s       :     3.344193  s :     3.344193
      pz      :     1.222394  p :     3.717833
      px      :     1.397548
      py      :     1.097891
      dz2     :     0.014114  d :     0.059594
      dxz     :     0.009905
      dyz     :     0.014173
      dx2y2   :     0.010850
      dxy     :     0.010552
      f0      :     0.000601  f :     0.004956
      f+1     :     0.000986
      f-1     :     0.000681
      f+2     :     0.001004
      f-2     :     0.000895
      f+3     :     0.000397
      f-3     :     0.000392
  9 C s       :     3.168777  s :     3.168777
      pz      :     0.763582  p :     2.356506
      px      :     0.716725
      py      :     0.876199
      dz2     :     0.061161  d :     0.262758
      dxz     :     0.033727
      dyz     :     0.052711
      dx2y2   :     0.057098
      dxy     :     0.058062
      f0      :     0.002649  f :     0.017656
      f+1     :     0.002428
      f-1     :     0.002393
      f+2     :     0.002971
      f-2     :     0.002106
      f+3     :     0.002416
      f-3     :     0.002692
 10 S s       :     5.855265  s :     5.855265
      pz      :     3.498899  p :    10.487454
      px      :     3.674838
      py      :     3.313717
      dz2     :     0.009797  d :     0.084657
      dxz     :     0.005525
      dyz     :     0.037174
      dx2y2   :     0.014520
      dxy     :     0.017641
      f0      :     0.001153  f :     0.010121
      f+1     :     0.000171
      f-1     :     0.002001
      f+2     :     0.002654
      f-2     :     0.001755
      f+3     :     0.001538
      f-3     :     0.000850
 11 N s       :     3.368032  s :     3.368032
      pz      :     1.354935  p :     3.765248
      px      :     1.381613
      py      :     1.028699
      dz2     :     0.007625  d :     0.057714
      dxz     :     0.007816
      dyz     :     0.013791
      dx2y2   :     0.013019
      dxy     :     0.015463
      f0      :     0.000398  f :     0.004447
      f+1     :     0.000564
      f-1     :     0.000570
      f+2     :     0.000632
      f-2     :     0.000701
      f+3     :     0.000847
      f-3     :     0.000734
 12 C s       :     3.112476  s :     3.112476
      pz      :     0.849792  p :     2.631797
      px      :     0.960048
      py      :     0.821957
      dz2     :     0.033853  d :     0.183975
      dxz     :     0.031641
      dyz     :     0.043200
      dx2y2   :     0.030996
      dxy     :     0.044285
      f0      :     0.001124  f :     0.011379
      f+1     :     0.001363
      f-1     :     0.001867
      f+2     :     0.002296
      f-2     :     0.002048
      f+3     :     0.001353
      f-3     :     0.001329
 13 C s       :     3.137616  s :     3.137616
      pz      :     0.895244  p :     2.739107
      px      :     0.910423
      py      :     0.933441
      dz2     :     0.019500  d :     0.108267
      dxz     :     0.011965
      dyz     :     0.029051
      dx2y2   :     0.022006
      dxy     :     0.025746
      f0      :     0.001002  f :     0.011312
      f+1     :     0.001604
      f-1     :     0.001337
[...]
      f-1     :     0.005011
      f+2     :     0.007720
      f-2     :     0.004884
      f+3     :     0.006697
      f-3     :     0.007918
 15 C s       :     2.706032  s :     2.706032
      pz      :     0.903612  p :     2.792284
      px      :     0.926490
      py      :     0.962182
      dz2     :     0.095330  d :     0.416822
      dxz     :     0.071629
      dyz     :     0.061512
      dx2y2   :     0.106461
      dxy     :     0.081891
      f0      :     0.003560  f :     0.041085
      f+1     :     0.005530
      f-1     :     0.006017
      f+2     :     0.007497
      f-2     :     0.005991
      f+3     :     0.006789
      f-3     :     0.005701
 16 C s       :     2.701719  s :     2.701719
      pz      :     0.938711  p :     2.869142
      px      :     0.958319
      py      :     0.972112
      dz2     :     0.045591  d :     0.389566
      dxz     :     0.058678
      dyz     :     0.087995
      dx2y2   :     0.093734
      dxy     :     0.103569
      f0      :     0.003981  f :     0.040241
      f+1     :     0.004764
      f-1     :     0.004468
      f+2     :     0.006204
      f-2     :     0.005002
      f+3     :     0.008847
      f-3     :     0.006975
 17 C s       :     2.701650  s :     2.701650
      pz      :     0.857108  p :     2.679922
      px      :     0.819229
      py      :     1.003586
      dz2     :     0.129168  d :     0.709227
      dxz     :     0.107869
      dyz     :     0.141456
      dx2y2   :     0.163688
      dxy     :     0.167046
      f0      :     0.009437  f :     0.099282
      f+1     :     0.015653
      f-1     :     0.009983
      f+2     :     0.016682
      f-2     :     0.013892
      f+3     :     0.017679
      f-3     :     0.015956
 18 O s       :     3.177345  s :     3.177345
      pz      :     1.414286  p :     4.346435
      px      :     1.419496
      py      :     1.512653
      dz2     :     0.008472  d :     0.075429
      dxz     :     0.017019
      dyz     :     0.019135
      dx2y2   :     0.014542
      dxy     :     0.016261
      f0      :     0.000592  f :     0.005063
      f+1     :     0.000693
      f-1     :     0.000478
      f+2     :     0.000680
      f-2     :     0.001029
      f+3     :     0.000720
      f-3     :     0.000869
 19 C s       :     2.694890  s :     2.694890
      pz      :     0.936512  p :     2.848628
      px      :     0.949494
      py      :     0.962622
      dz2     :     0.076284  d :     0.386398
      dxz     :     0.070221
      dyz     :     0.062383
      dx2y2   :     0.093020
      dxy     :     0.084489
      f0      :     0.003527  f :     0.040745
      f+1     :     0.005744
      f-1     :     0.005516
      f+2     :     0.007490
      f-2     :     0.006507
      f+3     :     0.006665
      f-3     :     0.005296
 20 H s       :     0.843164  s :     0.843164
      pz      :     0.063348  p :     0.156466
      px      :     0.053887
      py      :     0.039231
      dz2     :     0.008029  d :     0.027630
      dxz     :     0.006798
      dyz     :     0.006184
      dx2y2   :     0.003741
      dxy     :     0.002878
 21 H s       :     0.844435  s :     0.844435
      pz      :     0.047609  p :     0.150635
      px      :     0.041319
      py      :     0.061707
      dz2     :     0.005161  d :     0.027557
      dxz     :     0.003263
      dyz     :     0.006961
      dx2y2   :     0.006405
      dxy     :     0.005766
 22 H s       :     0.845955  s :     0.845955
      pz      :     0.044372  p :     0.151727
      px      :     0.067640
      py      :     0.039715
      dz2     :     0.003308  d :     0.027480
      dxz     :     0.008579
      dyz     :     0.001679
      dx2y2   :     0.006377
      dxy     :     0.007537
 23 H s       :     0.851669  s :     0.851669
      pz      :     0.056710  p :     0.143918
      px      :     0.045642
      py      :     0.041566
      dz2     :     0.005181  d :     0.026817
      dxz     :     0.007815
      dyz     :     0.006036
      dx2y2   :     0.003908
      dxy     :     0.003876
 24 H s       :     0.860196  s :     0.860196
      pz      :     0.054344  p :     0.152752
      px      :     0.030278
      py      :     0.068130
      dz2     :     0.005704  d :     0.027499
      dxz     :     0.002986
      dyz     :     0.007872
      dx2y2   :     0.005851
      dxy     :     0.005087
 25 H s       :     0.824908  s :     0.824908
      pz      :     0.059210  p :     0.151603
      px      :     0.046453
      py      :     0.045939
      dz2     :     0.008291  d :     0.027706
      dxz     :     0.006258
      dyz     :     0.006028
      dx2y2   :     0.004509
      dxy     :     0.002620
 26 H s       :     0.837130  s :     0.837130
      pz      :     0.035816  p :     0.149850
      px      :     0.041284
      py      :     0.072750
      dz2     :     0.002430  d :     0.027751
      dxz     :     0.000163
      dyz     :     0.008986
      dx2y2   :     0.007272
      dxy     :     0.008899
 27 H s       :     0.833180  s :     0.833180
      pz      :     0.039035  p :     0.153962
      px      :     0.073445
      py      :     0.041483
      dz2     :     0.002506  d :     0.027839
      dxz     :     0.008845
      dyz     :     0.000221
      dx2y2   :     0.007522
      dxy     :     0.008746
 28 H s       :     0.743569  s :     0.743569
      pz      :     0.058392  p :     0.253214
      px      :     0.081248
      py      :     0.113575
      dz2     :     0.006312  d :     0.061772
      dxz     :     0.002380
      dyz     :     0.016840
      dx2y2   :     0.016836
      dxy     :     0.019404
 29 H s       :     0.748199  s :     0.748199
      pz      :     0.112240  p :     0.253947
      px      :     0.099048
      py      :     0.042659
      dz2     :     0.020937  d :     0.061332
      dxz     :     0.015420
      dyz     :     0.009377
      dx2y2   :     0.009141
      dxy     :     0.006456
 30 H s       :     0.824026  s :     0.824026
      pz      :     0.042662  p :     0.150210
      px      :     0.064245
      py      :     0.043304
      dz2     :     0.003611  d :     0.028402
      dxz     :     0.007101
      dyz     :     0.003124
      dx2y2   :     0.007216
      dxy     :     0.007350
 31 H s       :     0.840743  s :     0.840743
      pz      :     0.053193  p :     0.157202
      px      :     0.065065
      py      :     0.038943
      dz2     :     0.005084  d :     0.027399
      dxz     :     0.006588
      dyz     :     0.003639
      dx2y2   :     0.006021
      dxy     :     0.006067
 32 H s       :     0.842024  s :     0.842024
      pz      :     0.036990  p :     0.150922
      px      :     0.038928
      py      :     0.075004
      dz2     :     0.002748  d :     0.026413
      dxz     :     0.000781
      dyz     :     0.007325
      dx2y2   :     0.007679
      dxy     :     0.007879
 33 H s       :     0.848072  s :     0.848072
      pz      :     0.060025  p :     0.158970
      px      :     0.049333
      py      :     0.049612
      dz2     :     0.006581  d :     0.027750
      dxz     :     0.005244
      dyz     :     0.006015
      dx2y2   :     0.005152
      dxy     :     0.004758
 34 H s       :     0.706062  s :     0.706062
      pz      :     0.119512  p :     0.347592
      px      :     0.086641
      py      :     0.141439
      dz2     :     0.025712  d :     0.099486
      dxz     :     0.013736
      dyz     :     0.023946
      dx2y2   :     0.018132
      dxy     :     0.017960
 35 H s       :     0.838609  s :     0.838609
      pz      :     0.040088  p :     0.157045
      px      :     0.040885
      py      :     0.076073
      dz2     :     0.002769  d :     0.028024
      dxz     :     0.000938
      dyz     :     0.007994
      dx2y2   :     0.007975
      dxy     :     0.008349


                      *****************************
                      * MAYER POPULATION ANALYSIS *
                      *****************************

  NA   - Mulliken gross atomic population
  ZA   - Total nuclear charge
  QA   - Mulliken gross atomic charge
  VA   - Mayer's total valence
  BVA  - Mayer's bonded valence
  FA   - Mayer's free valence

  ATOM       NA         ZA         QA         VA         BVA        FA
  0 C      6.2951     6.0000    -0.2951     3.8928     3.8928     0.0000
  1 C      5.9769     6.0000     0.0231     3.8596     3.8596     0.0000
  2 O      8.3430     8.0000    -0.3430     2.0280     2.0280    -0.0000
  3 C      5.5668     6.0000     0.4332     4.2510     4.2510     0.0000
  4 O      8.3824     8.0000    -0.3824     2.1397     2.1397     0.0000
  5 C      6.2326     6.0000    -0.2326     3.5958     3.5958    -0.0000
  6 C      5.8617     6.0000     0.1383     3.8673     3.8673    -0.0000
  7 C      6.3048     6.0000    -0.3048     3.8792     3.8792     0.0000
  8 N      7.1266     7.0000    -0.1266     3.2722     3.2722    -0.0000
  9 C      5.8057     6.0000     0.1943     4.1571     4.1571    -0.0000
 10 S     16.4375    16.0000    -0.4375     1.7601     1.7601    -0.0000
 11 N      7.1954     7.0000    -0.1954     3.2555     3.2555     0.0000
 12 C      5.9396     6.0000     0.0604     3.9118     3.9118    -0.0000
 13 C      5.9963     6.0000     0.0037     3.7493     3.7493     0.0000
 14 C      6.1907     6.0000    -0.1907     3.8493     3.8493     0.0000
 15 C      6.1267     6.0000    -0.1267     3.8044     3.8044    -0.0000
 16 C      6.2757     6.0000    -0.2757     3.7918     3.7918    -0.0000
 17 C      5.7004     6.0000     0.2996     3.8829     3.8829    -0.0000
 18 O      8.3559     8.0000    -0.3559     2.1196     2.1196    -0.0000
 19 C      6.2255     6.0000    -0.2255     3.8317     3.8317    -0.0000
 20 H      0.8819     1.0000     0.1181     0.9683     0.9683     0.0000
 21 H      0.8886     1.0000     0.1114     0.9819     0.9819    -0.0000
 22 H      0.9040     1.0000     0.0960     0.9846     0.9846    -0.0000
 23 H      0.8775     1.0000     0.1225     0.9724     0.9724    -0.0000
 24 H      0.9126     1.0000     0.0874     0.9705     0.9705     0.0000
 25 H      0.8599     1.0000     0.1401     0.9776     0.9776     0.0000
 26 H      0.8834     1.0000     0.1166     0.9867     0.9867    -0.0000
 27 H      0.8777     1.0000     0.1223     0.9708     0.9708     0.0000
 28 H      0.8036     1.0000     0.1964     1.0221     1.0221    -0.0000
 29 H      0.8068     1.0000     0.1932     1.0190     1.0190     0.0000
 30 H      0.8292     1.0000     0.1708     1.0055     1.0055    -0.0000
 31 H      0.8389     1.0000     0.1611     0.9830     0.9830    -0.0000
 32 H      0.8376     1.0000     0.1624     0.9769     0.9769    -0.0000
 33 H      0.8675     1.0000     0.1325     0.9910     0.9910    -0.0000
 34 H      0.7587     1.0000     0.2413     1.0103     1.0103     0.0000
 35 H      0.8329     1.0000     0.1671     0.9882     0.9882    -0.0000

  Mayer bond orders larger than 0.100000
B(  0-C ,  1-C ) :   0.9746 B(  0-C , 20-H ) :   0.9663 B(  0-C , 21-H ) :   0.9764 
B(  0-C , 22-H ) :   0.9767 B(  1-C ,  2-O ) :   0.8964 B(  1-C , 23-H ) :   0.9798 
B(  1-C , 24-H ) :   0.9652 B(  2-O ,  3-C ) :   1.1317 B(  3-C ,  4-O ) :   2.1018 
B(  3-C ,  5-C ) :   0.9397 B(  5-C ,  6-C ) :   1.7100 B(  5-C , 12-C ) :   0.9352 
B(  6-C ,  7-C ) :   0.9402 B(  6-C ,  8-N ) :   1.1144 B(  7-C , 25-H ) :   0.9642 
B(  7-C , 26-H ) :   0.9865 B(  7-C , 27-H ) :   0.9672 B(  8-N ,  9-C ) :   1.1843 
B(  8-N , 28-H ) :   0.9495 B(  9-C , 10-S ) :   1.6177 B(  9-C , 11-N ) :   1.2932 
B( 11-N , 12-C ) :   0.9974 B( 11-N , 29-H ) :   0.9530 B( 12-C , 13-C ) :   0.9489 
B( 12-C , 30-H ) :   0.9878 B( 13-C , 14-C ) :   1.3793 B( 13-C , 19-C ) :   1.3712 
B( 14-C , 15-C ) :   1.3828 B( 14-C , 31-H ) :   0.9668 B( 15-C , 16-C ) :   1.3729 
B( 15-C , 32-H ) :   0.9706 B( 16-C , 17-C ) :   1.3258 B( 16-C , 33-H ) :   0.9841 
B( 17-C , 18-O ) :   1.1134 B( 17-C , 19-C ) :   1.3759 B( 18-O , 34-H ) :   0.9793 
B( 19-C , 35-H ) :   0.9567 

-------
TIMINGS
-------

Total SCF time: 0 days 2 hours 48 min 17 sec 

Total time                  ....   10097.771 sec
Sum of individual times     ....   10087.807 sec  ( 99.9%)

Fock matrix formation       ....   10061.279 sec  ( 99.6%)
Diagonalization             ....       2.162 sec  (  0.0%)
Density matrix formation    ....       0.321 sec  (  0.0%)
Population analysis         ....       0.675 sec  (  0.0%)
Initial guess               ....       9.891 sec  (  0.1%)
Orbital Transformation      ....       0.000 sec  (  0.0%)
Orbital Orthonormalization  ....       0.000 sec  (  0.0%)
DIIS solution               ....       8.069 sec  (  0.1%)
SOSCF solution              ....       2.704 sec  (  0.0%)

------------------------------------------------------------------------------
                                ORCA  MP2 
------------------------------------------------------------------------------

Freezing NCore=48 chemical core electrons

-------------
RI-MP2 ENERGY
-------------
Dimension of the basis                    ...  828
Memory devoted to MP2                     ...  256 MB   
Data format for buffers                   ... DOUBLE
Compression type for matrix containers    ... UNCOMPRESSED
Overall scaling of the MP2 energy         ...   1.000e+00
Calculating two index integrals           ... done (    0.062 sec)
Cholesky decomposition of V**-1           ... done (    0.861 sec)

-----------------
RI-TRANSFORMATION (AUX index driven)
-----------------

Dimension of the orbital-basis         ... 828
Dimension of the aux-basis             ... 2141
Transformation of internal/external MOs...   24-  76 to   77- 827
Number Format for Storage              ... Double (8 Byte)
Integral mode                          ... Direct

First Phase: integral generation and transformation of MO indices
  Aux angular momentum 0               ... done (    8.312 sec)
  Aux angular momentum 1               ... done (   13.437 sec)
  Aux angular momentum 2               ... done (   16.387 sec)
  Aux angular momentum 3               ... done (   13.627 sec)
  Aux angular momentum 4               ... done (    5.002 sec)
Closing buffer VIA ( 0.63 GB; CompressionRatio= 1.00)
  Phase 1 completed in    57.583 sec
Second Phase: sorting and transformation of aux index

IA-Transformation
Memory available                       ... 167 MB 
Max. # MO pairs treated in a batch     ... 12    
# of internal orbitals                 ... 53
# batches for internal orbitals        ... 5
Closing buffer IAV ( 0.63 GB; CompressionRatio= 1.00)
(ia|v) transformation done in    75.892 sec

  Phase 2 completed in    76.117 sec
RI-Integral transformation completed in   133.850 sec
Opening buffers                              ... done

Starting loop over batches of integrals:

Operator 0  - window                       ... ( 24- 76)x( 77-827)
Operator 0  - Memory available             ...   256 MB
Operator 0  - Memory needed per MO         ...  12.3 MB
Operator 0  - Number of orbitals per batch ... 13
Operator 0  - Number of batches            ... 5

OPERATOR  0   PASS   0:  MOs    24 ...   36
  Reading integrals       ... ok
  Internal MO  26
  Internal MO  29
  Internal MO  32
  Internal MO  35
OPERATOR  0   PASS   1:  MOs    37 ...   49
  Reading integrals       ... ok
  Internal MO  38
  Internal MO  41
  Internal MO  44
  Internal MO  47
OPERATOR  0   PASS   2:  MOs    50 ...   62
  Reading integrals       ... ok
  Internal MO  50
  Internal MO  53
  Internal MO  56
  Internal MO  59
  Internal MO  62
OPERATOR  0   PASS   3:  MOs    63 ...   75
  Reading integrals       ... ok
  Internal MO  65
  Internal MO  68
  Internal MO  71
  Internal MO  74
OPERATOR  0   PASS   4:  MOs    76 ...   76
  Reading integrals       ... ok
Time spent in pair loops =   329.831 sec
Deleting buffer (Ka|jb)[aa] ...done

-----------------------------------------------
 RI-MP2 CORRELATION ENERGY:     -3.539849716 Eh
-----------------------------------------------


-------
TIMINGS
-------

Total time                :  465.223 sec
Integral trafo            :  133.876 sec ( 28.8%)
I/O of integrals          :   13.100 sec (  2.8%)
K(i,j) Operators          :  104.839 sec ( 22.5%)
T(i,j) pair energies      :    6.464 sec (  1.4%)
V-calculation             :    0.062 sec (  0.0%)
V**(-1/2)                 :    0.861 sec (  0.2%)
Gamma(ia|P)               :    0.000 sec (  0.0%)
Gamma-Trafo               :    0.000 sec (  0.0%)
D(virtual)                :    0.000 sec (  0.0%)
D(internal)               :    0.000 sec (  0.0%)
W(virtual)                :    0.000 sec (  0.0%)
W(internal)               :    0.000 sec (  0.0%)
L(virtual)                :    0.000 sec (  0.0%)
L(internal)               :    0.000 sec (  0.0%)
G(D)                      :    0.000 sec (  0.0%)
G(Z)                      :    0.000 sec (  0.0%)
Z-Vector Solution         :    0.000 sec (  0.0%)
3-Index Derivative        :    0.000 sec (  0.0%)
2-Index Derivative        :    0.000 sec (  0.0%)
Separable Gradient        :    0.000 sec (  0.0%)


---------------------------------------
MP2 TOTAL ENERGY:    -1274.329572415 Eh
---------------------------------------

-------------------------   --------------------
FINAL SINGLE POINT ENERGY     -1274.329572415268
-------------------------   --------------------


                            ***************************************
                            *     ORCA property calculations      *
                            ***************************************


  WARNING: The energy has been calculated at the MP2 level but the densities
           used in the property calculations are still SCF densities
           MP2 response densities have not been calculated 
           use %mp2 Density relaxed end
           or  %mp2 Density unrelaxed end

                                    ---------------------
                                    Active property flags
                                    ---------------------
   (+) Dipole Moment


------------------------------------------------------------------------------
                       ORCA ELECTRIC PROPERTIES CALCULATION
------------------------------------------------------------------------------

Dipole Moment Calculation                       ... on
Quadrupole Moment Calculation                   ... off
Polarizability Calculation                      ... off
GBWName                                         ... G2_CONFS/Conf3.orca.gbw
Electron density file                           ... G2_CONFS/Conf3.orca.scfp
The origin for moment calculation is the CENTER OF MASS  = (32.844765, 31.424231 35.192194)

-------------
DIPOLE MOMENT
-------------
                                X             Y             Z
Electronic contribution:      9.63120       8.47759       6.19960
Nuclear contribution   :    -11.49637      -9.54226      -6.32053
                        -----------------------------------------
Total Dipole Moment    :     -1.86516      -1.06466      -0.12092
                        -----------------------------------------
Magnitude (a.u.)       :      2.15104
Magnitude (Debye)      :      5.46750



--------------------
Rotational spectrum 
--------------------
 
Rotational constants in cm-1:     0.010985     0.009763     0.006526 
Rotational constants in MHz :   329.323815   292.700552   195.643088 

 Dipole components along the rotational axes: 
x,y,z [a.u.] :    -1.499974    -0.827718     1.300740 
x,y,z [Debye]:    -3.812632    -2.103892     3.306219 

 

Timings for individual modules:

Sum of individual times         ...    10570.752 sec (= 176.179 min)
GTO integral calculation        ...        4.104 sec (=   0.068 min)   0.0 %
SCF iterations                  ...    10100.062 sec (= 168.334 min)  95.5 %
MP2 module                      ...      466.586 sec (=   7.776 min)   4.4 %
                             ****ORCA TERMINATED NORMALLY****
TOTAL RUN TIME: 0 days 2 hours 56 minutes 12 seconds 350 msec
