
                                 *****************
                                 * O   R   C   A *
                                 *****************

           --- An Ab Initio, DFT and Semiempirical electronic structure package ---

                  #######################################################
                  #                        -***-                        #
                  #          Department of theory and spectroscopy      #
                  #               Directorship: Frank Neese             #
                  #        Max Planck Institute fuer Kohlenforschung    #
                  #                Kaiser Wilhelm Platz 1               #
                  #                 D-45470 Muelheim/Ruhr               #
                  #                      Germany                        #
                  #                                                     #
                  #                  All rights reserved                #
                  #                        -***-                        #
                  #######################################################


                         Program Version 4.2.0 -  RELEASE  -


 With contributions from (in alphabetic order):
   Daniel Aravena         : Magnetic Suceptibility
   Michael Atanasov       : Ab Initio Ligand Field Theory (pilot matlab implementation)
   Alexander A. Auer      : GIAO ZORA, VPT2
   Ute Becker             : Parallelization
   Giovanni Bistoni       : ED, misc. LED, open-shell LED, HFLED
   Martin Brehm           : Molecular dynamics
   Dmytro Bykov           : SCF Hessian
   Vijay G. Chilkuri      : MRCI spin determinant printing, contributions to CSF-ICE
   Dipayan Datta          : RHF DLPNO-CCSD density
   Achintya Kumar Dutta   : EOM-CC, STEOM-CC
   Dmitry Ganyushin       : Spin-Orbit,Spin-Spin,Magnetic field MRCI
   Miquel Garcia          : C-PCM Hessian, Gaussian charge scheme
   Yang Guo               : DLPNO-NEVPT2, CIM, IAO-localization
   Andreas Hansen         : Spin unrestricted coupled pair/coupled cluster methods
   Benjamin Helmich-Paris : CASSCF linear response (MC-RPA)
   Lee Huntington         : MR-EOM, pCC
   Robert Izsak           : Overlap fitted RIJCOSX, COSX-SCS-MP3, EOM
   Christian Kollmar      : KDIIS, OOCD, Brueckner-CCSD(T), CCSD density
   Simone Kossmann        : Meta GGA functionals, TD-DFT gradient, OOMP2, MP2 Hessian
   Martin Krupicka        : AUTO-CI
   Lucas Lang             : DCDCAS
   Dagmar Lenk            : GEPOL surface, SMD
   Dimitrios Liakos       : Extrapolation schemes; Compound Job, initial MDCI parallelization
   Dimitrios Manganas     : Further ROCIS development; embedding schemes
   Dimitrios Pantazis     : SARC Basis sets
   Taras Petrenko         : DFT Hessian,TD-DFT gradient, ASA, ECA, R-Raman, ABS, FL, XAS/XES, NRVS
   Peter Pinski           : DLPNO-MP2, DLPNO-MP2 Gradient
   Christoph Reimann      : Effective Core Potentials
   Marius Retegan         : Local ZFS, SOC
   Christoph Riplinger    : Optimizer, TS searches, QM/MM, DLPNO-CCSD(T), (RO)-DLPNO pert. Triples
   Tobias Risthaus        : Range-separated hybrids, TD-DFT gradient, RPA, STAB
   Michael Roemelt        : Original ROCIS implementation
   Masaaki Saitow         : Open-shell DLPNO-CCSD energy and density
   Barbara Sandhoefer     : DKH picture change effects
   Avijit Sen             : IP-ROCIS
   Kantharuban Sivalingam : CASSCF convergence, NEVPT2, FIC-MRCI
   Bernardo de Souza      : ESD, SOC TD-DFT
   Georgi Stoychev        : AutoAux, RI-MP2 NMR
   Willem Van den Heuvel  : Paramagnetic NMR
   Boris Wezisla          : Elementary symmetry handling
   Frank Wennmohs         : Technical directorship


 We gratefully acknowledge several colleagues who have allowed us to
 interface, adapt or use parts of their codes:
   Stefan Grimme, W. Hujo, H. Kruse,             : VdW corrections, initial TS optimization,
                  C. Bannwarth                     DFT functionals, gCP, sTDA/sTD-DF
   Ed Valeev, F. Pavosevic, A. Kumar             : LibInt (2-el integral package), F12 methods
   Garnet Chan, S. Sharma, J. Yang, R. Olivares  : DMRG
   Ulf Ekstrom                                   : XCFun DFT Library
   Mihaly Kallay                                 : mrcc  (arbitrary order and MRCC methods)
   Andreas Klamt, Michael Diedenhofen            : otool_cosmo (COSMO solvation model)
   Jiri Pittner, Ondrej Demel                    : Mk-CCSD
   Frank Weinhold                                : gennbo (NPA and NBO analysis)
   Christopher J. Cramer and Donald G. Truhlar   : smd solvation model
   Lars Goerigk                                  : TD-DFT with DH, B97 family of functionals
   V. Asgeirsson, H. Jonsson                     : NEB implementation
   FAccTs GmbH                                   : IRC, NEB, NEB-TS, Multilevel, MM, QM/MM, CI optimization
   S Lehtola, MJT Oliveira, MAL Marques          : LibXC Library


 Your calculation uses the libint2 library for the computation of 2-el integrals
 For citations please refer to: http://libint.valeyev.net

 Your ORCA version has been built with support for libXC version: 4.2.3
 For citations please refer to: https://tddft.org/programs/libxc/

 This ORCA versions uses:
   CBLAS   interface :  Fast vector & matrix operations
   LAPACKE interface :  Fast linear algebra routines
   SCALAPACK package :  Parallel linear algebra routines


----- Orbital basis set information -----
Your calculation utilizes the basis: cc-pVTZ 
       H, B-Ne : Obtained from the ccRepo (grant-hill.group.shef.ac.uk/ccrepo) Feb. 2017
                 T. H. Dunning, Jr., J. Chem. Phys. 90, 1007 (1989)
            He : Obtained from the ccRepo (grant-hill.group.shef.ac.uk/ccrepo) Feb. 2017
                 D. E. Woon, T. H. Dunning, Jr., J. Chem. Phys. 100, 2975 (1994)
  Li-Be, Na-Mg : Obtained from the ccRepo (grant-hill.group.shef.ac.uk/ccrepo) Feb. 2017
                 B. P. Prascher, D. E. Woon, K. A. Peterson, T. H. Dunning, Jr., A. K. Wilson, Theor. Chem. Acc. 128, 69 (2011)
         Al-Ar : Obtained from the ccRepo (grant-hill.group.shef.ac.uk/ccrepo) Feb. 2017
                 D. E. Woon, T. H. Dunning, Jr., J. Chem. Phys. 98, 1358 (1993)
            Ca : Obtained from the Peterson Research Group Website (tyr0.chem.wsu.edu/~kipeters) Feb. 2017
                 J. Koput, K. A. Peterson, J. Phys. Chem. 106, 9595 (2002)
         Sc-Zn : Obtained from the ccRepo (grant-hill.group.shef.ac.uk/ccrepo) Feb. 2017
                 N. B. Balabanov, K. A. Peterson, J. Chem. Phys. 123, 064107 (2005)
                 N. B. Balabanov, K. A. Peterson, J. Chem. Phys. 125, 074110 (2006)
         Ga-Kr : Obtained from the ccRepo (grant-hill.group.shef.ac.uk/ccrepo) Feb. 2017
                 A. K. Wilson, D. E. Woon, K. A. Peterson, T. H. Dunning, Jr., J. Chem. Phys. 110, 7667 (1999)
             Y : Obtained from the ccRepo (grant-hill.group.shef.ac.uk/ccrepo) Feb. 2017
                 K. A. Peterson, D. Figgen, M. Dolg, H. Stoll, J. Chem. Phys. 126, 124101 (2007)
        Ag, Au : Obtained from the Peterson Research Group Website (tyr0.chem.wsu.edu/~kipeters) Feb. 2017
                 K. A. Peterson, C. Puzzarini, Theor. Chem. Acc. 114, 283 (2005)

----- AuxC basis set information -----
Your calculation utilizes the auxiliary basis: cc-pVTZ/C 
  Obtained from the EMSL Basis Set Exchange (bse.pnl.gov) Feb. 2017
  H-He, B-F, Al-Ar, Ga-Kr : F. Weigend, A. Kohn, C. Hattig, J. Chem. Phys. 116, 3175 (2002)
             Li-Be, Na-Mg : C. Haettig, Phys. Chem. Chem. Phys. 7, 59 (2005)
                       Ne : C. Haettig, Phys. Chem. Chem. Phys. 7, 59 (2005)
                            F. Weigend, A. Kohn, C. Hattig, J. Chem. Phys. 116, 3175 (2002)
                    Sc-Zn : J. G. Hill, J. A. Platts, J. Chem. Phys. 128, 044104 (2008)

================================================================================
                                        WARNINGS
                       Please study these warnings very carefully!
================================================================================


WARNING: No MP2 level density has been requested!
         To caclulate MP2 level properties use
         %mp2 Density relaxed end
         or
         %mp2 Density unrelaxed end

WARNING: Post HF methods need fully converged wavefunctions
  ===> : Setting SCFConvForced true
         You can overwrite this default with %scf ConvForced false 


INFO   : the flag for use of LIBINT has been found!

================================================================================
                                       INPUT FILE
================================================================================
NAME = G2_CONFS/Conf6.orca
|  1> ! ri-mp2 cc-pvtz cc-pvtz/c TightSCF NoKeepInts
|  2> 
|  3> %scf
|  4>   MaxCore 4096
|  5> end
|  6> *xyz  0  1
|  7>     C       16.4762090   14.1615349   14.6003522
|  8>     C       15.6790435   14.1089819   15.9190597
|  9>     O       16.2808347   15.0070188   16.8702641
| 10>     C       16.0850680   16.3591055   16.7701969
| 11>     O       15.3521136   16.8440758   15.9243069
| 12>     C       16.8422779   17.1223476   17.8279451
| 13>     C       16.9071132   18.4768116   17.7023194
| 14>     C       15.9705706   19.3955766   16.9435659
| 15>     N       17.9274902   19.1916484   18.3357500
| 16>     C       19.0762010   18.6354615   18.8263330
| 17>     S       20.3227208   19.5574061   19.4022195
| 18>     N       19.1485339   17.2679070   18.7898828
| 19>     C       18.0264977   16.3675608   18.4624056
| 20>     C       17.5871868   15.6559785   19.7372197
| 21>     C       17.6342818   14.2516888   19.8139854
| 22>     C       17.2292405   13.5850215   20.9826797
| 23>     C       16.7720928   14.3284935   22.0841435
| 24>     C       16.7216117   15.7273008   22.0107521
| 25>     O       16.2775526   16.4475046   23.0715443
| 26>     C       17.1256998   16.3879359   20.8464550
| 27>     H       16.4048323   15.1522138   14.1341932
| 28>     H       16.0838319   13.4259430   13.8878048
| 29>     H       17.5350500   13.9361744   14.7770938
| 30>     H       14.6261529   14.3702088   15.7444662
| 31>     H       15.7140196   13.0864370   16.3161815
| 32>     H       14.9252379   19.0992148   17.0985074
| 33>     H       16.1704848   19.3480357   15.8654653
| 34>     H       16.0567087   20.4432583   17.2548016
| 35>     H       17.9012277   20.1987919   18.3377044
| 36>     H       19.9974580   16.8821280   19.1830110
| 37>     H       18.4301106   15.6458907   17.7385822
| 38>     H       17.9803993   13.6745156   18.9607235
| 39>     H       17.2682845   12.4982788   21.0314717
| 40>     H       16.4573043   13.8182257   22.9884212
| 41>     H       16.0711998   15.8221068   23.7821444
| 42>     H       17.0823603   17.4712116   20.8120439
| 43> *
| 44> 
| 45>                          ****END OF INPUT****
================================================================================

                       ****************************
                       * Single Point Calculation *
                       ****************************

---------------------------------
CARTESIAN COORDINATES (ANGSTROEM)
---------------------------------
  C     16.476209   14.161535   14.600352
  C     15.679043   14.108982   15.919060
  O     16.280835   15.007019   16.870264
  C     16.085068   16.359105   16.770197
  O     15.352114   16.844076   15.924307
  C     16.842278   17.122348   17.827945
  C     16.907113   18.476812   17.702319
  C     15.970571   19.395577   16.943566
  N     17.927490   19.191648   18.335750
  C     19.076201   18.635462   18.826333
  S     20.322721   19.557406   19.402220
  N     19.148534   17.267907   18.789883
  C     18.026498   16.367561   18.462406
  C     17.587187   15.655978   19.737220
  C     17.634282   14.251689   19.813985
  C     17.229240   13.585021   20.982680
  C     16.772093   14.328494   22.084143
  C     16.721612   15.727301   22.010752
  O     16.277553   16.447505   23.071544
  C     17.125700   16.387936   20.846455
  H     16.404832   15.152214   14.134193
  H     16.083832   13.425943   13.887805
  H     17.535050   13.936174   14.777094
  H     14.626153   14.370209   15.744466
  H     15.714020   13.086437   16.316181
  H     14.925238   19.099215   17.098507
  H     16.170485   19.348036   15.865465
  H     16.056709   20.443258   17.254802
  H     17.901228   20.198792   18.337704
  H     19.997458   16.882128   19.183011
  H     18.430111   15.645891   17.738582
  H     17.980399   13.674516   18.960724
  H     17.268285   12.498279   21.031472
  H     16.457304   13.818226   22.988421
  H     16.071200   15.822107   23.782144
  H     17.082360   17.471212   20.812044

----------------------------
CARTESIAN COORDINATES (A.U.)
----------------------------
  NO LB      ZA    FRAG     MASS         X           Y           Z
   0 C     6.0000    0    12.011   31.135523   26.761423   27.590667
   1 C     6.0000    0    12.011   29.629098   26.662112   30.082663
   2 O     8.0000    0    15.999   30.766319   28.359156   31.880179
   3 C     6.0000    0    12.011   30.396373   30.914229   31.691079
   4 O     8.0000    0    15.999   29.011290   31.830690   30.092579
   5 C     6.0000    0    12.011   31.827293   32.356548   33.689934
   6 C     6.0000    0    12.011   31.949814   34.916114   33.452536
   7 C     6.0000    0    12.011   30.180005   36.652328   32.018699
   8 N     7.0000    0    14.007   33.878047   36.266960   34.649546
   9 C     6.0000    0    12.011   36.048796   35.215919   35.576613
  10 S    16.0000    0    32.060   38.404377   36.958141   36.664881
  11 N     7.0000    0    14.007   36.185485   32.631615   35.507733
  12 C     6.0000    0    12.011   34.065144   30.930207   34.888890
  13 C     6.0000    0    12.011   33.234967   29.585512   37.297940
  14 C     6.0000    0    12.011   33.323963   26.931789   37.443006
  15 C     6.0000    0    12.011   32.558546   25.671970   39.651518
  16 C     6.0000    0    12.011   31.694662   27.076929   41.732983
  17 C     6.0000    0    12.011   31.599267   29.720291   41.594293
  18 O     8.0000    0    15.999   30.760117   31.081279   43.598900
  19 C     6.0000    0    12.011   32.362882   30.968711   39.394091
  20 H     1.0000    0     1.008   31.000640   28.633534   26.709754
  21 H     1.0000    0     1.008   30.394037   25.371355   26.244148
  22 H     1.0000    0     1.008   33.136442   26.335553   27.924660
  23 H     1.0000    0     1.008   27.639423   27.155759   29.752729
  24 H     1.0000    0     1.008   29.695194   24.729782   30.833115
  25 H     1.0000    0     1.008   28.204612   36.092285   32.311496
  26 H     1.0000    0     1.008   30.557788   36.562489   29.981384
  27 H     1.0000    0     1.008   30.342782   38.632159   32.606850
  28 H     1.0000    0     1.008   33.828418   38.170185   34.653239
  29 H     1.0000    0     1.008   37.789719   31.902598   36.250637
  30 H     1.0000    0     1.008   34.827862   29.566449   33.521062
  31 H     1.0000    0     1.008   33.978030   25.841089   35.830575
  32 H     1.0000    0     1.008   32.632329   23.618324   39.743722
  33 H     1.0000    0     1.008   31.099798   26.112662   43.441820
  34 H     1.0000    0     1.008   30.370166   29.899449   44.941740
  35 H     1.0000    0     1.008   32.280983   33.015805   39.329063

--------------------------------
INTERNAL COORDINATES (ANGSTROEM)
--------------------------------
 C      0   0   0     0.000000000000     0.00000000     0.00000000
 C      1   0   0     1.541824932590     0.00000000     0.00000000
 O      2   1   0     1.439934975177   109.12657994     0.00000000
 C      3   2   1     1.369845425463   120.50388400    76.60724727
 O      4   3   2     1.219814836957   121.93464649     3.59884637
 C      4   3   2     1.508222990964   112.11782838   182.20702496
 C      6   4   3     1.361821632932   117.55026302   169.45541764
 C      7   6   4     1.515568553580   128.29465854    22.85597958
 N      7   6   4     1.397639151491   120.10901029   201.98873486
 C      9   7   6     1.367315636441   124.60467076    16.54093068
 S     10   9   7     1.653916176275   122.09758053   172.54590337
 N     10   9   7     1.369951085248   116.15959287   353.79549464
 C     12  10   9     1.475408360585   125.09400343   350.24480087
 C     13  12  10     1.524629274968   108.56338267   251.55410713
 C     14  13  12     1.407174642057   120.11510682   239.86384302
 C     15  14  13     1.405115692905   120.61129808   180.13619360
 C     16  15  14     1.405331682241   119.64758467     0.04800552
 C     17  16  15     1.401640646380   119.91030857     0.05841843
 O     18  17  16     1.356894280852   120.03656068   179.83786158
 C     18  17  16     1.398325307281   120.31026220   359.92454934
 H      1   2   3     1.097198035675   111.13229326   295.06897143
 H      1   2   3     1.096712828956   110.35591682   175.48773038
 H      1   2   3     1.096890701671   110.74912722    55.70521698
 H      2   1   3     1.098772496513   110.57477896   122.27453868
 H      2   1   3     1.097509509810   108.95086461   240.85990158
 H      8   7   6     1.097523411418   110.74379598    41.88379306
 H      8   7   6     1.097509329461   110.66881108   282.78731581
 H      8   7   6     1.096323117398   112.87006000   161.85517052
 H      9   7   6     1.007487750882   119.54675328   187.88456295
 H     12  10   9     1.011952244939   114.48863252   181.65984920
 H     13  12  10     1.098922845639   105.52313047   133.09431609
 H     15  14  13     1.086730001701   119.85768195   359.72518082
 H     16  15  14     1.088537913535   120.04081816   179.91998077
 H     17  16  15     1.084980730781   119.92128982   179.93843311
 H     19  18  17     0.968842808939   107.48651819     1.67914100
 H     20  18  17     1.084688286225   119.12395145   180.23997231

---------------------------
INTERNAL COORDINATES (A.U.)
---------------------------
 C      0   0   0     0.000000000000     0.00000000     0.00000000
 C      1   0   0     2.913626869046     0.00000000     0.00000000
 O      2   1   0     2.721082753740   109.12657994     0.00000000
 C      3   2   1     2.588632699930   120.50388400    76.60724727
 O      4   3   2     2.305115975943   121.93464649     3.59884637
 C      4   3   2     2.850128401806   112.11782838   182.20702496
 C      6   4   3     2.573469929492   117.55026302   169.45541764
 C      7   6   4     2.864009503450   128.29465854    22.85597958
 N      7   6   4     2.641155230363   120.10901029   201.98873486
 C      9   7   6     2.583852091503   124.60467076    16.54093068
 S     10   9   7     3.125448621622   122.09758053   172.54590337
 N     10   9   7     2.588832367987   116.15959287   353.79549464
 C     12  10   9     2.788117737204   125.09400343   350.24480087
 C     13  12  10     2.881131785449   108.56338267   251.55410713
 C     14  13  12     2.659174696086   120.11510682   239.86384302
 C     15  14  13     2.655283846065   120.61129808   180.13619360
 C     16  15  14     2.655692006758   119.64758467     0.04800552
 C     17  16  15     2.648716959831   119.91030857     0.05841843
 O     18  17  16     2.564158583494   120.03656068   179.83786158
 C     18  17  16     2.642451876892   120.31026220   359.92454934
 H      1   2   3     2.073403802102   111.13229326   295.06897143
 H      1   2   3     2.072486894285   110.35591682   175.48773038
 H      1   2   3     2.072823025002   110.74912722    55.70521698
 H      2   1   3     2.076379101895   110.57477896   122.27453868
 H      2   1   3     2.073992402914   108.95086461   240.85990158
 H      8   7   6     2.074018673147   110.74379598    41.88379306
 H      8   7   6     2.073992062106   110.66881108   282.78731581
 H      8   7   6     2.071750446169   112.87006000   161.85517052
 H      9   7   6     1.903875932448   119.54675328   187.88456295
 H     12  10   9     1.912312603541   114.48863252   181.65984920
 H     13  12  10     2.076663220568   105.52313047   133.09431609
 H     15  14  13     2.053622084730   119.85768195   359.72518082
 H     16  15  14     2.057038542971   120.04081816   179.91998077
 H     17  16  15     2.050316441758   119.92128982   179.93843311
 H     19  18  17     1.830847575714   107.48651819     1.67914100
 H     20  18  17     2.049763801638   119.12395145   180.23997231

---------------------
BASIS SET INFORMATION
---------------------
There are 5 groups of distinct atoms

 Group   1 Type C   : 18s5p2d1f contracted to 4s3p2d1f pattern {8811/311/11/1}
 Group   2 Type O   : 18s5p2d1f contracted to 4s3p2d1f pattern {8811/311/11/1}
 Group   3 Type N   : 18s5p2d1f contracted to 4s3p2d1f pattern {8811/311/11/1}
 Group   4 Type S   : 41s16p2d1f contracted to 5s4p2d1f pattern {13131311/7711/11/1}
 Group   5 Type H   : 5s2p1d contracted to 3s2p1d pattern {311/11/1}

Atom   0C    basis set group =>   1
Atom   1C    basis set group =>   1
Atom   2O    basis set group =>   2
Atom   3C    basis set group =>   1
Atom   4O    basis set group =>   2
Atom   5C    basis set group =>   1
Atom   6C    basis set group =>   1
Atom   7C    basis set group =>   1
Atom   8N    basis set group =>   3
Atom   9C    basis set group =>   1
Atom  10S    basis set group =>   4
Atom  11N    basis set group =>   3
Atom  12C    basis set group =>   1
Atom  13C    basis set group =>   1
Atom  14C    basis set group =>   1
Atom  15C    basis set group =>   1
Atom  16C    basis set group =>   1
Atom  17C    basis set group =>   1
Atom  18O    basis set group =>   2
Atom  19C    basis set group =>   1
Atom  20H    basis set group =>   5
Atom  21H    basis set group =>   5
Atom  22H    basis set group =>   5
Atom  23H    basis set group =>   5
Atom  24H    basis set group =>   5
Atom  25H    basis set group =>   5
Atom  26H    basis set group =>   5
Atom  27H    basis set group =>   5
Atom  28H    basis set group =>   5
Atom  29H    basis set group =>   5
Atom  30H    basis set group =>   5
Atom  31H    basis set group =>   5
Atom  32H    basis set group =>   5
Atom  33H    basis set group =>   5
Atom  34H    basis set group =>   5
Atom  35H    basis set group =>   5
---------------------------------
AUXILIARY/C BASIS SET INFORMATION
---------------------------------
There are 5 groups of distinct atoms

 Group   1 Type C   : 8s6p5d3f1g contracted to 8s6p5d3f1g pattern {11111111/111111/11111/111/1}
 Group   2 Type O   : 8s6p5d3f1g contracted to 8s6p5d3f1g pattern {11111111/111111/11111/111/1}
 Group   3 Type N   : 8s6p5d3f1g contracted to 8s6p5d3f1g pattern {11111111/111111/11111/111/1}
 Group   4 Type S   : 10s8p7d5f2g contracted to 10s8p7d5f2g pattern {1111111111/11111111/1111111/11111/11}
 Group   5 Type H   : 4s3p2d1f contracted to 4s3p2d1f pattern {1111/111/11/1}

Atom   0C    basis set group =>   1
Atom   1C    basis set group =>   1
Atom   2O    basis set group =>   2
Atom   3C    basis set group =>   1
Atom   4O    basis set group =>   2
Atom   5C    basis set group =>   1
Atom   6C    basis set group =>   1
Atom   7C    basis set group =>   1
Atom   8N    basis set group =>   3
Atom   9C    basis set group =>   1
Atom  10S    basis set group =>   4
Atom  11N    basis set group =>   3
Atom  12C    basis set group =>   1
Atom  13C    basis set group =>   1
Atom  14C    basis set group =>   1
Atom  15C    basis set group =>   1
Atom  16C    basis set group =>   1
Atom  17C    basis set group =>   1
Atom  18O    basis set group =>   2
Atom  19C    basis set group =>   1
Atom  20H    basis set group =>   5
Atom  21H    basis set group =>   5
Atom  22H    basis set group =>   5
Atom  23H    basis set group =>   5
Atom  24H    basis set group =>   5
Atom  25H    basis set group =>   5
Atom  26H    basis set group =>   5
Atom  27H    basis set group =>   5
Atom  28H    basis set group =>   5
Atom  29H    basis set group =>   5
Atom  30H    basis set group =>   5
Atom  31H    basis set group =>   5
Atom  32H    basis set group =>   5
Atom  33H    basis set group =>   5
Atom  34H    basis set group =>   5
Atom  35H    basis set group =>   5
------------------------------------------------------------------------------
                           ORCA GTO INTEGRAL CALCULATION
------------------------------------------------------------------------------

                         BASIS SET STATISTICS AND STARTUP INFO

 # of primitive gaussian shells          ...  682
 # of primitive gaussian functions       ... 1312
 # of contracted shells                  ...  298
 # of contracted basis functions         ...  828
 Highest angular momentum                ...    3
 Maximum contraction depth               ...   13
 Integral package used                   ... LIBINT
 Integral threshhold            Thresh   ...  2.500e-11
 Primitive cut-off              TCut     ...  2.500e-12


------------------------------ INTEGRAL EVALUATION ----------------------------


 * One electron integrals 
 Pre-screening matrix                    ... done
 Shell pair data                         ... done (   0.017 sec)

-------------------------------------------------------------------------------
                                 ORCA SCF
-------------------------------------------------------------------------------

------------
SCF SETTINGS
------------
Hamiltonian:
 Ab initio Hamiltonian  Method          .... Hartree-Fock(GTOs)


General Settings:
 Integral files         IntName         .... G2_CONFS/Conf6.orca
 Hartree-Fock type      HFTyp           .... RHF
 Total Charge           Charge          ....    0
 Multiplicity           Mult            ....    1
 Number of Electrons    NEL             ....  154
 Basis Dimension        Dim             ....  828
 Nuclear Repulsion      ENuc            ....   1686.4470905334 Eh

Convergence Acceleration:
 DIIS                   CNVDIIS         .... on
   Start iteration      DIISMaxIt       ....    12
   Startup error        DIISStart       ....  0.200000
   # of expansion vecs  DIISMaxEq       ....     5
   Bias factor          DIISBfac        ....   1.050
   Max. coefficient     DIISMaxC        ....  10.000
 Newton-Raphson         CNVNR           .... off
 SOSCF                  CNVSOSCF        .... on
   Start iteration      SOSCFMaxIt      ....   150
   Startup grad/error   SOSCFStart      ....  0.003300
 Level Shifting         CNVShift        .... on
   Level shift para.    LevelShift      ....    0.2500
   Turn off err/grad.   ShiftErr        ....    0.0010
 Zerner damping         CNVZerner       .... off
 Static damping         CNVDamp         .... on
   Fraction old density DampFac         ....    0.7000
   Max. Damping (<1)    DampMax         ....    0.9800
   Min. Damping (>=0)   DampMin         ....    0.0000
   Turn off err/grad.   DampErr         ....    0.1000
 Fernandez-Rico         CNVRico         .... off

SCF Procedure:
 Maximum # iterations   MaxIter         ....   125
 SCF integral mode      SCFMode         .... Direct
   Integral package                     .... LIBINT
 Reset frequency        DirectResetFreq ....    20
 Integral Threshold     Thresh          ....  2.500e-11 Eh
 Primitive CutOff       TCut            ....  2.500e-12 Eh

Convergence Tolerance:
 Convergence Check Mode ConvCheckMode   .... Total+1el-Energy
 Convergence forced     ConvForced      .... 1
 Energy Change          TolE            ....  1.000e-08 Eh
 1-El. energy change                    ....  1.000e-05 Eh
 Orbital Gradient       TolG            ....  1.000e-05
 Orbital Rotation angle TolX            ....  1.000e-05
 DIIS Error             TolErr          ....  5.000e-07


Diagonalization of the overlap matrix:
Smallest eigenvalue                        ... 3.482e-05
Time for diagonalization                   ...    0.174 sec
Threshold for overlap eigenvalues          ... 1.000e-08
Number of eigenvalues below threshold      ... 0
Time for construction of square roots      ...    0.140 sec
Total time needed                          ...    0.317 sec

-------------------
DFT GRID GENERATION
-------------------

General Integration Accuracy     IntAcc      ...  4.340
Radial Grid Type                 RadialGrid  ... Gauss-Chebyshev
Angular Grid (max. acc.)         AngularGrid ... Lebedev-110
Angular grid pruning method      GridPruning ... 3 (G Style)
Weight generation scheme         WeightScheme... Becke
Basis function cutoff            BFCut       ...    1.0000e-11
Integration weight cutoff        WCut        ...    1.0000e-14
Grids for H and He will be reduced by one unit

# of grid points (after initial pruning)     ...  46246 (   0.0 sec)
# of grid points (after weights+screening)   ...  41382 (   0.5 sec)
nearest neighbour list constructed           ...    0.0 sec
Grid point re-assignment to atoms done       ...    0.0 sec
Grid point division into batches done        ...    0.0 sec
Reduced shell lists constructed in    1.5 sec

Total number of grid points                  ...    41382
Total number of batches                      ...      666
Average number of points per batch           ...       62
Average number of grid points per atom       ...     1150
Average number of shells per batch           ...   143.93 (48.30%)
Average number of basis functions per batch  ...   365.73 (44.17%)
Average number of large shells per batch     ...    92.01 (63.92%)
Average number of large basis fcns per batch ...   237.79 (65.02%)
Maximum spatial batch extension              ...  23.18, 20.30, 20.43 au
Average spatial batch extension              ...   3.71,  3.33,  3.43 au

Time for grid setup =    2.042 sec

------------------------------
INITIAL GUESS: MODEL POTENTIAL
------------------------------
Loading Hartree-Fock densities                     ... done
Calculating cut-offs                               ... done
Setting up the integral package                    ... done
Initializing the effective Hamiltonian             ... done
Starting the Coulomb interaction                   ... done (   4.8 sec)
Reading the grid                                   ... done
Mapping shells                                     ... done
Starting the XC term evaluation                    ... done (   1.5 sec)
Transforming the Hamiltonian                       ... done (   0.1 sec)
Diagonalizing the Hamiltonian                      ... done (   0.2 sec)
Back transforming the eigenvectors                 ... done (   0.0 sec)
Now organizing SCF variables                       ... done
                      ------------------
                      INITIAL GUESS DONE (   9.1 sec)
                      ------------------
--------------
SCF ITERATIONS
--------------
ITER       Energy         Delta-E        Max-DP      RMS-DP      [F,P]     Damp
               ***  Starting incremental Fock matrix formation  ***
  0  -1270.0139637825   0.000000000000 0.04933040  0.00042244  0.3071553 0.7000
  1  -1270.2815310696  -0.267567287047 0.03608804  0.00033925  0.1812484 0.7000
                               ***Turning on DIIS***
  2  -1270.4484479582  -0.166916888618 0.02584061  0.00023022  0.1096333 0.7000
  3  -1272.5765896883  -2.128141730157 0.06313642  0.00050592  0.0828865 0.0000
  4  -1270.7569506743   1.819639014078 0.00681912  0.00008892  0.0076761 0.0000
  5  -1270.8176202332  -0.060669558941 0.00255708  0.00004708  0.0046606 0.0000
                      *** Initiating the SOSCF procedure ***
                           *** Shutting down DIIS ***
                      *** Re-Reading the Fockian *** 
                      *** Removing any level shift *** 
ITER      Energy       Delta-E        Grad      Rot      Max-DP    RMS-DP
  6  -1270.79659669   0.0210235396  0.001420  0.001420  0.001602  0.000024
               *** Restarting incremental Fock matrix formation ***
  7  -1270.81100950  -0.0144128098  0.000684  0.001627  0.001266  0.000014
  8  -1270.81105089  -0.0000413825  0.000364  0.001719  0.001346  0.000014
  9  -1270.81106578  -0.0000148967  0.000156  0.000265  0.000337  0.000004
 10  -1270.81106755  -0.0000017712  0.000046  0.000121  0.000103  0.000001
 11  -1270.81106771  -0.0000001579  0.000019  0.000087  0.000056  0.000001
 12  -1270.81106776  -0.0000000507  0.000008  0.000033  0.000031  0.000000
                  ***Gradient check signals convergence***
              ***Rediagonalizing the Fockian in SOSCF/NRSCF***

               *****************************************************
               *                     SUCCESS                       *
               *           SCF CONVERGED AFTER  13 CYCLES          *
               *****************************************************


----------------
TOTAL SCF ENERGY
----------------

Total Energy       :        -1270.81106776 Eh          -34580.52719 eV

Components:
Nuclear Repulsion  :         1686.44709053 Eh           45890.55836 eV
Electronic Energy  :        -2957.25815830 Eh          -80471.08556 eV
One Electron Energy:        -5094.22924710 Eh         -138621.02517 eV
Two Electron Energy:         2136.97108881 Eh           58149.93961 eV

Virial components:
Potential Energy   :        -2539.75726965 Eh          -69110.30881 eV
Kinetic Energy     :         1268.94620189 Eh           34529.78161 eV
Virial Ratio       :            2.00146962


---------------
SCF CONVERGENCE
---------------

  Last Energy change         ...   -1.1910e-09  Tolerance :   1.0000e-08
  Last MAX-Density change    ...    6.8448e-06  Tolerance :   1.0000e-07
  Last RMS-Density change    ...    1.0003e-07  Tolerance :   5.0000e-09
  Last Orbital Gradient      ...    2.4364e-06  Tolerance :   1.0000e-05
  Last Orbital Rotation      ...    1.0940e-05  Tolerance :   1.0000e-05

             **** THE GBW FILE WAS UPDATED (G2_CONFS/Conf6.orca.gbw) ****
             **** DENSITY FILE WAS UPDATED (G2_CONFS/Conf6.orca.scfp) ****
             **** ENERGY FILE WAS UPDATED (G2_CONFS/Conf6.orca.en.tmp) ****
             **** THE GBW FILE WAS UPDATED (G2_CONFS/Conf6.orca.gbw) ****
             **** DENSITY FILE WAS UPDATED (G2_CONFS/Conf6.orca.scfp) ****
----------------
ORBITAL ENERGIES
----------------

  NO   OCC          E(Eh)            E(eV) 
   0   2.0000     -91.889632     -2500.4440 
   1   2.0000     -20.602207      -560.6145 
   2   2.0000     -20.593476      -560.3770 
   3   2.0000     -20.541892      -558.9733 
   4   2.0000     -15.630299      -425.3221 
   5   2.0000     -15.606987      -424.6877 
   6   2.0000     -11.396271      -310.1083 
   7   2.0000     -11.383624      -309.7642 
   8   2.0000     -11.340395      -308.5878 
   9   2.0000     -11.310432      -307.7725 
  10   2.0000     -11.308613      -307.7230 
  11   2.0000     -11.299201      -307.4669 
  12   2.0000     -11.259121      -306.3763 
  13   2.0000     -11.256593      -306.3075 
  14   2.0000     -11.253279      -306.2173 
  15   2.0000     -11.251630      -306.1724 
  16   2.0000     -11.239538      -305.8434 
  17   2.0000     -11.235228      -305.7261 
  18   2.0000     -11.234514      -305.7067 
  19   2.0000     -11.227069      -305.5041 
  20   2.0000      -8.894672      -242.0363 
  21   2.0000      -6.576242      -178.9486 
  22   2.0000      -6.574243      -178.8942 
  23   2.0000      -6.573649      -178.8781 
  24   2.0000      -1.451813       -39.5058 
  25   2.0000      -1.413101       -38.4524 
  26   2.0000      -1.355065       -36.8732 
  27   2.0000      -1.342412       -36.5289 
  28   2.0000      -1.239489       -33.7282 
  29   2.0000      -1.154689       -31.4207 
  30   2.0000      -1.121114       -30.5071 
  31   2.0000      -1.041125       -28.3305 
  32   2.0000      -1.037864       -28.2417 
  33   2.0000      -1.011693       -27.5296 
  34   2.0000      -0.996437       -27.1144 
  35   2.0000      -0.984288       -26.7838 
  36   2.0000      -0.922101       -25.0916 
  37   2.0000      -0.895308       -24.3626 
  38   2.0000      -0.847802       -23.0699 
  39   2.0000      -0.835758       -22.7421 
  40   2.0000      -0.831007       -22.6129 
  41   2.0000      -0.815441       -22.1893 
  42   2.0000      -0.757454       -20.6114 
  43   2.0000      -0.729022       -19.8377 
  44   2.0000      -0.721916       -19.6443 
  45   2.0000      -0.695390       -18.9225 
  46   2.0000      -0.688779       -18.7426 
  47   2.0000      -0.680590       -18.5198 
  48   2.0000      -0.669462       -18.2170 
  49   2.0000      -0.656616       -17.8674 
  50   2.0000      -0.645790       -17.5728 
  51   2.0000      -0.643740       -17.5170 
  52   2.0000      -0.629994       -17.1430 
  53   2.0000      -0.610862       -16.6224 
  54   2.0000      -0.603091       -16.4109 
  55   2.0000      -0.600175       -16.3316 
  56   2.0000      -0.596239       -16.2245 
  57   2.0000      -0.578269       -15.7355 
  58   2.0000      -0.571841       -15.5606 
  59   2.0000      -0.569372       -15.4934 
  60   2.0000      -0.561102       -15.2684 
  61   2.0000      -0.543341       -14.7851 
  62   2.0000      -0.537832       -14.6352 
  63   2.0000      -0.530744       -14.4423 
  64   2.0000      -0.521204       -14.1827 
  65   2.0000      -0.513061       -13.9611 
  66   2.0000      -0.500060       -13.6073 
  67   2.0000      -0.496736       -13.5169 
  68   2.0000      -0.482991       -13.1428 
  69   2.0000      -0.462060       -12.5733 
  70   2.0000      -0.456879       -12.4323 
  71   2.0000      -0.446454       -12.1486 
  72   2.0000      -0.357452        -9.7268 
  73   2.0000      -0.345944        -9.4136 
  74   2.0000      -0.328560        -8.9406 
  75   2.0000      -0.319147        -8.6844 
  76   2.0000      -0.316105        -8.6016 
  77   0.0000       0.074771         2.0346 
  78   0.0000       0.110396         3.0040 
  79   0.0000       0.123309         3.3554 
  80   0.0000       0.133388         3.6297 
  81   0.0000       0.136768         3.7216 
  82   0.0000       0.142504         3.8777 
  83   0.0000       0.156167         4.2495 
  84   0.0000       0.156565         4.2603 
  85   0.0000       0.163376         4.4457 
  86   0.0000       0.173947         4.7333 
  87   0.0000       0.180091         4.9005 
  88   0.0000       0.182163         4.9569 
  89   0.0000       0.195576         5.3219 
  90   0.0000       0.201349         5.4790 
  91   0.0000       0.207189         5.6379 
  92   0.0000       0.214377         5.8335 
  93   0.0000       0.222256         6.0479 
  94   0.0000       0.228470         6.2170 
  95   0.0000       0.234115         6.3706 
  96   0.0000       0.243715         6.6318 
  97   0.0000       0.246268         6.7013 
  98   0.0000       0.267270         7.2728 
  99   0.0000       0.273683         7.4473 
 100   0.0000       0.292592         7.9618 
 101   0.0000       0.302110         8.2208 
 102   0.0000       0.308709         8.4004 
 103   0.0000       0.315885         8.5957 
 104   0.0000       0.318481         8.6663 
 105   0.0000       0.329862         8.9760 
 106   0.0000       0.343982         9.3602 
 107   0.0000       0.350691         9.5428 
 108   0.0000       0.360900         9.8206 
 109   0.0000       0.367417         9.9979 
 110   0.0000       0.370744        10.0884 
 111   0.0000       0.372935        10.1481 
 112   0.0000       0.385608        10.4929 
 113   0.0000       0.386073        10.5056 
 114   0.0000       0.400079        10.8867 
 115   0.0000       0.403558        10.9814 
 116   0.0000       0.412042        11.2122 
 117   0.0000       0.428852        11.6697 
 118   0.0000       0.432480        11.7684 
 119   0.0000       0.434585        11.8256 
 120   0.0000       0.445546        12.1239 
 121   0.0000       0.454614        12.3707 
 122   0.0000       0.458957        12.4889 
 123   0.0000       0.459928        12.5153 
 124   0.0000       0.463798        12.6206 
 125   0.0000       0.470083        12.7916 
 126   0.0000       0.481013        13.0890 
 127   0.0000       0.483981        13.1698 
 128   0.0000       0.484950        13.1962 
 129   0.0000       0.497503        13.5377 
 130   0.0000       0.502463        13.6727 
 131   0.0000       0.509283        13.8583 
 132   0.0000       0.513093        13.9620 
 133   0.0000       0.515836        14.0366 
 134   0.0000       0.525471        14.2988 
 135   0.0000       0.528913        14.3924 
 136   0.0000       0.536349        14.5948 
 137   0.0000       0.538792        14.6613 
 138   0.0000       0.543930        14.8011 
 139   0.0000       0.546240        14.8639 
 140   0.0000       0.548804        14.9337 
 141   0.0000       0.562330        15.3018 
 142   0.0000       0.567090        15.4313 
 143   0.0000       0.567916        15.4538 
 144   0.0000       0.573738        15.6122 
 145   0.0000       0.576508        15.6876 
 146   0.0000       0.583444        15.8763 
 147   0.0000       0.587416        15.9844 
 148   0.0000       0.592454        16.1215 
 149   0.0000       0.595223        16.1968 
 150   0.0000       0.600545        16.3417 
 151   0.0000       0.605484        16.4761 
 152   0.0000       0.611327        16.6351 
 153   0.0000       0.614060        16.7094 
 154   0.0000       0.618789        16.8381 
 155   0.0000       0.621930        16.9236 
 156   0.0000       0.623949        16.9785 
 157   0.0000       0.628987        17.1156 
 158   0.0000       0.632239        17.2041 
 159   0.0000       0.639811        17.4101 
 160   0.0000       0.643577        17.5126 
 161   0.0000       0.648773        17.6540 
 162   0.0000       0.654928        17.8215 
 163   0.0000       0.659930        17.9576 
 164   0.0000       0.660578        17.9752 
 165   0.0000       0.663334        18.0502 
 166   0.0000       0.673178        18.3181 
 167   0.0000       0.677699        18.4411 
 168   0.0000       0.688973        18.7479 
 169   0.0000       0.692720        18.8499 
 170   0.0000       0.696092        18.9416 
 171   0.0000       0.705906        19.2087 
 172   0.0000       0.709335        19.3020 
 173   0.0000       0.719119        19.5682 
 174   0.0000       0.728950        19.8357 
 175   0.0000       0.732479        19.9318 
 176   0.0000       0.740317        20.1450 
 177   0.0000       0.744803        20.2671 
 178   0.0000       0.745806        20.2944 
 179   0.0000       0.756860        20.5952 
 180   0.0000       0.762722        20.7547 
 181   0.0000       0.768529        20.9127 
 182   0.0000       0.774336        21.0708 
 183   0.0000       0.775727        21.1086 
 184   0.0000       0.783084        21.3088 
 185   0.0000       0.800531        21.7835 
 186   0.0000       0.807427        21.9712 
 187   0.0000       0.817462        22.2443 
 188   0.0000       0.823919        22.4200 
 189   0.0000       0.831556        22.6278 
 190   0.0000       0.840822        22.8799 
 191   0.0000       0.843986        22.9660 
 192   0.0000       0.861341        23.4383 
 193   0.0000       0.868216        23.6254 
 194   0.0000       0.870684        23.6925 
 195   0.0000       0.876383        23.8476 
 196   0.0000       0.882733        24.0204 
 197   0.0000       0.888989        24.1906 
 198   0.0000       0.895697        24.3732 
 199   0.0000       0.898834        24.4585 
 200   0.0000       0.905195        24.6316 
 201   0.0000       0.914644        24.8887 
 202   0.0000       0.926551        25.2127 
 203   0.0000       0.929343        25.2887 
 204   0.0000       0.938535        25.5388 
 205   0.0000       0.944943        25.7132 
 206   0.0000       0.947656        25.7870 
 207   0.0000       0.965519        26.2731 
 208   0.0000       0.970576        26.4107 
 209   0.0000       0.976677        26.5767 
 210   0.0000       0.982312        26.7301 
 211   0.0000       0.992667        27.0118 
 212   0.0000       1.001539        27.2533 
 213   0.0000       1.006735        27.3947 
 214   0.0000       1.009746        27.4766 
 215   0.0000       1.013169        27.5697 
 216   0.0000       1.023325        27.8461 
 217   0.0000       1.027735        27.9661 
 218   0.0000       1.035163        28.1682 
 219   0.0000       1.047390        28.5009 
 220   0.0000       1.054321        28.6895 
 221   0.0000       1.058882        28.8136 
 222   0.0000       1.064445        28.9650 
 223   0.0000       1.076702        29.2986 
 224   0.0000       1.078609        29.3504 
 225   0.0000       1.094838        29.7920 
 226   0.0000       1.096502        29.8373 
 227   0.0000       1.105935        30.0940 
 228   0.0000       1.113756        30.3068 
 229   0.0000       1.125749        30.6332 
 230   0.0000       1.130478        30.7619 
 231   0.0000       1.138032        30.9674 
 232   0.0000       1.140912        31.0458 
 233   0.0000       1.146206        31.1899 
 234   0.0000       1.156962        31.4825 
 235   0.0000       1.162133        31.6232 
 236   0.0000       1.171635        31.8818 
 237   0.0000       1.176161        32.0050 
 238   0.0000       1.185999        32.2727 
 239   0.0000       1.189795        32.3760 
 240   0.0000       1.194433        32.5022 
 241   0.0000       1.201968        32.7072 
 242   0.0000       1.202719        32.7276 
 243   0.0000       1.211364        32.9629 
 244   0.0000       1.219027        33.1714 
 245   0.0000       1.220232        33.2042 
 246   0.0000       1.232440        33.5364 
 247   0.0000       1.235976        33.6326 
 248   0.0000       1.246417        33.9167 
 249   0.0000       1.251220        34.0474 
 250   0.0000       1.260305        34.2946 
 251   0.0000       1.267385        34.4873 
 252   0.0000       1.275746        34.7148 
 253   0.0000       1.281730        34.8777 
 254   0.0000       1.290405        35.1137 
 255   0.0000       1.298202        35.3259 
 256   0.0000       1.303964        35.4827 
 257   0.0000       1.315389        35.7936 
 258   0.0000       1.320857        35.9423 
 259   0.0000       1.329967        36.1903 
 260   0.0000       1.335226        36.3333 
 261   0.0000       1.341087        36.4928 
 262   0.0000       1.347088        36.6561 
 263   0.0000       1.363119        37.0924 
 264   0.0000       1.374053        37.3899 
 265   0.0000       1.377064        37.4718 
 266   0.0000       1.383921        37.6584 
 267   0.0000       1.391451        37.8633 
 268   0.0000       1.400609        38.1125 
 269   0.0000       1.409900        38.3653 
 270   0.0000       1.420098        38.6428 
 271   0.0000       1.423931        38.7471 
 272   0.0000       1.429135        38.8887 
 273   0.0000       1.445846        39.3435 
 274   0.0000       1.450406        39.4676 
 275   0.0000       1.452191        39.5161 
 276   0.0000       1.466931        39.9172 
 277   0.0000       1.472345        40.0646 
 278   0.0000       1.479859        40.2690 
 279   0.0000       1.490295        40.5530 
 280   0.0000       1.491600        40.5885 
 281   0.0000       1.498203        40.7682 
 282   0.0000       1.501808        40.8663 
 283   0.0000       1.509860        41.0854 
 284   0.0000       1.515129        41.2288 
 285   0.0000       1.521323        41.3973 
 286   0.0000       1.527666        41.5699 
 287   0.0000       1.535702        41.7886 
 288   0.0000       1.547071        42.0979 
 289   0.0000       1.552426        42.2436 
 290   0.0000       1.554750        42.3069 
 291   0.0000       1.562646        42.5218 
 292   0.0000       1.571607        42.7656 
 293   0.0000       1.583991        43.1026 
 294   0.0000       1.588008        43.2119 
 295   0.0000       1.591692        43.3121 
 296   0.0000       1.604577        43.6628 
 297   0.0000       1.609224        43.7892 
 298   0.0000       1.616073        43.9756 
 299   0.0000       1.629242        44.3339 
 300   0.0000       1.634333        44.4725 
 301   0.0000       1.645483        44.7759 
 302   0.0000       1.646858        44.8133 
 303   0.0000       1.653470        44.9932 
 304   0.0000       1.657598        45.1055 
 305   0.0000       1.664481        45.2928 
 306   0.0000       1.676060        45.6079 
 307   0.0000       1.693671        46.0871 
 308   0.0000       1.708407        46.4881 
 309   0.0000       1.715171        46.6722 
 310   0.0000       1.722825        46.8804 
 311   0.0000       1.724554        46.9275 
 312   0.0000       1.735033        47.2127 
 313   0.0000       1.747761        47.5590 
 314   0.0000       1.754280        47.7364 
 315   0.0000       1.758598        47.8539 
 316   0.0000       1.770359        48.1739 
 317   0.0000       1.778626        48.3989 
 318   0.0000       1.796416        48.8830 
 319   0.0000       1.801818        49.0300 
 320   0.0000       1.806295        49.1518 
 321   0.0000       1.817226        49.4492 
 322   0.0000       1.835103        49.9357 
 323   0.0000       1.845108        50.2080 
 324   0.0000       1.848760        50.3073 
 325   0.0000       1.862254        50.6745 
 326   0.0000       1.870137        50.8890 
 327   0.0000       1.888993        51.4021 
 328   0.0000       1.899906        51.6991 
 329   0.0000       1.908175        51.9241 
 330   0.0000       1.913427        52.0670 
 331   0.0000       1.919485        52.2318 
 332   0.0000       1.938210        52.7414 
 333   0.0000       1.945528        52.9405 
 334   0.0000       1.949723        53.0547 
 335   0.0000       1.952674        53.1350 
 336   0.0000       1.967203        53.5303 
 337   0.0000       1.994418        54.2709 
 338   0.0000       2.003484        54.5176 
 339   0.0000       2.012512        54.7632 
 340   0.0000       2.022123        55.0248 
 341   0.0000       2.026813        55.1524 
 342   0.0000       2.033527        55.3351 
 343   0.0000       2.073823        56.4316 
 344   0.0000       2.087778        56.8113 
 345   0.0000       2.120200        57.6936 
 346   0.0000       2.122870        57.7662 
 347   0.0000       2.127821        57.9009 
 348   0.0000       2.137087        58.1531 
 349   0.0000       2.159032        58.7502 
 350   0.0000       2.165377        58.9229 
 351   0.0000       2.201561        59.9075 
 352   0.0000       2.208144        60.0866 
 353   0.0000       2.216870        60.3241 
 354   0.0000       2.227431        60.6115 
 355   0.0000       2.257218        61.4220 
 356   0.0000       2.266361        61.6708 
 357   0.0000       2.278958        62.0136 
 358   0.0000       2.287705        62.2516 
 359   0.0000       2.298123        62.5351 
 360   0.0000       2.314824        62.9896 
 361   0.0000       2.328526        63.3624 
 362   0.0000       2.331824        63.4522 
 363   0.0000       2.348940        63.9179 
 364   0.0000       2.356607        64.1265 
 365   0.0000       2.372089        64.5478 
 366   0.0000       2.382664        64.8356 
 367   0.0000       2.394188        65.1492 
 368   0.0000       2.414713        65.7077 
 369   0.0000       2.422974        65.9325 
 370   0.0000       2.427687        66.0607 
 371   0.0000       2.459283        66.9205 
 372   0.0000       2.472226        67.2727 
 373   0.0000       2.476215        67.3812 
 374   0.0000       2.488329        67.7109 
 375   0.0000       2.494140        67.8690 
 376   0.0000       2.515678        68.4551 
 377   0.0000       2.522320        68.6358 
 378   0.0000       2.545603        69.2694 
 379   0.0000       2.547359        69.3172 
 380   0.0000       2.560890        69.6853 
 381   0.0000       2.573448        70.0271 
 382   0.0000       2.584914        70.3391 
 383   0.0000       2.597376        70.6782 
 384   0.0000       2.602011        70.8043 
 385   0.0000       2.618923        71.2645 
 386   0.0000       2.633102        71.6503 
 387   0.0000       2.643599        71.9360 
 388   0.0000       2.655381        72.2566 
 389   0.0000       2.656087        72.2758 
 390   0.0000       2.668131        72.6035 
 391   0.0000       2.688038        73.1452 
 392   0.0000       2.702585        73.5411 
 393   0.0000       2.706358        73.6437 
 394   0.0000       2.715425        73.8905 
 395   0.0000       2.730748        74.3074 
 396   0.0000       2.735859        74.4465 
 397   0.0000       2.746326        74.7313 
 398   0.0000       2.757353        75.0314 
 399   0.0000       2.761307        75.1390 
 400   0.0000       2.767795        75.3155 
 401   0.0000       2.779388        75.6310 
 402   0.0000       2.791498        75.9605 
 403   0.0000       2.804703        76.3199 
 404   0.0000       2.815092        76.6026 
 405   0.0000       2.822870        76.8142 
 406   0.0000       2.833567        77.1053 
 407   0.0000       2.838511        77.2398 
 408   0.0000       2.850366        77.5624 
 409   0.0000       2.862596        77.8952 
 410   0.0000       2.868315        78.0508 
 411   0.0000       2.872686        78.1698 
 412   0.0000       2.882666        78.4413 
 413   0.0000       2.906015        79.0767 
 414   0.0000       2.914596        79.3102 
 415   0.0000       2.916813        79.3705 
 416   0.0000       2.926892        79.6448 
 417   0.0000       2.935083        79.8677 
 418   0.0000       2.945665        80.1556 
 419   0.0000       2.948929        80.2444 
 420   0.0000       2.962800        80.6219 
 421   0.0000       2.965093        80.6843 
 422   0.0000       2.982575        81.1600 
 423   0.0000       2.985863        81.2495 
 424   0.0000       3.000011        81.6345 
 425   0.0000       3.006720        81.8170 
 426   0.0000       3.015644        82.0598 
 427   0.0000       3.029356        82.4330 
 428   0.0000       3.036673        82.6321 
 429   0.0000       3.043346        82.8137 
 430   0.0000       3.050653        83.0125 
 431   0.0000       3.061972        83.3205 
 432   0.0000       3.065286        83.4107 
 433   0.0000       3.076129        83.7057 
 434   0.0000       3.078554        83.7717 
 435   0.0000       3.084248        83.9266 
 436   0.0000       3.086611        83.9910 
 437   0.0000       3.090284        84.0909 
 438   0.0000       3.099946        84.3538 
 439   0.0000       3.110506        84.6412 
 440   0.0000       3.112895        84.7062 
 441   0.0000       3.122812        84.9760 
 442   0.0000       3.126399        85.0736 
 443   0.0000       3.130053        85.1731 
 444   0.0000       3.141305        85.4792 
 445   0.0000       3.145907        85.6045 
 446   0.0000       3.153699        85.8165 
 447   0.0000       3.158140        85.9374 
 448   0.0000       3.176323        86.4321 
 449   0.0000       3.181015        86.5598 
 450   0.0000       3.189432        86.7889 
 451   0.0000       3.202314        87.1394 
 452   0.0000       3.209877        87.3452 
 453   0.0000       3.214984        87.4842 
 454   0.0000       3.219759        87.6141 
 455   0.0000       3.235401        88.0397 
 456   0.0000       3.244296        88.2818 
 457   0.0000       3.245615        88.3177 
 458   0.0000       3.253807        88.5406 
 459   0.0000       3.255024        88.5737 
 460   0.0000       3.265303        88.8534 
 461   0.0000       3.273611        89.0795 
 462   0.0000       3.281112        89.2836 
 463   0.0000       3.284179        89.3671 
 464   0.0000       3.294066        89.6361 
 465   0.0000       3.298649        89.7608 
 466   0.0000       3.304383        89.9168 
 467   0.0000       3.315297        90.2138 
 468   0.0000       3.324937        90.4761 
 469   0.0000       3.329521        90.6009 
 470   0.0000       3.340960        90.9121 
 471   0.0000       3.343649        90.9853 
 472   0.0000       3.351666        91.2035 
 473   0.0000       3.355224        91.3003 
 474   0.0000       3.358784        91.3972 
 475   0.0000       3.362055        91.4862 
 476   0.0000       3.372403        91.7678 
 477   0.0000       3.372702        91.7759 
 478   0.0000       3.390328        92.2555 
 479   0.0000       3.394254        92.3623 
 480   0.0000       3.397793        92.4587 
 481   0.0000       3.407035        92.7101 
 482   0.0000       3.408816        92.7586 
 483   0.0000       3.413117        92.8756 
 484   0.0000       3.413666        92.8906 
 485   0.0000       3.417192        92.9865 
 486   0.0000       3.419427        93.0473 
 487   0.0000       3.426546        93.2410 
 488   0.0000       3.434114        93.4470 
 489   0.0000       3.436328        93.5072 
 490   0.0000       3.445235        93.7496 
 491   0.0000       3.451011        93.9068 
 492   0.0000       3.455144        94.0192 
 493   0.0000       3.465907        94.3121 
 494   0.0000       3.470594        94.4397 
 495   0.0000       3.476933        94.6121 
 496   0.0000       3.484032        94.8053 
 497   0.0000       3.493234        95.0557 
 498   0.0000       3.507173        95.4350 
 499   0.0000       3.512380        95.5767 
 500   0.0000       3.516422        95.6867 
 501   0.0000       3.521872        95.8350 
 502   0.0000       3.531432        96.0952 
 503   0.0000       3.541547        96.3704 
 504   0.0000       3.543259        96.4170 
 505   0.0000       3.546632        96.5088 
 506   0.0000       3.549333        96.5823 
 507   0.0000       3.567522        97.0772 
 508   0.0000       3.571235        97.1782 
 509   0.0000       3.579599        97.4058 
 510   0.0000       3.589271        97.6690 
 511   0.0000       3.598505        97.9203 
 512   0.0000       3.607308        98.1598 
 513   0.0000       3.619682        98.4966 
 514   0.0000       3.622150        98.5637 
 515   0.0000       3.625311        98.6497 
 516   0.0000       3.628820        98.7452 
 517   0.0000       3.634197        98.8915 
 518   0.0000       3.642501        99.1175 
 519   0.0000       3.645264        99.1927 
 520   0.0000       3.656136        99.4885 
 521   0.0000       3.659111        99.5695 
 522   0.0000       3.662415        99.6594 
 523   0.0000       3.672730        99.9401 
 524   0.0000       3.674561        99.9899 
 525   0.0000       3.681257       100.1721 
 526   0.0000       3.682493       100.2057 
 527   0.0000       3.693979       100.5183 
 528   0.0000       3.703020       100.7643 
 529   0.0000       3.712990       101.0356 
 530   0.0000       3.716864       101.1410 
 531   0.0000       3.723793       101.3295 
 532   0.0000       3.728362       101.4539 
 533   0.0000       3.734178       101.6121 
 534   0.0000       3.744413       101.8907 
 535   0.0000       3.751622       102.0868 
 536   0.0000       3.753256       102.1313 
 537   0.0000       3.764422       102.4351 
 538   0.0000       3.766503       102.4917 
 539   0.0000       3.776432       102.7620 
 540   0.0000       3.781923       102.9114 
 541   0.0000       3.786662       103.0403 
 542   0.0000       3.796538       103.3091 
 543   0.0000       3.799054       103.3775 
 544   0.0000       3.811334       103.7117 
 545   0.0000       3.814392       103.7949 
 546   0.0000       3.819085       103.9226 
 547   0.0000       3.827116       104.1411 
 548   0.0000       3.829955       104.2184 
 549   0.0000       3.841508       104.5328 
 550   0.0000       3.846880       104.6789 
 551   0.0000       3.849819       104.7589 
 552   0.0000       3.874537       105.4315 
 553   0.0000       3.875241       105.4507 
 554   0.0000       3.885040       105.7173 
 555   0.0000       3.894230       105.9674 
 556   0.0000       3.900139       106.1282 
 557   0.0000       3.915898       106.5570 
 558   0.0000       3.920427       106.6802 
 559   0.0000       3.930495       106.9542 
 560   0.0000       3.932859       107.0185 
 561   0.0000       3.934892       107.0738 
 562   0.0000       3.964849       107.8890 
 563   0.0000       3.967718       107.9671 
 564   0.0000       3.975263       108.1724 
 565   0.0000       3.985038       108.4384 
 566   0.0000       3.994891       108.7065 
 567   0.0000       4.006361       109.0186 
 568   0.0000       4.010099       109.1203 
 569   0.0000       4.021507       109.4308 
 570   0.0000       4.024096       109.5012 
 571   0.0000       4.033588       109.7595 
 572   0.0000       4.041411       109.9724 
 573   0.0000       4.058444       110.4359 
 574   0.0000       4.062475       110.5456 
 575   0.0000       4.066972       110.6679 
 576   0.0000       4.073146       110.8359 
 577   0.0000       4.085139       111.1623 
 578   0.0000       4.097687       111.5037 
 579   0.0000       4.099069       111.5413 
 580   0.0000       4.110990       111.8657 
 581   0.0000       4.121223       112.1442 
 582   0.0000       4.125600       112.2633 
 583   0.0000       4.136129       112.5498 
 584   0.0000       4.139299       112.6361 
 585   0.0000       4.143301       112.7449 
 586   0.0000       4.153327       113.0178 
 587   0.0000       4.157151       113.1218 
 588   0.0000       4.171411       113.5099 
 589   0.0000       4.175534       113.6220 
 590   0.0000       4.176275       113.6422 
 591   0.0000       4.184460       113.8649 
 592   0.0000       4.187833       113.9567 
 593   0.0000       4.193624       114.1143 
 594   0.0000       4.204080       114.3988 
 595   0.0000       4.209448       114.5449 
 596   0.0000       4.214433       114.6806 
 597   0.0000       4.221541       114.8740 
 598   0.0000       4.229687       115.0956 
 599   0.0000       4.237962       115.3208 
 600   0.0000       4.243936       115.4834 
 601   0.0000       4.259720       115.9129 
 602   0.0000       4.264727       116.0491 
 603   0.0000       4.271593       116.2360 
 604   0.0000       4.277222       116.3891 
 605   0.0000       4.298974       116.9810 
 606   0.0000       4.301815       117.0583 
 607   0.0000       4.308196       117.2320 
 608   0.0000       4.320609       117.5698 
 609   0.0000       4.326213       117.7222 
 610   0.0000       4.339145       118.0741 
 611   0.0000       4.344018       118.2067 
 612   0.0000       4.348442       118.3271 
 613   0.0000       4.350515       118.3835 
 614   0.0000       4.360790       118.6631 
 615   0.0000       4.364140       118.7543 
 616   0.0000       4.367026       118.8328 
 617   0.0000       4.382735       119.2603 
 618   0.0000       4.386279       119.3567 
 619   0.0000       4.392783       119.5337 
 620   0.0000       4.403457       119.8241 
 621   0.0000       4.425275       120.4179 
 622   0.0000       4.433882       120.6521 
 623   0.0000       4.434929       120.6805 
 624   0.0000       4.438708       120.7834 
 625   0.0000       4.446825       121.0042 
 626   0.0000       4.460461       121.3753 
 627   0.0000       4.465978       121.5254 
 628   0.0000       4.470626       121.6519 
 629   0.0000       4.480192       121.9122 
 630   0.0000       4.498789       122.4183 
 631   0.0000       4.502791       122.5272 
 632   0.0000       4.509533       122.7106 
 633   0.0000       4.523497       123.0906 
 634   0.0000       4.535394       123.4143 
 635   0.0000       4.547092       123.7327 
 636   0.0000       4.551925       123.8642 
 637   0.0000       4.552975       123.8928 
 638   0.0000       4.562514       124.1523 
 639   0.0000       4.574870       124.4885 
 640   0.0000       4.588056       124.8474 
 641   0.0000       4.595582       125.0521 
 642   0.0000       4.597069       125.0926 
 643   0.0000       4.608458       125.4025 
 644   0.0000       4.611053       125.4731 
 645   0.0000       4.618859       125.6855 
 646   0.0000       4.632556       126.0583 
 647   0.0000       4.639861       126.2570 
 648   0.0000       4.643067       126.3443 
 649   0.0000       4.644584       126.3855 
 650   0.0000       4.654832       126.6644 
 651   0.0000       4.658801       126.7724 
 652   0.0000       4.670763       127.0979 
 653   0.0000       4.675912       127.2380 
 654   0.0000       4.695551       127.7724 
 655   0.0000       4.699904       127.8909 
 656   0.0000       4.706296       128.0648 
 657   0.0000       4.717979       128.3827 
 658   0.0000       4.722904       128.5168 
 659   0.0000       4.735293       128.8539 
 660   0.0000       4.744689       129.1095 
 661   0.0000       4.757036       129.4455 
 662   0.0000       4.767029       129.7175 
 663   0.0000       4.782932       130.1502 
 664   0.0000       4.799632       130.6046 
 665   0.0000       4.819854       131.1549 
 666   0.0000       4.836489       131.6076 
 667   0.0000       4.851851       132.0256 
 668   0.0000       4.869329       132.5012 
 669   0.0000       4.873468       132.6138 
 670   0.0000       4.901660       133.3810 
 671   0.0000       4.909825       133.6031 
 672   0.0000       4.935404       134.2992 
 673   0.0000       4.948791       134.6635 
 674   0.0000       4.979130       135.4890 
 675   0.0000       4.987308       135.7115 
 676   0.0000       5.000330       136.0659 
 677   0.0000       5.018872       136.5705 
 678   0.0000       5.024474       136.7229 
 679   0.0000       5.032010       136.9279 
 680   0.0000       5.052300       137.4801 
 681   0.0000       5.055124       137.5569 
 682   0.0000       5.080208       138.2395 
 683   0.0000       5.091597       138.5494 
 684   0.0000       5.111289       139.0852 
 685   0.0000       5.113472       139.1446 
 686   0.0000       5.121414       139.3608 
 687   0.0000       5.131999       139.6488 
 688   0.0000       5.136297       139.7657 
 689   0.0000       5.141655       139.9116 
 690   0.0000       5.173672       140.7828 
 691   0.0000       5.180819       140.9773 
 692   0.0000       5.181379       140.9925 
 693   0.0000       5.189442       141.2119 
 694   0.0000       5.200662       141.5172 
 695   0.0000       5.210281       141.7790 
 696   0.0000       5.221913       142.0955 
 697   0.0000       5.228584       142.2770 
 698   0.0000       5.229637       142.3056 
 699   0.0000       5.253503       142.9551 
 700   0.0000       5.266122       143.2985 
 701   0.0000       5.278581       143.6375 
 702   0.0000       5.301454       144.2599 
 703   0.0000       5.307758       144.4314 
 704   0.0000       5.320108       144.7675 
 705   0.0000       5.328932       145.0076 
 706   0.0000       5.340223       145.3149 
 707   0.0000       5.354466       145.7024 
 708   0.0000       5.358796       145.8203 
 709   0.0000       5.367747       146.0638 
 710   0.0000       5.388728       146.6348 
 711   0.0000       5.412345       147.2774 
 712   0.0000       5.418967       147.4576 
 713   0.0000       5.448526       148.2619 
 714   0.0000       5.458800       148.5415 
 715   0.0000       5.484485       149.2404 
 716   0.0000       5.490809       149.4125 
 717   0.0000       5.495937       149.5520 
 718   0.0000       5.520498       150.2204 
 719   0.0000       5.522283       150.2690 
 720   0.0000       5.525168       150.3475 
 721   0.0000       5.544719       150.8795 
 722   0.0000       5.556321       151.1952 
 723   0.0000       5.572866       151.6454 
 724   0.0000       5.583356       151.9308 
 725   0.0000       5.607314       152.5828 
 726   0.0000       5.610303       152.6641 
 727   0.0000       5.621543       152.9700 
 728   0.0000       5.632803       153.2764 
 729   0.0000       5.649596       153.7333 
 730   0.0000       5.655315       153.8890 
 731   0.0000       5.663272       154.1055 
 732   0.0000       5.665004       154.1526 
 733   0.0000       5.675271       154.4320 
 734   0.0000       5.701559       155.1473 
 735   0.0000       5.710406       155.3880 
 736   0.0000       5.720608       155.6657 
 737   0.0000       5.735341       156.0666 
 738   0.0000       5.748093       156.4136 
 739   0.0000       5.750434       156.4773 
 740   0.0000       5.754287       156.5821 
 741   0.0000       5.775235       157.1521 
 742   0.0000       5.794688       157.6815 
 743   0.0000       5.819250       158.3498 
 744   0.0000       5.831454       158.6819 
 745   0.0000       5.832425       158.7083 
 746   0.0000       5.854091       159.2979 
 747   0.0000       5.878879       159.9724 
 748   0.0000       5.895232       160.4174 
 749   0.0000       5.933157       161.4494 
 750   0.0000       5.956869       162.0947 
 751   0.0000       5.963397       162.2723 
 752   0.0000       5.968774       162.4186 
 753   0.0000       5.978103       162.6725 
 754   0.0000       6.000618       163.2851 
 755   0.0000       6.017635       163.7482 
 756   0.0000       6.048703       164.5936 
 757   0.0000       6.062685       164.9740 
 758   0.0000       6.071476       165.2133 
 759   0.0000       6.102861       166.0673 
 760   0.0000       6.110969       166.2879 
 761   0.0000       6.159862       167.6184 
 762   0.0000       6.182542       168.2355 
 763   0.0000       6.224367       169.3736 
 764   0.0000       6.233095       169.6111 
 765   0.0000       6.265525       170.4936 
 766   0.0000       6.292903       171.2386 
 767   0.0000       6.303190       171.5185 
 768   0.0000       6.339814       172.5151 
 769   0.0000       6.353417       172.8853 
 770   0.0000       6.376651       173.5175 
 771   0.0000       6.380326       173.6175 
 772   0.0000       6.403829       174.2570 
 773   0.0000       6.447656       175.4496 
 774   0.0000       6.458831       175.7537 
 775   0.0000       6.473731       176.1592 
 776   0.0000       6.504433       176.9946 
 777   0.0000       6.530634       177.7076 
 778   0.0000       6.558633       178.4695 
 779   0.0000       6.585936       179.2124 
 780   0.0000       6.664630       181.3538 
 781   0.0000       6.687530       181.9769 
 782   0.0000       6.711112       182.6186 
 783   0.0000       6.722786       182.9363 
 784   0.0000       6.807074       185.2299 
 785   0.0000       6.869500       186.9286 
 786   0.0000       6.913607       188.1288 
 787   0.0000       6.915871       188.1904 
 788   0.0000       6.923721       188.4040 
 789   0.0000       7.048779       191.8070 
 790   0.0000       7.059496       192.0987 
 791   0.0000       7.064157       192.2255 
 792   0.0000       7.084766       192.7863 
 793   0.0000       7.117968       193.6898 
 794   0.0000       7.225912       196.6271 
 795   0.0000       7.264515       197.6775 
 796   0.0000       7.272232       197.8875 
 797   0.0000       7.284482       198.2208 
 798   0.0000       7.343633       199.8304 
 799   0.0000       7.367654       200.4841 
 800   0.0000       7.438258       202.4053 
 801   0.0000       7.486379       203.7147 
 802   0.0000       7.584567       206.3866 
 803   0.0000       7.593467       206.6288 
 804   0.0000       7.692432       209.3217 
 805   0.0000       7.820301       212.8012 
 806   0.0000       7.836310       213.2368 
 807   0.0000       7.939327       216.0401 
 808   0.0000       7.964426       216.7231 
 809   0.0000       9.374299       255.0877 
 810   0.0000       9.556919       260.0570 
 811   0.0000      10.666691       290.2554 
 812   0.0000      11.228243       305.5360 
 813   0.0000      11.851849       322.5052 
 814   0.0000      12.643193       344.0388 
 815   0.0000      12.922221       351.6315 
 816   0.0000      13.006373       353.9214 
 817   0.0000      13.069520       355.6397 
 818   0.0000      13.195275       359.0617 
 819   0.0000      13.398211       364.5839 
 820   0.0000      13.510715       367.6453 
 821   0.0000      13.650964       371.4616 
 822   0.0000      13.829846       376.3292 
 823   0.0000      13.936440       379.2298 
 824   0.0000      13.986017       380.5789 
 825   0.0000      14.408375       392.0718 
 826   0.0000      14.503219       394.6526 
 827   0.0000      15.951373       434.0589 

                    ********************************
                    * MULLIKEN POPULATION ANALYSIS *
                    ********************************

-----------------------
MULLIKEN ATOMIC CHARGES
-----------------------
   0 C :   -0.296453
   1 C :    0.032598
   2 O :   -0.346366
   3 C :    0.430914
   4 O :   -0.436417
   5 C :   -0.174223
   6 C :    0.152171
   7 C :   -0.266195
   8 N :   -0.124358
   9 C :    0.195366
  10 S :   -0.436941
  11 N :   -0.201887
  12 C :    0.023297
  13 C :    0.080633
  14 C :   -0.181542
  15 C :   -0.131329
  16 C :   -0.279626
  17 C :    0.311632
  18 O :   -0.356950
  19 C :   -0.257293
  20 H :    0.116239
  21 H :    0.097704
  22 H :    0.090972
  23 H :    0.105558
  24 H :    0.108690
  25 H :    0.132091
  26 H :    0.131510
  27 H :    0.094956
  28 H :    0.200820
  29 H :    0.193345
  30 H :    0.161131
  31 H :    0.143009
  32 H :    0.157623
  33 H :    0.128132
  34 H :    0.240157
  35 H :    0.161034
Sum of atomic charges:    0.0000000

--------------------------------
MULLIKEN REDUCED ORBITAL CHARGES
--------------------------------
  0 C s       :     3.264350  s :     3.264350
      pz      :     0.943650  p :     2.955834
      px      :     0.980738
      py      :     1.031447
      dz2     :     0.011461  d :     0.071820
      dxz     :     0.014180
      dyz     :     0.018802
      dx2y2   :     0.020980
      dxy     :     0.006397
      f0      :     0.000540  f :     0.004449
      f+1     :     0.001272
      f-1     :     0.000389
      f+2     :     0.001092
      f-2     :     0.000338
      f+3     :     0.000449
      f-3     :     0.000370
  1 C s       :     3.167401  s :     3.167401
      pz      :     0.799728  p :     2.639193
      px      :     0.945922
      py      :     0.893543
      dz2     :     0.033763  d :     0.149373
      dxz     :     0.023316
      dyz     :     0.039323
      dx2y2   :     0.033049
      dxy     :     0.019921
      f0      :     0.001487  f :     0.011435
      f+1     :     0.001741
      f-1     :     0.001940
      f+2     :     0.002246
      f-2     :     0.001821
      f+3     :     0.000881
      f-3     :     0.001320
  2 O s       :     3.715797  s :     3.715797
      pz      :     1.647078  p :     4.594263
      px      :     1.721509
      py      :     1.225676
      dz2     :     0.006069  d :     0.034054
      dxz     :     0.004298
      dyz     :     0.008435
      dx2y2   :     0.008262
      dxy     :     0.006990
      f0      :     0.000201  f :     0.002252
      f+1     :     0.000128
      f-1     :     0.000405
      f+2     :     0.000317
      f-2     :     0.000293
      f+3     :     0.000400
      f-3     :     0.000508
  3 C s       :     3.075635  s :     3.075635
      pz      :     0.759784  p :     2.163742
      px      :     0.707649
      py      :     0.696309
      dz2     :     0.075359  d :     0.303020
      dxz     :     0.030720
      dyz     :     0.066137
      dx2y2   :     0.065730
      dxy     :     0.065074
      f0      :     0.003762  f :     0.026689
      f+1     :     0.003090
      f-1     :     0.003374
      f+2     :     0.005603
      f-2     :     0.002786
      f+3     :     0.004756
      f-3     :     0.003319
  4 O s       :     3.766608  s :     3.766608
      pz      :     1.454516  p :     4.632696
      px      :     1.433355
      py      :     1.744825
      dz2     :     0.008809  d :     0.034729
      dxz     :     0.008859
      dyz     :     0.006643
      dx2y2   :     0.005261
      dxy     :     0.005156
      f0      :     0.000302  f :     0.002385
      f+1     :     0.000434
      f-1     :     0.000331
      f+2     :     0.000382
      f-2     :     0.000554
      f+3     :     0.000164
      f-3     :     0.000218
  5 C s       :     3.169103  s :     3.169103
      pz      :     1.069802  p :     2.910295
      px      :     1.001980
      py      :     0.838513
      dz2     :     0.011998  d :     0.085011
      dxz     :     0.008893
      dyz     :     0.025025
      dx2y2   :     0.012259
      dxy     :     0.026836
      f0      :     0.000986  f :     0.009814
      f+1     :     0.000941
      f-1     :     0.001131
      f+2     :     0.001851
      f-2     :     0.001639
      f+3     :     0.001728
      f-3     :     0.001538
  6 C s       :     3.200849  s :     3.200849
      pz      :     0.756132  p :     2.455306
      px      :     0.830292
      py      :     0.868882
      dz2     :     0.024611  d :     0.177234
      dxz     :     0.022016
      dyz     :     0.043347
      dx2y2   :     0.031491
      dxy     :     0.055770
      f0      :     0.001573  f :     0.014440
      f+1     :     0.001899
      f-1     :     0.001483
      f+2     :     0.002157
      f-2     :     0.002055
      f+3     :     0.002986
      f-3     :     0.002287
  7 C s       :     3.267292  s :     3.267292
      pz      :     0.996739  p :     2.925443
      px      :     0.987006
      py      :     0.941697
      dz2     :     0.019319  d :     0.068827
      dxz     :     0.008222
      dyz     :     0.011363
      dx2y2   :     0.018446
      dxy     :     0.011478
      f0      :     0.001133  f :     0.004634
      f+1     :     0.000473
      f-1     :     0.000281
      f+2     :     0.000304
      f-2     :     0.000816
      f+3     :     0.000648
      f-3     :     0.000978
  8 N s       :     3.343882  s :     3.343882
      pz      :     1.506227  p :     3.716231
      px      :     1.131723
      py      :     1.078280
      dz2     :     0.006820  d :     0.059293
      dxz     :     0.010428
      dyz     :     0.006189
      dx2y2   :     0.020766
      dxy     :     0.015090
      f0      :     0.000674  f :     0.004953
      f+1     :     0.000866
      f-1     :     0.000410
      f+2     :     0.000672
      f-2     :     0.000789
      f+3     :     0.000725
      f-3     :     0.000816
  9 C s       :     3.166266  s :     3.166266
      pz      :     0.700866  p :     2.357842
      px      :     0.839884
      py      :     0.817093
      dz2     :     0.027818  d :     0.262869
      dxz     :     0.038873
      dyz     :     0.061436
      dx2y2   :     0.079538
      dxy     :     0.055203
      f0      :     0.001994  f :     0.017656
      f+1     :     0.002493
      f-1     :     0.001537
      f+2     :     0.003077
      f-2     :     0.001753
      f+3     :     0.003585
      f-3     :     0.003218
 10 S s       :     5.855722  s :     5.855722
      pz      :     3.548276  p :    10.486392
      px      :     3.321036
      py      :     3.617079
      dz2     :     0.011086  d :     0.084703
      dxz     :     0.017837
      dyz     :     0.012326
      dx2y2   :     0.009885
      dxy     :     0.033567
      f0      :     0.001045  f :     0.010125
      f+1     :     0.001213
      f-1     :     0.000640
      f+2     :     0.000517
      f-2     :     0.002575
      f+3     :     0.001170
      f-3     :     0.002966
 11 N s       :     3.373514  s :     3.373514
      pz      :     1.584751  p :     3.765983
      px      :     1.170236
      py      :     1.010996
      dz2     :     0.003511  d :     0.057937
      dxz     :     0.006126
      dyz     :     0.011545
      dx2y2   :     0.017692
      dxy     :     0.019063
      f0      :     0.000742  f :     0.004453
      f+1     :     0.000408
      f-1     :     0.000748
      f+2     :     0.000476
      f-2     :     0.000383
      f+3     :     0.000789
      f-3     :     0.000907
 12 C s       :     3.134993  s :     3.134993
      pz      :     0.930140  p :     2.648564
      px      :     0.806392
      py      :     0.912032
      dz2     :     0.029332  d :     0.181799
      dxz     :     0.034612
      dyz     :     0.048088
      dx2y2   :     0.027617
      dxy     :     0.042150
      f0      :     0.001404  f :     0.011348
      f+1     :     0.001621
      f-1     :     0.001574
      f+2     :     0.000965
      f-2     :     0.002574
      f+3     :     0.001435
      f-3     :     0.001775
 13 C s       :     3.092592  s :     3.092592
      pz      :     0.872489  p :     2.706586
      px      :     0.900743
      py      :     0.933354
      dz2     :     0.021730  d :     0.108845
      dxz     :     0.015660
      dyz     :     0.032186
      dx2y2   :     0.011092
      dxy     :     0.028176
      f0      :     0.001772  f :     0.011344
      f+1     :     0.001294
      f-1     :     0.002230
      f+2     :     0.002060
      f-2     :     0.001265
      f+3     :     0.001579
[...]
      f-1     :     0.007090
      f+2     :     0.007698
      f-2     :     0.003614
      f+3     :     0.005242
      f-3     :     0.004425
 15 C s       :     2.705880  s :     2.705880
      pz      :     0.983119  p :     2.795962
      px      :     0.840169
      py      :     0.972674
      dz2     :     0.130910  d :     0.416728
      dxz     :     0.082309
      dyz     :     0.102015
      dx2y2   :     0.071563
      dxy     :     0.029931
      f0      :     0.008356  f :     0.041041
      f+1     :     0.004859
      f-1     :     0.008653
      f+2     :     0.006935
      f-2     :     0.007367
      f+3     :     0.001381
      f-3     :     0.003490
 16 C s       :     2.701753  s :     2.701753
      pz      :     0.966811  p :     2.869775
      px      :     0.919437
      py      :     0.983527
      dz2     :     0.090200  d :     0.390089
      dxz     :     0.037649
      dyz     :     0.124186
      dx2y2   :     0.067848
      dxy     :     0.070205
      f0      :     0.007360  f :     0.040267
      f+1     :     0.003951
      f-1     :     0.007371
      f+2     :     0.007319
      f-2     :     0.003985
      f+3     :     0.005436
      f-3     :     0.004845
 17 C s       :     2.701635  s :     2.701635
      pz      :     0.875188  p :     2.680475
      px      :     0.811398
      py      :     0.993889
      dz2     :     0.163204  d :     0.708242
      dxz     :     0.114304
      dyz     :     0.212036
      dx2y2   :     0.097920
      dxy     :     0.120777
      f0      :     0.021221  f :     0.099201
      f+1     :     0.010911
      f-1     :     0.017453
      f+2     :     0.019443
      f-2     :     0.015094
      f+3     :     0.008150
      f-3     :     0.006929
 18 O s       :     3.177184  s :     3.177184
      pz      :     1.251108  p :     4.347281
      px      :     1.587825
      py      :     1.508348
      dz2     :     0.016990  d :     0.075482
      dxz     :     0.011980
      dyz     :     0.032417
      dx2y2   :     0.006120
      dxy     :     0.007975
      f0      :     0.000802  f :     0.005066
      f+1     :     0.000437
      f-1     :     0.001291
      f+2     :     0.001237
      f-2     :     0.000808
      f+3     :     0.000289
      f-3     :     0.000201
 19 C s       :     2.694934  s :     2.694934
      pz      :     0.974817  p :     2.845670
      px      :     0.902059
      py      :     0.968793
      dz2     :     0.118113  d :     0.386311
      dxz     :     0.068649
      dyz     :     0.102750
      dx2y2   :     0.065728
      dxy     :     0.031071
      f0      :     0.008365  f :     0.040756
      f+1     :     0.005545
      f-1     :     0.008917
      f+2     :     0.006446
      f-2     :     0.006840
      f+3     :     0.001342
      f-3     :     0.003301
 20 H s       :     0.844372  s :     0.844372
      pz      :     0.045259  p :     0.153434
      px      :     0.038997
      py      :     0.069178
      dz2     :     0.004241  d :     0.027541
      dxz     :     0.001764
      dyz     :     0.008296
      dx2y2   :     0.006108
      dxy     :     0.007132
 21 H s       :     0.847142  s :     0.847142
      pz      :     0.054054  p :     0.151699
      px      :     0.042880
      py      :     0.054765
      dz2     :     0.006906  d :     0.027458
      dxz     :     0.004609
      dyz     :     0.006161
      dx2y2   :     0.005762
      dxy     :     0.004019
 22 H s       :     0.852250  s :     0.852250
      pz      :     0.038322  p :     0.151419
      px      :     0.071347
      py      :     0.041751
      dz2     :     0.002536  d :     0.027584
      dxz     :     0.008513
      dyz     :     0.000720
      dx2y2   :     0.007360
      dxy     :     0.008455
 23 H s       :     0.853424  s :     0.853424
      pz      :     0.034547  p :     0.146972
      px      :     0.077357
      py      :     0.035068
      dz2     :     0.002624  d :     0.026986
      dxz     :     0.008039
      dyz     :     0.000909
      dx2y2   :     0.008517
      dxy     :     0.006897
 24 H s       :     0.854584  s :     0.854584
      pz      :     0.036749  p :     0.144071
      px      :     0.037913
      py      :     0.069409
      dz2     :     0.003504  d :     0.026890
      dxz     :     0.001362
      dyz     :     0.007415
      dx2y2   :     0.006761
      dxy     :     0.007848
 25 H s       :     0.826214  s :     0.826214
      pz      :     0.039028  p :     0.150007
      px      :     0.070999
      py      :     0.039980
      dz2     :     0.002858  d :     0.027761
      dxz     :     0.008404
      dyz     :     0.000699
      dx2y2   :     0.007889
      dxy     :     0.007911
 26 H s       :     0.825339  s :     0.825339
      pz      :     0.074408  p :     0.151665
      px      :     0.039776
      py      :     0.037481
      dz2     :     0.009503  d :     0.027763
      dxz     :     0.008790
      dyz     :     0.008667
      dx2y2   :     0.000614
      dxy     :     0.000189
 27 H s       :     0.844482  s :     0.844482
      pz      :     0.042004  p :     0.150628
      px      :     0.039055
      py      :     0.069568
      dz2     :     0.003768  d :     0.027730
      dxz     :     0.000583
      dyz     :     0.008120
      dx2y2   :     0.006671
      dxy     :     0.008587
 28 H s       :     0.741938  s :     0.741938
      pz      :     0.080141  p :     0.253279
      px      :     0.051337
      py      :     0.121800
      dz2     :     0.005005  d :     0.061805
      dxz     :     0.000225
      dyz     :     0.022643
      dx2y2   :     0.016299
      dxy     :     0.017634
 29 H s       :     0.748802  s :     0.748802
      pz      :     0.097119  p :     0.253966
      px      :     0.106050
      py      :     0.050797
      dz2     :     0.010751  d :     0.061437
      dxz     :     0.016569
      dyz     :     0.005826
      dx2y2   :     0.014501
      dxy     :     0.013790
 30 H s       :     0.834087  s :     0.834087
      pz      :     0.055812  p :     0.149365
      px      :     0.038002
      py      :     0.055551
      dz2     :     0.007019  d :     0.028523
      dxz     :     0.004595
      dyz     :     0.007167
      dx2y2   :     0.004019
      dxy     :     0.005722
 31 H s       :     0.846388  s :     0.846388
      pz      :     0.062982  p :     0.156890
      px      :     0.049720
      py      :     0.044188
      dz2     :     0.007882  d :     0.027528
      dxz     :     0.005850
      dyz     :     0.007420
      dx2y2   :     0.003190
      dxy     :     0.003186
 32 H s       :     0.844026  s :     0.844026
      pz      :     0.033782  p :     0.151363
      px      :     0.039229
      py      :     0.078352
      dz2     :     0.002785  d :     0.026467
      dxz     :     0.000076
      dyz     :     0.008558
      dx2y2   :     0.007578
      dxy     :     0.007470
 33 H s       :     0.849024  s :     0.849024
      pz      :     0.065523  p :     0.159253
      px      :     0.050619
      py      :     0.043111
      dz2     :     0.008502  d :     0.027779
      dxz     :     0.006472
      dyz     :     0.007498
      dx2y2   :     0.002688
      dxy     :     0.002620
 34 H s       :     0.706750  s :     0.706750
      pz      :     0.112600  p :     0.348021
      px      :     0.103234
      py      :     0.132188
      dz2     :     0.025403  d :     0.099612
      dxz     :     0.019203
      dyz     :     0.025400
      dx2y2   :     0.013592
      dxy     :     0.016013
 35 H s       :     0.839384  s :     0.839384
      pz      :     0.033435  p :     0.156651
      px      :     0.043637
      py      :     0.079580
      dz2     :     0.002763  d :     0.028030
      dxz     :     0.000077
      dyz     :     0.008837
      dx2y2   :     0.007655
      dxy     :     0.008698


                      *****************************
                      * MAYER POPULATION ANALYSIS *
                      *****************************

  NA   - Mulliken gross atomic population
  ZA   - Total nuclear charge
  QA   - Mulliken gross atomic charge
  VA   - Mayer's total valence
  BVA  - Mayer's bonded valence
  FA   - Mayer's free valence

  ATOM       NA         ZA         QA         VA         BVA        FA
  0 C      6.2965     6.0000    -0.2965     3.8699     3.8699    -0.0000
  1 C      5.9674     6.0000     0.0326     3.8611     3.8611     0.0000
  2 O      8.3464     8.0000    -0.3464     2.0753     2.0753    -0.0000
  3 C      5.5691     6.0000     0.4309     4.2521     4.2521    -0.0000
  4 O      8.4364     8.0000    -0.4364     2.0687     2.0687    -0.0000
  5 C      6.1742     6.0000    -0.1742     3.6745     3.6745    -0.0000
  6 C      5.8478     6.0000     0.1522     3.8399     3.8399    -0.0000
  7 C      6.2662     6.0000    -0.2662     3.9074     3.9074     0.0000
  8 N      7.1244     7.0000    -0.1244     3.2880     3.2880    -0.0000
  9 C      5.8046     6.0000     0.1954     4.1593     4.1593     0.0000
 10 S     16.4369    16.0000    -0.4369     1.7624     1.7624    -0.0000
 11 N      7.2019     7.0000    -0.2019     3.2448     3.2448    -0.0000
 12 C      5.9767     6.0000     0.0233     3.9472     3.9472     0.0000
 13 C      5.9194     6.0000     0.0806     3.7180     3.7180     0.0000
 14 C      6.1815     6.0000    -0.1815     3.8648     3.8648    -0.0000
 15 C      6.1313     6.0000    -0.1313     3.8097     3.8097     0.0000
 16 C      6.2796     6.0000    -0.2796     3.7994     3.7994     0.0000
 17 C      5.6884     6.0000     0.3116     3.8701     3.8701    -0.0000
 18 O      8.3570     8.0000    -0.3570     2.1182     2.1182     0.0000
 19 C      6.2573     6.0000    -0.2573     3.8516     3.8516    -0.0000
 20 H      0.8838     1.0000     0.1162     0.9890     0.9890    -0.0000
 21 H      0.9023     1.0000     0.0977     0.9843     0.9843     0.0000
 22 H      0.9090     1.0000     0.0910     0.9835     0.9835    -0.0000
 23 H      0.8944     1.0000     0.1056     0.9863     0.9863     0.0000
 24 H      0.8913     1.0000     0.1087     0.9760     0.9760     0.0000
 25 H      0.8679     1.0000     0.1321     0.9810     0.9810     0.0000
 26 H      0.8685     1.0000     0.1315     0.9813     0.9813     0.0000
 27 H      0.9050     1.0000     0.0950     0.9847     0.9847    -0.0000
 28 H      0.7992     1.0000     0.2008     1.0195     1.0195    -0.0000
 29 H      0.8067     1.0000     0.1933     1.0192     1.0192     0.0000
 30 H      0.8389     1.0000     0.1611     0.9939     0.9939     0.0000
 31 H      0.8570     1.0000     0.1430     0.9890     0.9890    -0.0000
 32 H      0.8424     1.0000     0.1576     0.9780     0.9780    -0.0000
 33 H      0.8719     1.0000     0.1281     0.9925     0.9925     0.0000
 34 H      0.7598     1.0000     0.2402     1.0111     1.0111    -0.0000
 35 H      0.8390     1.0000     0.1610     0.9908     0.9908    -0.0000

  Mayer bond orders larger than 0.100000
B(  0-C ,  1-C ) :   0.9618 B(  0-C , 20-H ) :   0.9744 B(  0-C , 21-H ) :   0.9767 
B(  0-C , 22-H ) :   0.9777 B(  1-C ,  2-O ) :   0.9027 B(  1-C , 23-H ) :   0.9774 
B(  1-C , 24-H ) :   0.9842 B(  2-O ,  3-C ) :   1.1582 B(  3-C ,  4-O ) :   1.9600 
B(  3-C ,  5-C ) :   1.0833 B(  5-C ,  6-C ) :   1.6317 B(  5-C , 12-C ) :   0.9663 
B(  6-C ,  7-C ) :   0.9706 B(  6-C ,  8-N ) :   1.1340 B(  7-C , 25-H ) :   0.9641 
B(  7-C , 26-H ) :   0.9549 B(  7-C , 27-H ) :   0.9887 B(  8-N ,  9-C ) :   1.1839 
B(  8-N , 28-H ) :   0.9473 B(  9-C , 10-S ) :   1.6172 B(  9-C , 11-N ) :   1.3032 
B( 11-N , 12-C ) :   0.9769 B( 11-N , 29-H ) :   0.9527 B( 12-C , 13-C ) :   0.9559 
B( 12-C , 30-H ) :   0.9986 B( 13-C , 14-C ) :   1.3599 B( 13-C , 19-C ) :   1.3749 
B( 14-C , 15-C ) :   1.3909 B( 14-C , 31-H ) :   0.9723 B( 15-C , 16-C ) :   1.3689 
B( 15-C , 32-H ) :   0.9716 B( 16-C , 17-C ) :   1.3286 B( 16-C , 33-H ) :   0.9858 
B( 17-C , 18-O ) :   1.1079 B( 17-C , 19-C ) :   1.3736 B( 18-O , 34-H ) :   0.9803 
B( 19-C , 35-H ) :   0.9592 

-------
TIMINGS
-------

Total SCF time: 0 days 2 hours 10 min 45 sec 

Total time                  ....    7845.066 sec
Sum of individual times     ....    7832.484 sec  ( 99.8%)

Fock matrix formation       ....    7807.560 sec  ( 99.5%)
Diagonalization             ....       2.015 sec  (  0.0%)
Density matrix formation    ....       0.278 sec  (  0.0%)
Population analysis         ....       1.087 sec  (  0.0%)
Initial guess               ....       7.097 sec  (  0.1%)
Orbital Transformation      ....       0.000 sec  (  0.0%)
Orbital Orthonormalization  ....       0.000 sec  (  0.0%)
DIIS solution               ....      10.335 sec  (  0.1%)
SOSCF solution              ....       2.071 sec  (  0.0%)

------------------------------------------------------------------------------
                                ORCA  MP2 
------------------------------------------------------------------------------

Freezing NCore=48 chemical core electrons

-------------
RI-MP2 ENERGY
-------------
Dimension of the basis                    ...  828
Memory devoted to MP2                     ...  256 MB   
Data format for buffers                   ... DOUBLE
Compression type for matrix containers    ... UNCOMPRESSED
Overall scaling of the MP2 energy         ...   1.000e+00
Calculating two index integrals           ... done (    0.065 sec)
Cholesky decomposition of V**-1           ... done (    0.907 sec)

-----------------
RI-TRANSFORMATION (AUX index driven)
-----------------

Dimension of the orbital-basis         ... 828
Dimension of the aux-basis             ... 2141
Transformation of internal/external MOs...   24-  76 to   77- 827
Number Format for Storage              ... Double (8 Byte)
Integral mode                          ... Direct

First Phase: integral generation and transformation of MO indices
  Aux angular momentum 0               ... done (    8.409 sec)
  Aux angular momentum 1               ... done (   13.798 sec)
  Aux angular momentum 2               ... done (   16.032 sec)
  Aux angular momentum 3               ... done (   13.323 sec)
  Aux angular momentum 4               ... done (    4.541 sec)
Closing buffer VIA ( 0.63 GB; CompressionRatio= 1.00)
  Phase 1 completed in    57.021 sec
Second Phase: sorting and transformation of aux index

IA-Transformation
Memory available                       ... 167 MB 
Max. # MO pairs treated in a batch     ... 12    
# of internal orbitals                 ... 53
# batches for internal orbitals        ... 5
Closing buffer IAV ( 0.63 GB; CompressionRatio= 1.00)
(ia|v) transformation done in    71.147 sec

  Phase 2 completed in    71.245 sec
RI-Integral transformation completed in   128.286 sec
Opening buffers                              ... done

Starting loop over batches of integrals:

Operator 0  - window                       ... ( 24- 76)x( 77-827)
Operator 0  - Memory available             ...   256 MB
Operator 0  - Memory needed per MO         ...  12.3 MB
Operator 0  - Number of orbitals per batch ... 13
Operator 0  - Number of batches            ... 5

OPERATOR  0   PASS   0:  MOs    24 ...   36
  Reading integrals       ... ok
  Internal MO  26
  Internal MO  29
  Internal MO  32
  Internal MO  35
OPERATOR  0   PASS   1:  MOs    37 ...   49
  Reading integrals       ... ok
  Internal MO  38
  Internal MO  41
  Internal MO  44
  Internal MO  47
OPERATOR  0   PASS   2:  MOs    50 ...   62
  Reading integrals       ... ok
  Internal MO  50
  Internal MO  53
  Internal MO  56
  Internal MO  59
  Internal MO  62
OPERATOR  0   PASS   3:  MOs    63 ...   75
  Reading integrals       ... ok
  Internal MO  65
  Internal MO  68
  Internal MO  71
  Internal MO  74
OPERATOR  0   PASS   4:  MOs    76 ...   76
  Reading integrals       ... ok
Time spent in pair loops =   455.296 sec
Deleting buffer (Ka|jb)[aa] ...done

-----------------------------------------------
 RI-MP2 CORRELATION ENERGY:     -3.531290184 Eh
-----------------------------------------------


-------
TIMINGS
-------

Total time                :  585.282 sec
Integral trafo            :  128.306 sec ( 21.9%)
I/O of integrals          :   16.336 sec (  2.8%)
K(i,j) Operators          :  106.626 sec ( 18.2%)
T(i,j) pair energies      :    6.790 sec (  1.2%)
V-calculation             :    0.065 sec (  0.0%)
V**(-1/2)                 :    0.907 sec (  0.2%)
Gamma(ia|P)               :    0.000 sec (  0.0%)
Gamma-Trafo               :    0.000 sec (  0.0%)
D(virtual)                :    0.000 sec (  0.0%)
D(internal)               :    0.000 sec (  0.0%)
W(virtual)                :    0.000 sec (  0.0%)
W(internal)               :    0.000 sec (  0.0%)
L(virtual)                :    0.000 sec (  0.0%)
L(internal)               :    0.000 sec (  0.0%)
G(D)                      :    0.000 sec (  0.0%)
G(Z)                      :    0.000 sec (  0.0%)
Z-Vector Solution         :    0.000 sec (  0.0%)
3-Index Derivative        :    0.000 sec (  0.0%)
2-Index Derivative        :    0.000 sec (  0.0%)
Separable Gradient        :    0.000 sec (  0.0%)


---------------------------------------
MP2 TOTAL ENERGY:    -1274.342357947 Eh
---------------------------------------

-------------------------   --------------------
FINAL SINGLE POINT ENERGY     -1274.342357947384
-------------------------   --------------------


                            ***************************************
                            *     ORCA property calculations      *
                            ***************************************


  WARNING: The energy has been calculated at the MP2 level but the densities
           used in the property calculations are still SCF densities
           MP2 response densities have not been calculated 
           use %mp2 Density relaxed end
           or  %mp2 Density unrelaxed end

                                    ---------------------
                                    Active property flags
                                    ---------------------
   (+) Dipole Moment


------------------------------------------------------------------------------
                       ORCA ELECTRIC PROPERTIES CALCULATION
------------------------------------------------------------------------------

Dipole Moment Calculation                       ... on
Quadrupole Moment Calculation                   ... off
Polarizability Calculation                      ... off
GBWName                                         ... G2_CONFS/Conf6.orca.gbw
Electron density file                           ... G2_CONFS/Conf6.orca.scfp
The origin for moment calculation is the CENTER OF MASS  = (32.761777, 31.443894 35.417303)

-------------
DIPOLE MOMENT
-------------
                                X             Y             Z
Electronic contribution:      7.19248       9.17040      10.97532
Nuclear contribution   :     -8.28088     -10.74638     -11.24686
                        -----------------------------------------
Total Dipole Moment    :     -1.08840      -1.57597      -0.27154
                        -----------------------------------------
Magnitude (a.u.)       :      1.93444
Magnitude (Debye)      :      4.91695



--------------------
Rotational spectrum 
--------------------
 
Rotational constants in cm-1:     0.010187     0.009048     0.005861 
Rotational constants in MHz :   305.406805   271.253708   175.703796 

 Dipole components along the rotational axes: 
x,y,z [a.u.] :    -1.054276     1.614953    -0.149913 
x,y,z [Debye]:    -2.679756     4.104884    -0.381047 

 

Timings for individual modules:

Sum of individual times         ...     8434.640 sec (= 140.577 min)
GTO integral calculation        ...        2.165 sec (=   0.036 min)   0.0 %
SCF iterations                  ...     7845.204 sec (= 130.753 min)  93.0 %
MP2 module                      ...      587.271 sec (=   9.788 min)   7.0 %
                             ****ORCA TERMINATED NORMALLY****
TOTAL RUN TIME: 0 days 2 hours 20 minutes 36 seconds 838 msec
