
                                 *****************
                                 * O   R   C   A *
                                 *****************

           --- An Ab Initio, DFT and Semiempirical electronic structure package ---

                  #######################################################
                  #                        -***-                        #
                  #          Department of theory and spectroscopy      #
                  #               Directorship: Frank Neese             #
                  #        Max Planck Institute fuer Kohlenforschung    #
                  #                Kaiser Wilhelm Platz 1               #
                  #                 D-45470 Muelheim/Ruhr               #
                  #                      Germany                        #
                  #                                                     #
                  #                  All rights reserved                #
                  #                        -***-                        #
                  #######################################################


                         Program Version 4.2.0 -  RELEASE  -


 With contributions from (in alphabetic order):
   Daniel Aravena         : Magnetic Suceptibility
   Michael Atanasov       : Ab Initio Ligand Field Theory (pilot matlab implementation)
   Alexander A. Auer      : GIAO ZORA, VPT2
   Ute Becker             : Parallelization
   Giovanni Bistoni       : ED, misc. LED, open-shell LED, HFLED
   Martin Brehm           : Molecular dynamics
   Dmytro Bykov           : SCF Hessian
   Vijay G. Chilkuri      : MRCI spin determinant printing, contributions to CSF-ICE
   Dipayan Datta          : RHF DLPNO-CCSD density
   Achintya Kumar Dutta   : EOM-CC, STEOM-CC
   Dmitry Ganyushin       : Spin-Orbit,Spin-Spin,Magnetic field MRCI
   Miquel Garcia          : C-PCM Hessian, Gaussian charge scheme
   Yang Guo               : DLPNO-NEVPT2, CIM, IAO-localization
   Andreas Hansen         : Spin unrestricted coupled pair/coupled cluster methods
   Benjamin Helmich-Paris : CASSCF linear response (MC-RPA)
   Lee Huntington         : MR-EOM, pCC
   Robert Izsak           : Overlap fitted RIJCOSX, COSX-SCS-MP3, EOM
   Christian Kollmar      : KDIIS, OOCD, Brueckner-CCSD(T), CCSD density
   Simone Kossmann        : Meta GGA functionals, TD-DFT gradient, OOMP2, MP2 Hessian
   Martin Krupicka        : AUTO-CI
   Lucas Lang             : DCDCAS
   Dagmar Lenk            : GEPOL surface, SMD
   Dimitrios Liakos       : Extrapolation schemes; Compound Job, initial MDCI parallelization
   Dimitrios Manganas     : Further ROCIS development; embedding schemes
   Dimitrios Pantazis     : SARC Basis sets
   Taras Petrenko         : DFT Hessian,TD-DFT gradient, ASA, ECA, R-Raman, ABS, FL, XAS/XES, NRVS
   Peter Pinski           : DLPNO-MP2, DLPNO-MP2 Gradient
   Christoph Reimann      : Effective Core Potentials
   Marius Retegan         : Local ZFS, SOC
   Christoph Riplinger    : Optimizer, TS searches, QM/MM, DLPNO-CCSD(T), (RO)-DLPNO pert. Triples
   Tobias Risthaus        : Range-separated hybrids, TD-DFT gradient, RPA, STAB
   Michael Roemelt        : Original ROCIS implementation
   Masaaki Saitow         : Open-shell DLPNO-CCSD energy and density
   Barbara Sandhoefer     : DKH picture change effects
   Avijit Sen             : IP-ROCIS
   Kantharuban Sivalingam : CASSCF convergence, NEVPT2, FIC-MRCI
   Bernardo de Souza      : ESD, SOC TD-DFT
   Georgi Stoychev        : AutoAux, RI-MP2 NMR
   Willem Van den Heuvel  : Paramagnetic NMR
   Boris Wezisla          : Elementary symmetry handling
   Frank Wennmohs         : Technical directorship


 We gratefully acknowledge several colleagues who have allowed us to
 interface, adapt or use parts of their codes:
   Stefan Grimme, W. Hujo, H. Kruse,             : VdW corrections, initial TS optimization,
                  C. Bannwarth                     DFT functionals, gCP, sTDA/sTD-DF
   Ed Valeev, F. Pavosevic, A. Kumar             : LibInt (2-el integral package), F12 methods
   Garnet Chan, S. Sharma, J. Yang, R. Olivares  : DMRG
   Ulf Ekstrom                                   : XCFun DFT Library
   Mihaly Kallay                                 : mrcc  (arbitrary order and MRCC methods)
   Andreas Klamt, Michael Diedenhofen            : otool_cosmo (COSMO solvation model)
   Jiri Pittner, Ondrej Demel                    : Mk-CCSD
   Frank Weinhold                                : gennbo (NPA and NBO analysis)
   Christopher J. Cramer and Donald G. Truhlar   : smd solvation model
   Lars Goerigk                                  : TD-DFT with DH, B97 family of functionals
   V. Asgeirsson, H. Jonsson                     : NEB implementation
   FAccTs GmbH                                   : IRC, NEB, NEB-TS, Multilevel, MM, QM/MM, CI optimization
   S Lehtola, MJT Oliveira, MAL Marques          : LibXC Library


 Your calculation uses the libint2 library for the computation of 2-el integrals
 For citations please refer to: http://libint.valeyev.net

 Your ORCA version has been built with support for libXC version: 4.2.3
 For citations please refer to: https://tddft.org/programs/libxc/

 This ORCA versions uses:
   CBLAS   interface :  Fast vector & matrix operations
   LAPACKE interface :  Fast linear algebra routines
   SCALAPACK package :  Parallel linear algebra routines


----- Orbital basis set information -----
Your calculation utilizes the basis: cc-pVTZ 
       H, B-Ne : Obtained from the ccRepo (grant-hill.group.shef.ac.uk/ccrepo) Feb. 2017
                 T. H. Dunning, Jr., J. Chem. Phys. 90, 1007 (1989)
            He : Obtained from the ccRepo (grant-hill.group.shef.ac.uk/ccrepo) Feb. 2017
                 D. E. Woon, T. H. Dunning, Jr., J. Chem. Phys. 100, 2975 (1994)
  Li-Be, Na-Mg : Obtained from the ccRepo (grant-hill.group.shef.ac.uk/ccrepo) Feb. 2017
                 B. P. Prascher, D. E. Woon, K. A. Peterson, T. H. Dunning, Jr., A. K. Wilson, Theor. Chem. Acc. 128, 69 (2011)
         Al-Ar : Obtained from the ccRepo (grant-hill.group.shef.ac.uk/ccrepo) Feb. 2017
                 D. E. Woon, T. H. Dunning, Jr., J. Chem. Phys. 98, 1358 (1993)
            Ca : Obtained from the Peterson Research Group Website (tyr0.chem.wsu.edu/~kipeters) Feb. 2017
                 J. Koput, K. A. Peterson, J. Phys. Chem. 106, 9595 (2002)
         Sc-Zn : Obtained from the ccRepo (grant-hill.group.shef.ac.uk/ccrepo) Feb. 2017
                 N. B. Balabanov, K. A. Peterson, J. Chem. Phys. 123, 064107 (2005)
                 N. B. Balabanov, K. A. Peterson, J. Chem. Phys. 125, 074110 (2006)
         Ga-Kr : Obtained from the ccRepo (grant-hill.group.shef.ac.uk/ccrepo) Feb. 2017
                 A. K. Wilson, D. E. Woon, K. A. Peterson, T. H. Dunning, Jr., J. Chem. Phys. 110, 7667 (1999)
             Y : Obtained from the ccRepo (grant-hill.group.shef.ac.uk/ccrepo) Feb. 2017
                 K. A. Peterson, D. Figgen, M. Dolg, H. Stoll, J. Chem. Phys. 126, 124101 (2007)
        Ag, Au : Obtained from the Peterson Research Group Website (tyr0.chem.wsu.edu/~kipeters) Feb. 2017
                 K. A. Peterson, C. Puzzarini, Theor. Chem. Acc. 114, 283 (2005)

----- AuxC basis set information -----
Your calculation utilizes the auxiliary basis: cc-pVTZ/C 
  Obtained from the EMSL Basis Set Exchange (bse.pnl.gov) Feb. 2017
  H-He, B-F, Al-Ar, Ga-Kr : F. Weigend, A. Kohn, C. Hattig, J. Chem. Phys. 116, 3175 (2002)
             Li-Be, Na-Mg : C. Haettig, Phys. Chem. Chem. Phys. 7, 59 (2005)
                       Ne : C. Haettig, Phys. Chem. Chem. Phys. 7, 59 (2005)
                            F. Weigend, A. Kohn, C. Hattig, J. Chem. Phys. 116, 3175 (2002)
                    Sc-Zn : J. G. Hill, J. A. Platts, J. Chem. Phys. 128, 044104 (2008)

================================================================================
                                        WARNINGS
                       Please study these warnings very carefully!
================================================================================


WARNING: No MP2 level density has been requested!
         To caclulate MP2 level properties use
         %mp2 Density relaxed end
         or
         %mp2 Density unrelaxed end

WARNING: Post HF methods need fully converged wavefunctions
  ===> : Setting SCFConvForced true
         You can overwrite this default with %scf ConvForced false 


INFO   : the flag for use of LIBINT has been found!

================================================================================
                                       INPUT FILE
================================================================================
NAME = G2_CONFS/Conf169.orca
|  1> ! ri-mp2 cc-pvtz cc-pvtz/c TightSCF  NoKeepInts
|  2> 
|  3> %scf
|  4>   MaxCore 4096
|  5> end
|  6> *xyz  0  1
|  7>     C       15.6005507   13.1424988   16.6754967
|  8>     C       15.9214649   14.3539707   15.7717515
|  9>     O       16.6500515   15.2833852   16.5940462
| 10>     C       16.3064893   16.6073124   16.6405914
| 11>     O       15.3399940   17.0551954   16.0500049
| 12>     C       17.1947227   17.3992184   17.5589865
| 13>     C       17.1679496   18.7670843   17.5705042
| 14>     C       16.1417418   19.6707208   16.9191348
| 15>     N       18.1112790   19.4831556   18.3175459
| 16>     C       19.2114451   18.9376146   18.9229545
| 17>     S       20.3259086   19.8643782   19.7167580
| 18>     N       19.3380999   17.5794165   18.8568695
| 19>     C       18.4225791   16.7071622   18.1663586
| 20>     C       17.7861937   15.7836464   19.3188212
| 21>     C       18.0147253   14.3809714   19.3210023
| 22>     C       17.4717156   13.5480430   20.3175890
| 23>     C       16.6789739   14.1090175   21.3327338
| 24>     C       16.4352503   15.4892126   21.3458273
| 25>     O       15.6704079   16.0344227   22.3256423
| 26>     C       16.9774389   16.3138005   20.3513470
| 27>     H       16.5333697   12.6699424   17.0192611
| 28>     H       15.0242182   12.3899105   16.1235080
| 29>     H       15.0246433   13.4426355   17.5578415
| 30>     H       16.4963001   14.0493827   14.9026116
| 31>     H       14.9600900   14.7803866   15.4340214
| 32>     H       16.1711442   19.5623798   15.8284706
| 33>     H       16.2919387   20.7315335   17.1516718
| 34>     H       15.1289063   19.4012652   17.2478145
| 35>     H       18.0273000   20.4838180   18.3986892
| 36>     H       20.1483808   17.1954553   19.3176461
| 37>     H       18.8384086   15.9500247   17.5290354
| 38>     H       18.6213184   13.9385088   18.5338561
| 39>     H       17.6654135   12.4763137   20.3007192
| 40>     H       16.2574094   13.4732896   22.1045081
| 41>     H       15.4109284   15.3188569   22.9250267
| 42>     H       16.7802484   17.3780656   20.3853548
| 43> *
| 44> 
| 45>                          ****END OF INPUT****
================================================================================

                       ****************************
                       * Single Point Calculation *
                       ****************************

---------------------------------
CARTESIAN COORDINATES (ANGSTROEM)
---------------------------------
  C     15.600551   13.142499   16.675497
  C     15.921465   14.353971   15.771751
  O     16.650052   15.283385   16.594046
  C     16.306489   16.607312   16.640591
  O     15.339994   17.055195   16.050005
  C     17.194723   17.399218   17.558986
  C     17.167950   18.767084   17.570504
  C     16.141742   19.670721   16.919135
  N     18.111279   19.483156   18.317546
  C     19.211445   18.937615   18.922954
  S     20.325909   19.864378   19.716758
  N     19.338100   17.579417   18.856869
  C     18.422579   16.707162   18.166359
  C     17.786194   15.783646   19.318821
  C     18.014725   14.380971   19.321002
  C     17.471716   13.548043   20.317589
  C     16.678974   14.109018   21.332734
  C     16.435250   15.489213   21.345827
  O     15.670408   16.034423   22.325642
  C     16.977439   16.313800   20.351347
  H     16.533370   12.669942   17.019261
  H     15.024218   12.389910   16.123508
  H     15.024643   13.442635   17.557841
  H     16.496300   14.049383   14.902612
  H     14.960090   14.780387   15.434021
  H     16.171144   19.562380   15.828471
  H     16.291939   20.731534   17.151672
  H     15.128906   19.401265   17.247815
  H     18.027300   20.483818   18.398689
  H     20.148381   17.195455   19.317646
  H     18.838409   15.950025   17.529035
  H     18.621318   13.938509   18.533856
  H     17.665413   12.476314   20.300719
  H     16.257409   13.473290   22.104508
  H     15.410928   15.318857   22.925027
  H     16.780248   17.378066   20.385355

----------------------------
CARTESIAN COORDINATES (A.U.)
----------------------------
  NO LB      ZA    FRAG     MASS         X           Y           Z
   0 C     6.0000    0    12.011   29.480768   24.835723   31.512122
   1 C     6.0000    0    12.011   30.087208   27.125074   29.804291
   2 O     8.0000    0    15.999   31.464037   28.881412   31.358203
   3 C     6.0000    0    12.011   30.814799   31.383272   31.446160
   4 O     8.0000    0    15.999   28.988388   32.229648   30.330114
   5 C     6.0000    0    12.011   32.493317   32.879758   33.181676
   6 C     6.0000    0    12.011   32.442723   35.464650   33.203441
   7 C     6.0000    0    12.011   30.503471   37.172275   31.972531
   8 N     7.0000    0    14.007   34.225357   36.817828   34.615145
   9 C     6.0000    0    12.011   36.304370   35.786905   35.759202
  10 S    16.0000    0    32.060   38.410401   37.538235   37.259273
  11 N     7.0000    0    14.007   36.543713   33.220283   35.634319
  12 C     6.0000    0    12.011   34.813629   31.571961   34.329443
  13 C     6.0000    0    12.011   33.611035   29.826769   36.507281
  14 C     6.0000    0    12.011   34.042897   27.176097   36.511403
  15 C     6.0000    0    12.011   33.016758   25.602091   38.394679
  16 C     6.0000    0    12.011   31.518693   26.662179   40.313025
  17 C     6.0000    0    12.011   31.058122   29.270370   40.337768
  18 O     8.0000    0    15.999   29.612779   30.300668   42.189350
  19 C     6.0000    0    12.011   32.082710   30.828615   38.458472
  20 H     1.0000    0     1.008   31.243541   23.942721   32.161742
  21 H     1.0000    0     1.008   28.391658   23.413538   30.469014
  22 H     1.0000    0     1.008   28.392461   25.402900   33.179512
  23 H     1.0000    0     1.008   31.173489   26.549486   28.161855
  24 H     1.0000    0     1.008   28.270473   27.930883   29.166074
  25 H     1.0000    0     1.008   30.559034   36.967540   29.911475
  26 H     1.0000    0     1.008   30.787302   39.176921   32.411962
  27 H     1.0000    0     1.008   28.589490   36.663078   32.593646
  28 H     1.0000    0     1.008   34.066660   38.708806   34.768484
  29 H     1.0000    0     1.008   38.074922   32.494701   36.505061
  30 H     1.0000    0     1.008   35.599433   30.141179   33.125076
  31 H     1.0000    0     1.008   35.189192   26.339964   35.023912
  32 H     1.0000    0     1.008   33.382794   23.576816   38.362800
  33 H     1.0000    0     1.008   30.722051   25.460827   41.771467
  34 H     1.0000    0     1.008   29.122434   28.948444   43.322022
  35 H     1.0000    0     1.008   31.710074   32.839785   38.522738

--------------------------------
INTERNAL COORDINATES (ANGSTROEM)
--------------------------------
 C      0   0   0     0.000000000000     0.00000000     0.00000000
 C      1   0   0     1.545123126089     0.00000000     0.00000000
 O      2   1   0     1.439033814807   106.10063390     0.00000000
 C      3   2   1     1.368570302108   121.13961335   228.67239360
 O      4   3   2     1.217992102024   122.57738047     3.65847492
 C      4   3   2     1.503171063258   112.46246731   179.99999681
 C      6   4   3     1.368176368996   121.35132151   168.57762066
 C      7   6   4     1.514576993147   127.31014177    12.08969939
 N      7   6   4     1.400249893814   120.17086364   187.51031001
 C      9   7   6     1.369123808581   124.99365140     9.46551537
 S     10   9   7     1.652586959809   122.06241743   176.45861850
 N     10   9   7     1.365690574190   116.70511802   355.56994606
 C     12  10   9     1.440767573941   124.49598439     1.96396570
 C     13  12  10     1.608116244113   104.81352807   243.54534354
 C     14  13  12     1.421171560728   120.28315947   244.02198078
 C     15  14  13     1.407769265341   121.53538571   179.93463889
 C     16  15  14     1.404866811316   119.53377831     0.32605896
 C     17  16  15     1.401610197952   119.87301183     0.00000000
 O     18  17  16     1.357304455236   120.01842554   180.03776715
 C     18  17  16     1.401037026593   120.37376470     0.02770055
 H      1   2   3     1.100742840381   110.07556259   298.12886164
 H      1   2   3     1.096922889168   110.65439884   178.91550296
 H      1   2   3     1.095574606382   111.43497572    58.11894466
 H      2   1   3     1.085639683631   110.99307624   121.59435931
 H      2   1   3     1.104596685931   107.50239359   240.62639590
 H      8   7   6     1.096426317893   110.52907770   295.46416814
 H      8   7   6     1.096337607500   113.15693436   174.66867934
 H      8   7   6     1.098395382193   110.47026920    54.12426714
 H      9   7   6     1.007453198094   119.65355527   186.35453531
 H     12  10   9     1.008115278685   115.54402379   180.69972620
 H     13  12  10     1.073476701300   117.73580695   133.54183864
 H     15  14  13     1.087808568426   119.34136386   359.79910297
 H     16  15  14     1.089223190671   120.17248725   180.32108134
 H     17  16  15     1.085127716280   119.94781938   180.02656296
 H     19  18  17     0.968826962885   107.50854253     1.51798693
 H     20  18  17     1.082913120628   119.05579087   180.35350458

---------------------------
INTERNAL COORDINATES (A.U.)
---------------------------
 C      0   0   0     0.000000000000     0.00000000     0.00000000
 C      1   0   0     2.919859551496     0.00000000     0.00000000
 O      2   1   0     2.719379807437   106.10063390     0.00000000
 C      3   2   1     2.586223066002   121.13961335   228.67239360
 O      4   3   2     2.301671506105   122.57738047     3.65847492
 C      4   3   2     2.840581641992   112.46246731   179.99999681
 C      6   4   3     2.585478640306   121.35132151   168.57762066
 C      7   6   4     2.862135725785   127.31014177    12.08969939
 N      7   6   4     2.646088818361   120.17086364   187.51031001
 C      9   7   6     2.587269041650   124.99365140     9.46551537
 S     10   9   7     3.122936766528   122.06241743   176.45861850
 N     10   9   7     2.580781168897   116.70511802   355.56994606
 C     12  10   9     2.722656137383   124.49598439     1.96396570
 C     13  12  10     3.038899292884   104.81352807   243.54534354
 C     14  13  12     2.685625039092   120.28315947   244.02198078
 C     15  14  13     2.660298371245   121.53538571   179.93463889
 C     16  15  14     2.654813528022   119.53377831     0.32605896
 C     17  16  15     2.648659420641   119.87301183     0.00000000
 O     18  17  16     2.564933700748   120.01842554   180.03776715
 C     18  17  16     2.647576283744   120.37376470     0.02770055
 H      1   2   3     2.080102512194   110.07556259   298.12886164
 H      1   2   3     2.072883850557   110.65439884   178.91550296
 H      1   2   3     2.070335965340   111.43497572    58.11894466
 H      2   1   3     2.051561682180   110.99307624   121.59435931
 H      2   1   3     2.087385224846   107.50239359   240.62639590
 H      8   7   6     2.071945466841   110.52907770   295.46416814
 H      8   7   6     2.071777828494   113.15693436   174.66867934
 H      8   7   6     2.075666459109   110.47026920    54.12426714
 H      9   7   6     1.903810637141   119.65355527   186.35453531
 H     12  10   9     1.905061788136   115.54402379   180.69972620
 H     13  12  10     2.028576976603   117.73580695   133.54183864
 H     15  14  13     2.055660280458   119.34136386   359.79910297
 H     16  15  14     2.058333529084   120.17248725   180.32108134
 H     17  16  15     2.050594204097   119.94781938   180.02656296
 H     19  18  17     1.830817631012   107.50854253     1.51798693
 H     20  18  17     2.046409224818   119.05579087   180.35350458

---------------------
BASIS SET INFORMATION
---------------------
There are 5 groups of distinct atoms

 Group   1 Type C   : 18s5p2d1f contracted to 4s3p2d1f pattern {8811/311/11/1}
 Group   2 Type O   : 18s5p2d1f contracted to 4s3p2d1f pattern {8811/311/11/1}
 Group   3 Type N   : 18s5p2d1f contracted to 4s3p2d1f pattern {8811/311/11/1}
 Group   4 Type S   : 41s16p2d1f contracted to 5s4p2d1f pattern {13131311/7711/11/1}
 Group   5 Type H   : 5s2p1d contracted to 3s2p1d pattern {311/11/1}

Atom   0C    basis set group =>   1
Atom   1C    basis set group =>   1
Atom   2O    basis set group =>   2
Atom   3C    basis set group =>   1
Atom   4O    basis set group =>   2
Atom   5C    basis set group =>   1
Atom   6C    basis set group =>   1
Atom   7C    basis set group =>   1
Atom   8N    basis set group =>   3
Atom   9C    basis set group =>   1
Atom  10S    basis set group =>   4
Atom  11N    basis set group =>   3
Atom  12C    basis set group =>   1
Atom  13C    basis set group =>   1
Atom  14C    basis set group =>   1
Atom  15C    basis set group =>   1
Atom  16C    basis set group =>   1
Atom  17C    basis set group =>   1
Atom  18O    basis set group =>   2
Atom  19C    basis set group =>   1
Atom  20H    basis set group =>   5
Atom  21H    basis set group =>   5
Atom  22H    basis set group =>   5
Atom  23H    basis set group =>   5
Atom  24H    basis set group =>   5
Atom  25H    basis set group =>   5
Atom  26H    basis set group =>   5
Atom  27H    basis set group =>   5
Atom  28H    basis set group =>   5
Atom  29H    basis set group =>   5
Atom  30H    basis set group =>   5
Atom  31H    basis set group =>   5
Atom  32H    basis set group =>   5
Atom  33H    basis set group =>   5
Atom  34H    basis set group =>   5
Atom  35H    basis set group =>   5
---------------------------------
AUXILIARY/C BASIS SET INFORMATION
---------------------------------
There are 5 groups of distinct atoms

 Group   1 Type C   : 8s6p5d3f1g contracted to 8s6p5d3f1g pattern {11111111/111111/11111/111/1}
 Group   2 Type O   : 8s6p5d3f1g contracted to 8s6p5d3f1g pattern {11111111/111111/11111/111/1}
 Group   3 Type N   : 8s6p5d3f1g contracted to 8s6p5d3f1g pattern {11111111/111111/11111/111/1}
 Group   4 Type S   : 10s8p7d5f2g contracted to 10s8p7d5f2g pattern {1111111111/11111111/1111111/11111/11}
 Group   5 Type H   : 4s3p2d1f contracted to 4s3p2d1f pattern {1111/111/11/1}

Atom   0C    basis set group =>   1
Atom   1C    basis set group =>   1
Atom   2O    basis set group =>   2
Atom   3C    basis set group =>   1
Atom   4O    basis set group =>   2
Atom   5C    basis set group =>   1
Atom   6C    basis set group =>   1
Atom   7C    basis set group =>   1
Atom   8N    basis set group =>   3
Atom   9C    basis set group =>   1
Atom  10S    basis set group =>   4
Atom  11N    basis set group =>   3
Atom  12C    basis set group =>   1
Atom  13C    basis set group =>   1
Atom  14C    basis set group =>   1
Atom  15C    basis set group =>   1
Atom  16C    basis set group =>   1
Atom  17C    basis set group =>   1
Atom  18O    basis set group =>   2
Atom  19C    basis set group =>   1
Atom  20H    basis set group =>   5
Atom  21H    basis set group =>   5
Atom  22H    basis set group =>   5
Atom  23H    basis set group =>   5
Atom  24H    basis set group =>   5
Atom  25H    basis set group =>   5
Atom  26H    basis set group =>   5
Atom  27H    basis set group =>   5
Atom  28H    basis set group =>   5
Atom  29H    basis set group =>   5
Atom  30H    basis set group =>   5
Atom  31H    basis set group =>   5
Atom  32H    basis set group =>   5
Atom  33H    basis set group =>   5
Atom  34H    basis set group =>   5
Atom  35H    basis set group =>   5

Checking for AutoStart:
The File: G2_CONFS/Conf169.orca.gbw exists
Trying to determine its content:
     ... Fine, the file contains calculation information
     ... Fine, the calculation information was read
     ... Fine, the file contains a basis set
     ... Fine, the basis set was read
     ... Fine, the file contains a geometry
     ... Fine, the geometry was read
     ... The file does not contain orbitals - skipping AutoStart
------------------------------------------------------------------------------
                           ORCA GTO INTEGRAL CALCULATION
------------------------------------------------------------------------------

                         BASIS SET STATISTICS AND STARTUP INFO

 # of primitive gaussian shells          ...  682
 # of primitive gaussian functions       ... 1312
 # of contracted shells                  ...  298
 # of contracted basis functions         ...  828
 Highest angular momentum                ...    3
 Maximum contraction depth               ...   13
 Integral package used                   ... LIBINT
 Integral threshhold            Thresh   ...  2.500e-11
 Primitive cut-off              TCut     ...  2.500e-12


------------------------------ INTEGRAL EVALUATION ----------------------------


 * One electron integrals 
 Pre-screening matrix                    ... done
 Shell pair data                         ... done (   0.014 sec)

-------------------------------------------------------------------------------
                                 ORCA SCF
-------------------------------------------------------------------------------

------------
SCF SETTINGS
------------
Hamiltonian:
 Ab initio Hamiltonian  Method          .... Hartree-Fock(GTOs)


General Settings:
 Integral files         IntName         .... G2_CONFS/Conf169.orca
 Hartree-Fock type      HFTyp           .... RHF
 Total Charge           Charge          ....    0
 Multiplicity           Mult            ....    1
 Number of Electrons    NEL             ....  154
 Basis Dimension        Dim             ....  828
 Nuclear Repulsion      ENuc            ....   1700.1749613995 Eh

Convergence Acceleration:
 DIIS                   CNVDIIS         .... on
   Start iteration      DIISMaxIt       ....    12
   Startup error        DIISStart       ....  0.200000
   # of expansion vecs  DIISMaxEq       ....     5
   Bias factor          DIISBfac        ....   1.050
   Max. coefficient     DIISMaxC        ....  10.000
 Newton-Raphson         CNVNR           .... off
 SOSCF                  CNVSOSCF        .... on
   Start iteration      SOSCFMaxIt      ....   150
   Startup grad/error   SOSCFStart      ....  0.003300
 Level Shifting         CNVShift        .... on
   Level shift para.    LevelShift      ....    0.2500
   Turn off err/grad.   ShiftErr        ....    0.0010
 Zerner damping         CNVZerner       .... off
 Static damping         CNVDamp         .... on
   Fraction old density DampFac         ....    0.7000
   Max. Damping (<1)    DampMax         ....    0.9800
   Min. Damping (>=0)   DampMin         ....    0.0000
   Turn off err/grad.   DampErr         ....    0.1000
 Fernandez-Rico         CNVRico         .... off

SCF Procedure:
 Maximum # iterations   MaxIter         ....   125
 SCF integral mode      SCFMode         .... Direct
   Integral package                     .... LIBINT
 Reset frequency        DirectResetFreq ....    20
 Integral Threshold     Thresh          ....  2.500e-11 Eh
 Primitive CutOff       TCut            ....  2.500e-12 Eh

Convergence Tolerance:
 Convergence Check Mode ConvCheckMode   .... Total+1el-Energy
 Convergence forced     ConvForced      .... 1
 Energy Change          TolE            ....  1.000e-08 Eh
 1-El. energy change                    ....  1.000e-05 Eh
 Orbital Gradient       TolG            ....  1.000e-05
 Orbital Rotation angle TolX            ....  1.000e-05
 DIIS Error             TolErr          ....  5.000e-07


Diagonalization of the overlap matrix:
Smallest eigenvalue                        ... 3.425e-05
Time for diagonalization                   ...    0.110 sec
Threshold for overlap eigenvalues          ... 1.000e-08
Number of eigenvalues below threshold      ... 0
Time for construction of square roots      ...    0.063 sec
Total time needed                          ...    0.175 sec

-------------------
DFT GRID GENERATION
-------------------

General Integration Accuracy     IntAcc      ...  4.340
Radial Grid Type                 RadialGrid  ... Gauss-Chebyshev
Angular Grid (max. acc.)         AngularGrid ... Lebedev-110
Angular grid pruning method      GridPruning ... 3 (G Style)
Weight generation scheme         WeightScheme... Becke
Basis function cutoff            BFCut       ...    1.0000e-11
Integration weight cutoff        WCut        ...    1.0000e-14
Grids for H and He will be reduced by one unit

# of grid points (after initial pruning)     ...  46246 (   0.0 sec)
# of grid points (after weights+screening)   ...  41341 (   0.3 sec)
nearest neighbour list constructed           ...    0.0 sec
Grid point re-assignment to atoms done       ...    0.0 sec
Grid point division into batches done        ...    0.0 sec
Reduced shell lists constructed in    0.9 sec

Total number of grid points                  ...    41341
Total number of batches                      ...      667
Average number of points per batch           ...       61
Average number of grid points per atom       ...     1148
Average number of shells per batch           ...   147.79 (49.59%)
Average number of basis functions per batch  ...   375.48 (45.35%)
Average number of large shells per batch     ...    94.40 (63.87%)
Average number of large basis fcns per batch ...   242.82 (64.67%)
Maximum spatial batch extension              ...  20.26, 20.14, 18.99 au
Average spatial batch extension              ...   3.54,  3.37,  3.47 au

Time for grid setup =    1.253 sec

------------------------------
INITIAL GUESS: MODEL POTENTIAL
------------------------------
Loading Hartree-Fock densities                     ... done
Calculating cut-offs                               ... done
Setting up the integral package                    ... done
Initializing the effective Hamiltonian             ... done
Starting the Coulomb interaction                   ... done (   3.1 sec)
Reading the grid                                   ... done
Mapping shells                                     ... done
Starting the XC term evaluation                    ... done (   1.3 sec)
Transforming the Hamiltonian                       ... done (   0.0 sec)
Diagonalizing the Hamiltonian                      ... done (   0.1 sec)
Back transforming the eigenvectors                 ... done (   0.0 sec)
Now organizing SCF variables                       ... done
                      ------------------
                      INITIAL GUESS DONE (   5.9 sec)
                      ------------------
--------------
SCF ITERATIONS
--------------
ITER       Energy         Delta-E        Max-DP      RMS-DP      [F,P]     Damp
               ***  Starting incremental Fock matrix formation  ***
  0  -1270.0021349037   0.000000000000 0.04937364  0.00043131  0.3091488 0.7000
  1  -1270.2697069535  -0.267572049827 0.03612258  0.00034766  0.1819449 0.7000
                               ***Turning on DIIS***
  2  -1270.4363837299  -0.166676776364 0.02586675  0.00023503  0.1096640 0.7000
  3  -1272.5547449226  -2.118361192789 0.06319349  0.00051310  0.0829576 0.0000
  4  -1270.7474145270   1.807330395668 0.00704846  0.00009185  0.0073762 0.0000
  5  -1270.8042523658  -0.056837838827 0.00361134  0.00004895  0.0045868 0.0000
                      *** Initiating the SOSCF procedure ***
                           *** Shutting down DIIS ***
                      *** Re-Reading the Fockian *** 
                      *** Removing any level shift *** 
ITER      Energy       Delta-E        Grad      Rot      Max-DP    RMS-DP
  6  -1270.78385422   0.0203981429  0.001783  0.001783  0.001740  0.000025
               *** Restarting incremental Fock matrix formation ***
  7  -1270.79849941  -0.0146451913  0.000700  0.001521  0.001241  0.000015
  8  -1270.79854282  -0.0000434077  0.000439  0.001814  0.001352  0.000016
  9  -1270.79855887  -0.0000160529  0.000192  0.000357  0.000340  0.000004
 10  -1270.79856084  -0.0000019605  0.000040  0.000106  0.000114  0.000001
 11  -1270.79856103  -0.0000001952  0.000023  0.000110  0.000050  0.000001
 12  -1270.79856109  -0.0000000628  0.000008  0.000035  0.000034  0.000000
 13  -1270.79856110  -0.0000000017  0.000003  0.000012  0.000007  0.000000
                  ***Gradient check signals convergence***
              ***Rediagonalizing the Fockian in SOSCF/NRSCF***

               *****************************************************
               *                     SUCCESS                       *
               *           SCF CONVERGED AFTER  14 CYCLES          *
               *****************************************************


----------------
TOTAL SCF ENERGY
----------------

Total Energy       :        -1270.79856108 Eh          -34580.18687 eV

Components:
Nuclear Repulsion  :         1700.17496140 Eh           46264.11272 eV
Electronic Energy  :        -2970.97352248 Eh          -80844.29959 eV
One Electron Energy:        -5121.67898911 Eh         -139367.97062 eV
Two Electron Energy:         2150.70546663 Eh           58523.67103 eV

Virial components:
Potential Energy   :        -2539.65523610 Eh          -69107.53233 eV
Kinetic Energy     :         1268.85667501 Eh           34527.34546 eV
Virial Ratio       :            2.00153042


---------------
SCF CONVERGENCE
---------------

  Last Energy change         ...    1.3997e-08  Tolerance :   1.0000e-08
  Last MAX-Density change    ...    2.2609e-06  Tolerance :   1.0000e-07
  Last RMS-Density change    ...    2.7243e-08  Tolerance :   5.0000e-09
  Last Orbital Gradient      ...    1.5577e-06  Tolerance :   1.0000e-05
  Last Orbital Rotation      ...    3.4164e-06  Tolerance :   1.0000e-05

             **** THE GBW FILE WAS UPDATED (G2_CONFS/Conf169.orca.gbw) ****
             **** DENSITY FILE WAS UPDATED (G2_CONFS/Conf169.orca.scfp) ****
             **** ENERGY FILE WAS UPDATED (G2_CONFS/Conf169.orca.en.tmp) ****
             **** THE GBW FILE WAS UPDATED (G2_CONFS/Conf169.orca.gbw) ****
             **** DENSITY FILE WAS UPDATED (G2_CONFS/Conf169.orca.scfp) ****
----------------
ORBITAL ENERGIES
----------------

  NO   OCC          E(Eh)            E(eV) 
   0   2.0000     -91.891176     -2500.4860 
   1   2.0000     -20.603065      -560.6379 
   2   2.0000     -20.592132      -560.3404 
   3   2.0000     -20.542093      -558.9788 
   4   2.0000     -15.631509      -425.3550 
   5   2.0000     -15.613866      -424.8749 
   6   2.0000     -11.396972      -310.1274 
   7   2.0000     -11.386645      -309.8464 
   8   2.0000     -11.339067      -308.5517 
   9   2.0000     -11.312307      -307.8235 
  10   2.0000     -11.308954      -307.7323 
  11   2.0000     -11.295757      -307.3732 
  12   2.0000     -11.262355      -306.4643 
  13   2.0000     -11.257939      -306.3441 
  14   2.0000     -11.252734      -306.2025 
  15   2.0000     -11.250281      -306.1357 
  16   2.0000     -11.237205      -305.7799 
  17   2.0000     -11.233417      -305.6768 
  18   2.0000     -11.233297      -305.6736 
  19   2.0000     -11.227422      -305.5137 
  20   2.0000      -8.896280      -242.0801 
  21   2.0000      -6.577855      -178.9925 
  22   2.0000      -6.575848      -178.9379 
  23   2.0000      -6.575251      -178.9217 
  24   2.0000      -1.451952       -39.5096 
  25   2.0000      -1.411514       -38.4093 
  26   2.0000      -1.356367       -36.9086 
  27   2.0000      -1.345814       -36.6215 
  28   2.0000      -1.246663       -33.9234 
  29   2.0000      -1.148821       -31.2610 
  30   2.0000      -1.119986       -30.4764 
  31   2.0000      -1.041183       -28.3320 
  32   2.0000      -1.033112       -28.1124 
  33   2.0000      -1.007974       -27.4284 
  34   2.0000      -0.994234       -27.0545 
  35   2.0000      -0.987554       -26.8727 
  36   2.0000      -0.920821       -25.0568 
  37   2.0000      -0.889772       -24.2119 
  38   2.0000      -0.850621       -23.1466 
  39   2.0000      -0.831984       -22.6394 
  40   2.0000      -0.827011       -22.5041 
  41   2.0000      -0.818814       -22.2810 
  42   2.0000      -0.765861       -20.8401 
  43   2.0000      -0.730818       -19.8866 
  44   2.0000      -0.719888       -19.5892 
  45   2.0000      -0.698419       -19.0049 
  46   2.0000      -0.686979       -18.6937 
  47   2.0000      -0.683166       -18.5899 
  48   2.0000      -0.673462       -18.3258 
  49   2.0000      -0.665044       -18.0968 
  50   2.0000      -0.650877       -17.7113 
  51   2.0000      -0.644624       -17.5411 
  52   2.0000      -0.635353       -17.2888 
  53   2.0000      -0.602529       -16.3956 
  54   2.0000      -0.599890       -16.3238 
  55   2.0000      -0.594566       -16.1790 
  56   2.0000      -0.593541       -16.1511 
  57   2.0000      -0.575111       -15.6496 
  58   2.0000      -0.569746       -15.5036 
  59   2.0000      -0.563907       -15.3447 
  60   2.0000      -0.559305       -15.2195 
  61   2.0000      -0.546310       -14.8658 
  62   2.0000      -0.541898       -14.7458 
  63   2.0000      -0.529896       -14.4192 
  64   2.0000      -0.518129       -14.0990 
  65   2.0000      -0.511129       -13.9085 
  66   2.0000      -0.496996       -13.5239 
  67   2.0000      -0.494697       -13.4614 
  68   2.0000      -0.478985       -13.0338 
  69   2.0000      -0.461872       -12.5682 
  70   2.0000      -0.458258       -12.4698 
  71   2.0000      -0.450336       -12.2543 
  72   2.0000      -0.350993        -9.5510 
  73   2.0000      -0.343346        -9.3429 
  74   2.0000      -0.330271        -8.9871 
  75   2.0000      -0.316576        -8.6145 
  76   2.0000      -0.313639        -8.5345 
  77   0.0000       0.074584         2.0295 
  78   0.0000       0.111564         3.0358 
  79   0.0000       0.125756         3.4220 
  80   0.0000       0.133067         3.6210 
  81   0.0000       0.139314         3.7909 
  82   0.0000       0.146418         3.9842 
  83   0.0000       0.154074         4.1926 
  84   0.0000       0.156121         4.2483 
  85   0.0000       0.165546         4.5047 
  86   0.0000       0.169489         4.6120 
  87   0.0000       0.178618         4.8604 
  88   0.0000       0.189721         5.1626 
  89   0.0000       0.194937         5.3045 
  90   0.0000       0.205089         5.5808 
  91   0.0000       0.210705         5.7336 
  92   0.0000       0.217002         5.9049 
  93   0.0000       0.220426         5.9981 
  94   0.0000       0.224532         6.1098 
  95   0.0000       0.234442         6.3795 
  96   0.0000       0.245044         6.6680 
  97   0.0000       0.254380         6.9220 
  98   0.0000       0.261380         7.1125 
  99   0.0000       0.275780         7.5044 
 100   0.0000       0.283332         7.7099 
 101   0.0000       0.299626         8.1533 
 102   0.0000       0.313241         8.5237 
 103   0.0000       0.319982         8.7072 
 104   0.0000       0.326602         8.8873 
 105   0.0000       0.333856         9.0847 
 106   0.0000       0.339953         9.2506 
 107   0.0000       0.345502         9.4016 
 108   0.0000       0.358341         9.7510 
 109   0.0000       0.369655        10.0588 
 110   0.0000       0.372895        10.1470 
 111   0.0000       0.373716        10.1693 
 112   0.0000       0.380332        10.3494 
 113   0.0000       0.386643        10.5211 
 114   0.0000       0.399447        10.8695 
 115   0.0000       0.403823        10.9886 
 116   0.0000       0.407415        11.0863 
 117   0.0000       0.419243        11.4082 
 118   0.0000       0.429269        11.6810 
 119   0.0000       0.430979        11.7275 
 120   0.0000       0.441918        12.0252 
 121   0.0000       0.449177        12.2227 
 122   0.0000       0.456026        12.4091 
 123   0.0000       0.461075        12.5465 
 124   0.0000       0.463392        12.6095 
 125   0.0000       0.470596        12.8056 
 126   0.0000       0.477177        12.9847 
 127   0.0000       0.480965        13.0877 
 128   0.0000       0.486293        13.2327 
 129   0.0000       0.490237        13.3400 
 130   0.0000       0.495791        13.4912 
 131   0.0000       0.507132        13.7998 
 132   0.0000       0.516671        14.0593 
 133   0.0000       0.517277        14.0758 
 134   0.0000       0.520892        14.1742 
 135   0.0000       0.534810        14.5529 
 136   0.0000       0.537943        14.6382 
 137   0.0000       0.539046        14.6682 
 138   0.0000       0.542940        14.7741 
 139   0.0000       0.545293        14.8382 
 140   0.0000       0.555533        15.1168 
 141   0.0000       0.561024        15.2662 
 142   0.0000       0.565810        15.3965 
 143   0.0000       0.569422        15.4948 
 144   0.0000       0.580585        15.7985 
 145   0.0000       0.582776        15.8581 
 146   0.0000       0.585511        15.9326 
 147   0.0000       0.590492        16.0681 
 148   0.0000       0.596564        16.2333 
 149   0.0000       0.601821        16.3764 
 150   0.0000       0.606211        16.4958 
 151   0.0000       0.611253        16.6330 
 152   0.0000       0.615130        16.7385 
 153   0.0000       0.619500        16.8574 
 154   0.0000       0.621451        16.9105 
 155   0.0000       0.623928        16.9780 
 156   0.0000       0.631190        17.1756 
 157   0.0000       0.633256        17.2318 
 158   0.0000       0.634085        17.2543 
 159   0.0000       0.637057        17.3352 
 160   0.0000       0.643039        17.4980 
 161   0.0000       0.651709        17.7339 
 162   0.0000       0.655446        17.8356 
 163   0.0000       0.662999        18.0411 
 164   0.0000       0.668134        18.1808 
 165   0.0000       0.673184        18.3183 
 166   0.0000       0.675616        18.3844 
 167   0.0000       0.682307        18.5665 
 168   0.0000       0.687730        18.7141 
 169   0.0000       0.691026        18.8038 
 170   0.0000       0.698899        19.0180 
 171   0.0000       0.707381        19.2488 
 172   0.0000       0.711697        19.3662 
 173   0.0000       0.717553        19.5256 
 174   0.0000       0.725607        19.7448 
 175   0.0000       0.734381        19.9835 
 176   0.0000       0.738504        20.0957 
 177   0.0000       0.750065        20.4103 
 178   0.0000       0.751905        20.4604 
 179   0.0000       0.757875        20.6228 
 180   0.0000       0.764974        20.8160 
 181   0.0000       0.768727        20.9181 
 182   0.0000       0.775785        21.1102 
 183   0.0000       0.784414        21.3450 
 184   0.0000       0.789793        21.4914 
 185   0.0000       0.803124        21.8541 
 186   0.0000       0.813895        22.1472 
 187   0.0000       0.822684        22.3864 
 188   0.0000       0.827619        22.5207 
 189   0.0000       0.833518        22.6812 
 190   0.0000       0.839074        22.8324 
 191   0.0000       0.851316        23.1655 
 192   0.0000       0.854384        23.2490 
 193   0.0000       0.862198        23.4616 
 194   0.0000       0.872275        23.7358 
 195   0.0000       0.875064        23.8117 
 196   0.0000       0.886561        24.1246 
 197   0.0000       0.888766        24.1845 
 198   0.0000       0.900168        24.4948 
 199   0.0000       0.911985        24.8164 
 200   0.0000       0.914081        24.8734 
 201   0.0000       0.920463        25.0471 
 202   0.0000       0.924624        25.1603 
 203   0.0000       0.929645        25.2969 
 204   0.0000       0.941753        25.6264 
 205   0.0000       0.952687        25.9239 
 206   0.0000       0.955002        25.9869 
 207   0.0000       0.959993        26.1228 
 208   0.0000       0.970325        26.4039 
 209   0.0000       0.972435        26.4613 
 210   0.0000       0.983286        26.7566 
 211   0.0000       0.989919        26.9371 
 212   0.0000       1.000650        27.2291 
 213   0.0000       1.002395        27.2765 
 214   0.0000       1.016788        27.6682 
 215   0.0000       1.021381        27.7932 
 216   0.0000       1.025101        27.8944 
 217   0.0000       1.035762        28.1845 
 218   0.0000       1.038386        28.2559 
 219   0.0000       1.043768        28.4024 
 220   0.0000       1.048787        28.5390 
 221   0.0000       1.055652        28.7258 
 222   0.0000       1.068572        29.0773 
 223   0.0000       1.083342        29.4792 
 224   0.0000       1.086777        29.5727 
 225   0.0000       1.094864        29.7928 
 226   0.0000       1.104547        30.0562 
 227   0.0000       1.114426        30.3251 
 228   0.0000       1.116304        30.3762 
 229   0.0000       1.124702        30.6047 
 230   0.0000       1.130158        30.7532 
 231   0.0000       1.136389        30.9227 
 232   0.0000       1.143607        31.1191 
 233   0.0000       1.146722        31.2039 
 234   0.0000       1.156910        31.4811 
 235   0.0000       1.168897        31.8073 
 236   0.0000       1.171552        31.8796 
 237   0.0000       1.171955        31.8905 
 238   0.0000       1.181413        32.1479 
 239   0.0000       1.186862        32.2962 
 240   0.0000       1.194344        32.4997 
 241   0.0000       1.197727        32.5918 
 242   0.0000       1.206421        32.8284 
 243   0.0000       1.211799        32.9747 
 244   0.0000       1.217356        33.1259 
 245   0.0000       1.224873        33.3305 
 246   0.0000       1.233524        33.5659 
 247   0.0000       1.238510        33.7016 
 248   0.0000       1.255308        34.1587 
 249   0.0000       1.258278        34.2395 
 250   0.0000       1.260279        34.2939 
 251   0.0000       1.270771        34.5794 
 252   0.0000       1.273723        34.6598 
 253   0.0000       1.278795        34.7978 
 254   0.0000       1.290909        35.1274 
 255   0.0000       1.303695        35.4753 
 256   0.0000       1.308425        35.6040 
 257   0.0000       1.314914        35.7806 
 258   0.0000       1.323052        36.0021 
 259   0.0000       1.330165        36.1956 
 260   0.0000       1.337607        36.3981 
 261   0.0000       1.344943        36.5978 
 262   0.0000       1.355321        36.8802 
 263   0.0000       1.359886        37.0044 
 264   0.0000       1.370029        37.2804 
 265   0.0000       1.376709        37.4622 
 266   0.0000       1.379048        37.5258 
 267   0.0000       1.400606        38.1124 
 268   0.0000       1.406470        38.2720 
 269   0.0000       1.409263        38.3480 
 270   0.0000       1.421604        38.6838 
 271   0.0000       1.428471        38.8707 
 272   0.0000       1.431605        38.9559 
 273   0.0000       1.442784        39.2602 
 274   0.0000       1.448254        39.4090 
 275   0.0000       1.456699        39.6388 
 276   0.0000       1.472692        40.0740 
 277   0.0000       1.477389        40.2018 
 278   0.0000       1.481508        40.3139 
 279   0.0000       1.491126        40.5756 
 280   0.0000       1.497058        40.7370 
 281   0.0000       1.504478        40.9389 
 282   0.0000       1.507122        41.0109 
 283   0.0000       1.515364        41.2352 
 284   0.0000       1.521316        41.3971 
 285   0.0000       1.525101        41.5001 
 286   0.0000       1.528070        41.5809 
 287   0.0000       1.534855        41.7655 
 288   0.0000       1.539813        41.9004 
 289   0.0000       1.556457        42.3533 
 290   0.0000       1.559355        42.4322 
 291   0.0000       1.568130        42.6710 
 292   0.0000       1.576191        42.8903 
 293   0.0000       1.579609        42.9834 
 294   0.0000       1.581667        43.0393 
 295   0.0000       1.593313        43.3563 
 296   0.0000       1.600640        43.5556 
 297   0.0000       1.602627        43.6097 
 298   0.0000       1.620697        44.1014 
 299   0.0000       1.626619        44.2626 
 300   0.0000       1.636767        44.5387 
 301   0.0000       1.640657        44.6445 
 302   0.0000       1.648366        44.8543 
 303   0.0000       1.656637        45.0794 
 304   0.0000       1.660562        45.1862 
 305   0.0000       1.672196        45.5028 
 306   0.0000       1.674519        45.5660 
 307   0.0000       1.692657        46.0595 
 308   0.0000       1.694517        46.1102 
 309   0.0000       1.698495        46.2184 
 310   0.0000       1.708312        46.4855 
 311   0.0000       1.713847        46.6362 
 312   0.0000       1.735725        47.2315 
 313   0.0000       1.736713        47.2584 
 314   0.0000       1.754547        47.7437 
 315   0.0000       1.764522        48.0151 
 316   0.0000       1.771352        48.2009 
 317   0.0000       1.783202        48.5234 
 318   0.0000       1.791599        48.7519 
 319   0.0000       1.806738        49.1638 
 320   0.0000       1.810860        49.2760 
 321   0.0000       1.820462        49.5373 
 322   0.0000       1.824927        49.6588 
 323   0.0000       1.831199        49.8295 
 324   0.0000       1.845482        50.2181 
 325   0.0000       1.868345        50.8402 
 326   0.0000       1.872295        50.9477 
 327   0.0000       1.883621        51.2559 
 328   0.0000       1.902372        51.7662 
 329   0.0000       1.909139        51.9503 
 330   0.0000       1.921282        52.2807 
 331   0.0000       1.929799        52.5125 
 332   0.0000       1.939751        52.7833 
 333   0.0000       1.945902        52.9507 
 334   0.0000       1.949762        53.0557 
 335   0.0000       1.958286        53.2877 
 336   0.0000       1.981969        53.9321 
 337   0.0000       1.992903        54.2296 
 338   0.0000       1.999405        54.4066 
 339   0.0000       2.018261        54.9197 
 340   0.0000       2.028400        55.1956 
 341   0.0000       2.035685        55.3938 
 342   0.0000       2.045083        55.6495 
 343   0.0000       2.066504        56.2324 
 344   0.0000       2.108628        57.3787 
 345   0.0000       2.122100        57.7453 
 346   0.0000       2.125757        57.8448 
 347   0.0000       2.125976        57.8508 
 348   0.0000       2.130044        57.9614 
 349   0.0000       2.159200        58.7548 
 350   0.0000       2.179569        59.3091 
 351   0.0000       2.204608        59.9904 
 352   0.0000       2.216836        60.3232 
 353   0.0000       2.219737        60.4021 
 354   0.0000       2.239332        60.9353 
 355   0.0000       2.262486        61.5654 
 356   0.0000       2.280840        62.0648 
 357   0.0000       2.286365        62.2152 
 358   0.0000       2.296303        62.4856 
 359   0.0000       2.301740        62.6335 
 360   0.0000       2.309553        62.8461 
 361   0.0000       2.330797        63.4242 
 362   0.0000       2.331482        63.4429 
 363   0.0000       2.352945        64.0269 
 364   0.0000       2.364353        64.3373 
 365   0.0000       2.369922        64.4888 
 366   0.0000       2.376261        64.6613 
 367   0.0000       2.389953        65.0339 
 368   0.0000       2.411823        65.6290 
 369   0.0000       2.418632        65.8143 
 370   0.0000       2.440162        66.4002 
 371   0.0000       2.450481        66.6810 
 372   0.0000       2.466756        67.1238 
 373   0.0000       2.469180        67.1898 
 374   0.0000       2.486693        67.6663 
 375   0.0000       2.501695        68.0746 
 376   0.0000       2.509389        68.2840 
 377   0.0000       2.512553        68.3700 
 378   0.0000       2.532429        68.9109 
 379   0.0000       2.550804        69.4109 
 380   0.0000       2.557482        69.5926 
 381   0.0000       2.583561        70.3023 
 382   0.0000       2.589500        70.4639 
 383   0.0000       2.594849        70.6094 
 384   0.0000       2.610951        71.0476 
 385   0.0000       2.621623        71.3380 
 386   0.0000       2.630785        71.5873 
 387   0.0000       2.635332        71.7110 
 388   0.0000       2.657008        72.3009 
 389   0.0000       2.674281        72.7709 
 390   0.0000       2.681148        72.9577 
 391   0.0000       2.685225        73.0687 
 392   0.0000       2.705291        73.6147 
 393   0.0000       2.712297        73.8054 
 394   0.0000       2.726552        74.1932 
 395   0.0000       2.733940        74.3943 
 396   0.0000       2.746848        74.7455 
 397   0.0000       2.750035        74.8322 
 398   0.0000       2.754509        74.9540 
 399   0.0000       2.764043        75.2134 
 400   0.0000       2.769460        75.3608 
 401   0.0000       2.782144        75.7060 
 402   0.0000       2.788736        75.8854 
 403   0.0000       2.816498        76.6408 
 404   0.0000       2.820393        76.7468 
 405   0.0000       2.829456        76.9934 
 406   0.0000       2.838410        77.2371 
 407   0.0000       2.845917        77.4413 
 408   0.0000       2.864613        77.9501 
 409   0.0000       2.865743        77.9808 
 410   0.0000       2.879071        78.3435 
 411   0.0000       2.883210        78.4561 
 412   0.0000       2.887610        78.5759 
 413   0.0000       2.899816        78.9080 
 414   0.0000       2.906403        79.0872 
 415   0.0000       2.918911        79.4276 
 416   0.0000       2.929356        79.7118 
 417   0.0000       2.934656        79.8561 
 418   0.0000       2.939172        79.9789 
 419   0.0000       2.949436        80.2582 
 420   0.0000       2.957079        80.4662 
 421   0.0000       2.969877        80.8145 
 422   0.0000       2.978348        81.0450 
 423   0.0000       2.986874        81.2770 
 424   0.0000       3.001041        81.6625 
 425   0.0000       3.009409        81.8902 
 426   0.0000       3.027380        82.3792 
 427   0.0000       3.031116        82.4809 
 428   0.0000       3.040287        82.7304 
 429   0.0000       3.048081        82.9425 
 430   0.0000       3.053572        83.0919 
 431   0.0000       3.059853        83.2628 
 432   0.0000       3.073757        83.6412 
 433   0.0000       3.078749        83.7770 
 434   0.0000       3.086965        84.0006 
 435   0.0000       3.089573        84.0716 
 436   0.0000       3.093504        84.1785 
 437   0.0000       3.096284        84.2542 
 438   0.0000       3.100233        84.3616 
 439   0.0000       3.106491        84.5319 
 440   0.0000       3.118466        84.8578 
 441   0.0000       3.124696        85.0273 
 442   0.0000       3.130624        85.1886 
 443   0.0000       3.141369        85.4810 
 444   0.0000       3.147579        85.6500 
 445   0.0000       3.152174        85.7750 
 446   0.0000       3.156464        85.8917 
 447   0.0000       3.162028        86.0432 
 448   0.0000       3.178085        86.4801 
 449   0.0000       3.190150        86.8084 
 450   0.0000       3.200671        87.0947 
 451   0.0000       3.208791        87.3156 
 452   0.0000       3.209453        87.3336 
 453   0.0000       3.218575        87.5819 
 454   0.0000       3.224821        87.7518 
 455   0.0000       3.230977        87.9193 
 456   0.0000       3.238714        88.1299 
 457   0.0000       3.240488        88.1782 
 458   0.0000       3.257379        88.6378 
 459   0.0000       3.265612        88.8618 
 460   0.0000       3.270714        89.0007 
 461   0.0000       3.277524        89.1860 
 462   0.0000       3.281846        89.3036 
 463   0.0000       3.290635        89.5427 
 464   0.0000       3.297666        89.7340 
 465   0.0000       3.305457        89.9461 
 466   0.0000       3.309291        90.0504 
 467   0.0000       3.317188        90.2653 
 468   0.0000       3.323109        90.4264 
 469   0.0000       3.328976        90.5860 
 470   0.0000       3.335672        90.7682 
 471   0.0000       3.341600        90.9296 
 472   0.0000       3.346687        91.0680 
 473   0.0000       3.351510        91.1992 
 474   0.0000       3.360401        91.4411 
 475   0.0000       3.367561        91.6360 
 476   0.0000       3.375068        91.8403 
 477   0.0000       3.377626        91.9099 
 478   0.0000       3.380656        91.9923 
 479   0.0000       3.390881        92.2706 
 480   0.0000       3.396117        92.4130 
 481   0.0000       3.400456        92.5311 
 482   0.0000       3.404738        92.6476 
 483   0.0000       3.413161        92.8768 
 484   0.0000       3.415924        92.9520 
 485   0.0000       3.420444        93.0750 
 486   0.0000       3.422499        93.1309 
 487   0.0000       3.428926        93.3058 
 488   0.0000       3.434895        93.4682 
 489   0.0000       3.440819        93.6294 
 490   0.0000       3.446252        93.7773 
 491   0.0000       3.449903        93.8766 
 492   0.0000       3.453752        93.9814 
 493   0.0000       3.458361        94.1068 
 494   0.0000       3.461675        94.1970 
 495   0.0000       3.473203        94.5107 
 496   0.0000       3.477246        94.6207 
 497   0.0000       3.483445        94.7894 
 498   0.0000       3.490634        94.9850 
 499   0.0000       3.491727        95.0147 
 500   0.0000       3.511937        95.5647 
 501   0.0000       3.528459        96.0143 
 502   0.0000       3.530157        96.0604 
 503   0.0000       3.537124        96.2500 
 504   0.0000       3.545336        96.4735 
 505   0.0000       3.554836        96.7320 
 506   0.0000       3.555893        96.7608 
 507   0.0000       3.566340        97.0451 
 508   0.0000       3.568349        97.0997 
 509   0.0000       3.572420        97.2105 
 510   0.0000       3.579104        97.3924 
 511   0.0000       3.591904        97.7407 
 512   0.0000       3.595680        97.8434 
 513   0.0000       3.610067        98.2349 
 514   0.0000       3.615753        98.3896 
 515   0.0000       3.624925        98.6392 
 516   0.0000       3.628895        98.7473 
 517   0.0000       3.635245        98.9200 
 518   0.0000       3.639935        99.0477 
 519   0.0000       3.645716        99.2050 
 520   0.0000       3.654923        99.4555 
 521   0.0000       3.657153        99.5162 
 522   0.0000       3.659165        99.5709 
 523   0.0000       3.667192        99.7894 
 524   0.0000       3.678420       100.0949 
 525   0.0000       3.684642       100.2642 
 526   0.0000       3.691034       100.4381 
 527   0.0000       3.695671       100.5643 
 528   0.0000       3.697846       100.6235 
 529   0.0000       3.706022       100.8460 
 530   0.0000       3.714563       101.0784 
 531   0.0000       3.718321       101.1806 
 532   0.0000       3.725776       101.3835 
 533   0.0000       3.727739       101.4369 
 534   0.0000       3.746046       101.9351 
 535   0.0000       3.749480       102.0285 
 536   0.0000       3.757116       102.2363 
 537   0.0000       3.760938       102.3403 
 538   0.0000       3.768012       102.5328 
 539   0.0000       3.773429       102.6802 
 540   0.0000       3.780022       102.8596 
 541   0.0000       3.784502       102.9815 
 542   0.0000       3.785604       103.0115 
 543   0.0000       3.803229       103.4911 
 544   0.0000       3.806038       103.5676 
 545   0.0000       3.808923       103.6461 
 546   0.0000       3.810366       103.6853 
 547   0.0000       3.817865       103.8894 
 548   0.0000       3.826264       104.1179 
 549   0.0000       3.838828       104.4598 
 550   0.0000       3.842764       104.5669 
 551   0.0000       3.845997       104.6549 
 552   0.0000       3.857302       104.9625 
 553   0.0000       3.877478       105.5115 
 554   0.0000       3.891019       105.8800 
 555   0.0000       3.897165       106.0473 
 556   0.0000       3.909715       106.3888 
 557   0.0000       3.916792       106.5813 
 558   0.0000       3.927493       106.8725 
 559   0.0000       3.930449       106.9529 
 560   0.0000       3.939489       107.1989 
 561   0.0000       3.944460       107.3342 
 562   0.0000       3.949871       107.4814 
 563   0.0000       3.977588       108.2357 
 564   0.0000       3.980726       108.3211 
 565   0.0000       3.984450       108.4224 
 566   0.0000       3.992708       108.6471 
 567   0.0000       3.999615       108.8351 
 568   0.0000       4.008798       109.0849 
 569   0.0000       4.018978       109.3620 
 570   0.0000       4.037564       109.8677 
 571   0.0000       4.038583       109.8954 
 572   0.0000       4.043586       110.0316 
 573   0.0000       4.047368       110.1345 
 574   0.0000       4.057713       110.4160 
 575   0.0000       4.072036       110.8057 
 576   0.0000       4.079748       111.0156 
 577   0.0000       4.084704       111.1504 
 578   0.0000       4.099538       111.5541 
 579   0.0000       4.110267       111.8460 
 580   0.0000       4.121932       112.1635 
 581   0.0000       4.127354       112.3110 
 582   0.0000       4.129560       112.3710 
 583   0.0000       4.134708       112.5111 
 584   0.0000       4.139333       112.6370 
 585   0.0000       4.144976       112.7905 
 586   0.0000       4.153454       113.0212 
 587   0.0000       4.161054       113.2280 
 588   0.0000       4.164099       113.3109 
 589   0.0000       4.176783       113.6560 
 590   0.0000       4.179685       113.7350 
 591   0.0000       4.189543       114.0033 
 592   0.0000       4.193006       114.0975 
 593   0.0000       4.200345       114.2972 
 594   0.0000       4.201648       114.3327 
 595   0.0000       4.205179       114.4287 
 596   0.0000       4.217601       114.7668 
 597   0.0000       4.224227       114.9471 
 598   0.0000       4.227518       115.0366 
 599   0.0000       4.234231       115.2193 
 600   0.0000       4.241175       115.4082 
 601   0.0000       4.250332       115.6574 
 602   0.0000       4.265751       116.0770 
 603   0.0000       4.269252       116.1723 
 604   0.0000       4.276318       116.3645 
 605   0.0000       4.287314       116.6638 
 606   0.0000       4.309276       117.2614 
 607   0.0000       4.316796       117.4660 
 608   0.0000       4.325671       117.7075 
 609   0.0000       4.329563       117.8134 
 610   0.0000       4.338556       118.0581 
 611   0.0000       4.339760       118.0909 
 612   0.0000       4.352247       118.4307 
 613   0.0000       4.365891       118.8019 
 614   0.0000       4.368619       118.8762 
 615   0.0000       4.372873       118.9919 
 616   0.0000       4.376818       119.0993 
 617   0.0000       4.387416       119.3877 
 618   0.0000       4.393635       119.5569 
 619   0.0000       4.396557       119.6364 
 620   0.0000       4.407231       119.9268 
 621   0.0000       4.410957       120.0282 
 622   0.0000       4.419846       120.2701 
 623   0.0000       4.428264       120.4992 
 624   0.0000       4.433739       120.6482 
 625   0.0000       4.446924       121.0069 
 626   0.0000       4.457660       121.2991 
 627   0.0000       4.460295       121.3708 
 628   0.0000       4.469946       121.6334 
 629   0.0000       4.479668       121.8980 
 630   0.0000       4.496326       122.3513 
 631   0.0000       4.497408       122.3807 
 632   0.0000       4.512440       122.7897 
 633   0.0000       4.529589       123.2564 
 634   0.0000       4.533227       123.3554 
 635   0.0000       4.542328       123.6030 
 636   0.0000       4.551533       123.8535 
 637   0.0000       4.561672       124.1294 
 638   0.0000       4.567709       124.2937 
 639   0.0000       4.575767       124.5129 
 640   0.0000       4.579618       124.6178 
 641   0.0000       4.581888       124.6795 
 642   0.0000       4.589588       124.8890 
 643   0.0000       4.595121       125.0396 
 644   0.0000       4.605037       125.3094 
 645   0.0000       4.613509       125.5400 
 646   0.0000       4.622067       125.7728 
 647   0.0000       4.634355       126.1072 
 648   0.0000       4.642992       126.3422 
 649   0.0000       4.648823       126.5009 
 650   0.0000       4.653603       126.6310 
 651   0.0000       4.658511       126.7645 
 652   0.0000       4.669297       127.0580 
 653   0.0000       4.674713       127.2054 
 654   0.0000       4.683498       127.4445 
 655   0.0000       4.694840       127.7531 
 656   0.0000       4.705626       128.0466 
 657   0.0000       4.714002       128.2745 
 658   0.0000       4.729843       128.7056 
 659   0.0000       4.739369       128.9648 
 660   0.0000       4.748150       129.2037 
 661   0.0000       4.751967       129.3076 
 662   0.0000       4.761553       129.5684 
 663   0.0000       4.790454       130.3549 
 664   0.0000       4.791990       130.3967 
 665   0.0000       4.815628       131.0399 
 666   0.0000       4.838469       131.6614 
 667   0.0000       4.848436       131.9327 
 668   0.0000       4.851246       132.0091 
 669   0.0000       4.879851       132.7875 
 670   0.0000       4.897619       133.2710 
 671   0.0000       4.917573       133.8140 
 672   0.0000       4.930605       134.1686 
 673   0.0000       4.957937       134.9123 
 674   0.0000       4.986235       135.6824 
 675   0.0000       4.990077       135.7869 
 676   0.0000       5.007701       136.2665 
 677   0.0000       5.015609       136.4816 
 678   0.0000       5.031939       136.9260 
 679   0.0000       5.050116       137.4207 
 680   0.0000       5.052537       137.4865 
 681   0.0000       5.074760       138.0913 
 682   0.0000       5.082827       138.3107 
 683   0.0000       5.095037       138.6430 
 684   0.0000       5.097961       138.7226 
 685   0.0000       5.110481       139.0633 
 686   0.0000       5.124591       139.4472 
 687   0.0000       5.141283       139.9014 
 688   0.0000       5.145163       140.0070 
 689   0.0000       5.158432       140.3681 
 690   0.0000       5.162738       140.4853 
 691   0.0000       5.164470       140.5324 
 692   0.0000       5.181894       141.0065 
 693   0.0000       5.199888       141.4961 
 694   0.0000       5.208799       141.7386 
 695   0.0000       5.217447       141.9740 
 696   0.0000       5.226111       142.2097 
 697   0.0000       5.227547       142.2488 
 698   0.0000       5.237819       142.5283 
 699   0.0000       5.245226       142.7299 
 700   0.0000       5.258143       143.0813 
 701   0.0000       5.272433       143.4702 
 702   0.0000       5.290340       143.9575 
 703   0.0000       5.304293       144.3371 
 704   0.0000       5.314989       144.6282 
 705   0.0000       5.335702       145.1918 
 706   0.0000       5.347965       145.5255 
 707   0.0000       5.363559       145.9499 
 708   0.0000       5.367492       146.0569 
 709   0.0000       5.371808       146.1743 
 710   0.0000       5.390979       146.6960 
 711   0.0000       5.412190       147.2732 
 712   0.0000       5.428712       147.7228 
 713   0.0000       5.454944       148.4366 
 714   0.0000       5.466758       148.7580 
 715   0.0000       5.491788       149.4392 
 716   0.0000       5.506047       149.8271 
 717   0.0000       5.513857       150.0397 
 718   0.0000       5.524005       150.3158 
 719   0.0000       5.535054       150.6165 
 720   0.0000       5.541177       150.7831 
 721   0.0000       5.547610       150.9581 
 722   0.0000       5.550295       151.0312 
 723   0.0000       5.560314       151.3038 
 724   0.0000       5.575217       151.7094 
 725   0.0000       5.586109       152.0057 
 726   0.0000       5.593377       152.2035 
 727   0.0000       5.618673       152.8919 
 728   0.0000       5.635999       153.3633 
 729   0.0000       5.640384       153.4826 
 730   0.0000       5.644759       153.6017 
 731   0.0000       5.666366       154.1897 
 732   0.0000       5.667771       154.2279 
 733   0.0000       5.676973       154.4783 
 734   0.0000       5.705811       155.2630 
 735   0.0000       5.710915       155.4019 
 736   0.0000       5.722259       155.7106 
 737   0.0000       5.726668       155.8306 
 738   0.0000       5.739149       156.1702 
 739   0.0000       5.755034       156.6024 
 740   0.0000       5.768691       156.9741 
 741   0.0000       5.779667       157.2727 
 742   0.0000       5.794629       157.6799 
 743   0.0000       5.805957       157.9881 
 744   0.0000       5.821333       158.4065 
 745   0.0000       5.834905       158.7758 
 746   0.0000       5.861762       159.5066 
 747   0.0000       5.898385       160.5032 
 748   0.0000       5.902737       160.6216 
 749   0.0000       5.925529       161.2419 
 750   0.0000       5.937343       161.5633 
 751   0.0000       5.970301       162.4601 
 752   0.0000       5.977473       162.6553 
 753   0.0000       5.992443       163.0627 
 754   0.0000       6.004053       163.3786 
 755   0.0000       6.013242       163.6286 
 756   0.0000       6.060985       164.9278 
 757   0.0000       6.067361       165.1013 
 758   0.0000       6.079061       165.4197 
 759   0.0000       6.106263       166.1599 
 760   0.0000       6.122569       166.6036 
 761   0.0000       6.184470       168.2880 
 762   0.0000       6.201316       168.7464 
 763   0.0000       6.225383       169.4013 
 764   0.0000       6.238876       169.7684 
 765   0.0000       6.270221       170.6214 
 766   0.0000       6.293042       171.2424 
 767   0.0000       6.300965       171.4580 
 768   0.0000       6.341980       172.5741 
 769   0.0000       6.353309       172.8823 
 770   0.0000       6.355124       172.9317 
 771   0.0000       6.371715       173.3832 
 772   0.0000       6.387601       173.8155 
 773   0.0000       6.442836       175.3185 
 774   0.0000       6.489671       176.5929 
 775   0.0000       6.499314       176.8553 
 776   0.0000       6.535991       177.8533 
 777   0.0000       6.554085       178.3457 
 778   0.0000       6.564976       178.6421 
 779   0.0000       6.621835       180.1893 
 780   0.0000       6.662182       181.2872 
 781   0.0000       6.710534       182.6029 
 782   0.0000       6.717591       182.7949 
 783   0.0000       6.763922       184.0557 
 784   0.0000       6.839556       186.1138 
 785   0.0000       6.885215       187.3562 
 786   0.0000       6.890554       187.5015 
 787   0.0000       6.908230       187.9825 
 788   0.0000       6.924129       188.4151 
 789   0.0000       7.027263       191.2215 
 790   0.0000       7.065155       192.2526 
 791   0.0000       7.085499       192.8062 
 792   0.0000       7.095396       193.0756 
 793   0.0000       7.133173       194.1035 
 794   0.0000       7.173451       195.1995 
 795   0.0000       7.254025       197.3921 
 796   0.0000       7.285114       198.2380 
 797   0.0000       7.288749       198.3369 
 798   0.0000       7.341926       199.7840 
 799   0.0000       7.357213       200.1999 
 800   0.0000       7.459881       202.9937 
 801   0.0000       7.516340       204.5300 
 802   0.0000       7.578159       206.2122 
 803   0.0000       7.584707       206.3904 
 804   0.0000       7.702975       209.6086 
 805   0.0000       7.818490       212.7519 
 806   0.0000       7.839913       213.3349 
 807   0.0000       7.939307       216.0395 
 808   0.0000       7.980283       217.1545 
 809   0.0000       9.388701       255.4795 
 810   0.0000       9.541320       259.6325 
 811   0.0000      10.841642       295.0161 
 812   0.0000      11.377750       309.6043 
 813   0.0000      11.914722       324.2161 
 814   0.0000      12.476187       339.4943 
 815   0.0000      12.826174       349.0179 
 816   0.0000      13.030277       354.5719 
 817   0.0000      13.104744       356.5982 
 818   0.0000      13.222201       359.7944 
 819   0.0000      13.314144       362.2963 
 820   0.0000      13.635602       371.0436 
 821   0.0000      13.720308       373.3486 
 822   0.0000      13.829009       376.3065 
 823   0.0000      13.888687       377.9304 
 824   0.0000      14.034768       381.9054 
 825   0.0000      14.493823       394.3970 
 826   0.0000      14.644381       398.4939 
 827   0.0000      15.827215       430.6804 

                    ********************************
                    * MULLIKEN POPULATION ANALYSIS *
                    ********************************

-----------------------
MULLIKEN ATOMIC CHARGES
-----------------------
   0 C :   -0.277207
   1 C :    0.020798
   2 O :   -0.345000
   3 C :    0.452011
   4 O :   -0.436636
   5 C :   -0.236134
   6 C :    0.172983
   7 C :   -0.271214
   8 N :   -0.125808
   9 C :    0.199454
  10 S :   -0.434678
  11 N :   -0.179273
  12 C :    0.083087
  13 C :    0.015042
  14 C :   -0.188264
  15 C :   -0.130528
  16 C :   -0.279513
  17 C :    0.313238
  18 O :   -0.357595
  19 C :   -0.261938
  20 H :    0.084221
  21 H :    0.100957
  22 H :    0.110677
  23 H :    0.099354
  24 H :    0.115514
  25 H :    0.130361
  26 H :    0.095069
  27 H :    0.134070
  28 H :    0.199672
  29 H :    0.196665
  30 H :    0.168133
  31 H :    0.143602
  32 H :    0.159318
  33 H :    0.128215
  34 H :    0.240212
  35 H :    0.161134
Sum of atomic charges:    0.0000000

--------------------------------
MULLIKEN REDUCED ORBITAL CHARGES
--------------------------------
  0 C s       :     3.252435  s :     3.252435
      pz      :     0.984425  p :     2.946739
      px      :     1.008948
      py      :     0.953366
      dz2     :     0.007800  d :     0.073556
      dxz     :     0.021293
      dyz     :     0.019787
      dx2y2   :     0.008027
      dxy     :     0.016649
      f0      :     0.000294  f :     0.004477
      f+1     :     0.000483
      f-1     :     0.000424
      f+2     :     0.000943
      f-2     :     0.001424
      f+3     :     0.000440
      f-3     :     0.000469
  1 C s       :     3.182259  s :     3.182259
      pz      :     0.895212  p :     2.636886
      px      :     0.921572
      py      :     0.820102
      dz2     :     0.028084  d :     0.148507
      dxz     :     0.028881
      dyz     :     0.032614
      dx2y2   :     0.024349
      dxy     :     0.034579
      f0      :     0.000958  f :     0.011549
      f+1     :     0.001392
      f-1     :     0.002127
      f+2     :     0.002143
      f-2     :     0.002323
      f+3     :     0.001256
      f-3     :     0.001349
  2 O s       :     3.713270  s :     3.713270
      pz      :     1.664423  p :     4.595516
      px      :     1.692941
      py      :     1.238152
      dz2     :     0.004929  d :     0.033940
      dxz     :     0.004721
      dyz     :     0.006939
      dx2y2   :     0.008208
      dxy     :     0.009144
      f0      :     0.000233  f :     0.002273
      f+1     :     0.000128
      f-1     :     0.000408
      f+2     :     0.000267
      f-2     :     0.000335
      f+3     :     0.000472
      f-3     :     0.000431
  3 C s       :     3.066093  s :     3.066093
      pz      :     0.718038  p :     2.157798
      px      :     0.743950
      py      :     0.695811
      dz2     :     0.051758  d :     0.297590
      dxz     :     0.038168
      dyz     :     0.054182
      dx2y2   :     0.079258
      dxy     :     0.074224
      f0      :     0.002083  f :     0.026508
      f+1     :     0.004059
      f-1     :     0.002172
      f+2     :     0.004393
      f-2     :     0.003195
      f+3     :     0.005793
      f-3     :     0.004812
  4 O s       :     3.768176  s :     3.768176
      pz      :     1.497491  p :     4.630945
      px      :     1.394103
      py      :     1.739351
      dz2     :     0.006278  d :     0.035103
      dxz     :     0.009041
      dyz     :     0.004260
      dx2y2   :     0.008323
      dxy     :     0.007201
      f0      :     0.000207  f :     0.002411
      f+1     :     0.000424
      f-1     :     0.000129
      f+2     :     0.000370
      f-2     :     0.000484
      f+3     :     0.000359
      f-3     :     0.000437
  5 C s       :     3.203791  s :     3.203791
      pz      :     1.112368  p :     2.937273
      px      :     0.967419
      py      :     0.857486
      dz2     :     0.010506  d :     0.084738
      dxz     :     0.007531
      dyz     :     0.025305
      dx2y2   :     0.013258
      dxy     :     0.028138
      f0      :     0.001123  f :     0.010332
      f+1     :     0.001003
      f-1     :     0.001090
      f+2     :     0.001893
      f-2     :     0.001692
      f+3     :     0.001837
      f-3     :     0.001693
  6 C s       :     3.177894  s :     3.177894
      pz      :     0.776170  p :     2.459673
      px      :     0.840944
      py      :     0.842559
      dz2     :     0.026213  d :     0.175151
      dxz     :     0.019963
      dyz     :     0.044621
      dx2y2   :     0.030670
      dxy     :     0.053684
      f0      :     0.001631  f :     0.014300
      f+1     :     0.001920
      f-1     :     0.001535
      f+2     :     0.002234
      f-2     :     0.001942
      f+3     :     0.002800
      f-3     :     0.002237
  7 C s       :     3.271651  s :     3.271651
      pz      :     1.013862  p :     2.925862
      px      :     0.967613
      py      :     0.944387
      dz2     :     0.019311  d :     0.069062
      dxz     :     0.008996
      dyz     :     0.009589
      dx2y2   :     0.019100
      dxy     :     0.012066
      f0      :     0.001314  f :     0.004639
      f+1     :     0.000266
      f-1     :     0.000324
      f+2     :     0.000229
      f-2     :     0.000751
      f+3     :     0.000686
      f-3     :     0.001068
  8 N s       :     3.342737  s :     3.342737
      pz      :     1.440435  p :     3.718799
      px      :     1.192330
      py      :     1.086034
      dz2     :     0.008519  d :     0.059348
      dxz     :     0.010678
      dyz     :     0.007594
      dx2y2   :     0.018698
      dxy     :     0.013859
      f0      :     0.000625  f :     0.004924
      f+1     :     0.000898
      f-1     :     0.000377
      f+2     :     0.000805
      f-2     :     0.000932
      f+3     :     0.000606
      f-3     :     0.000681
  9 C s       :     3.158747  s :     3.158747
      pz      :     0.735690  p :     2.360629
      px      :     0.808553
      py      :     0.816385
      dz2     :     0.039856  d :     0.263430
      dxz     :     0.033112
      dyz     :     0.058865
      dx2y2   :     0.075737
      dxy     :     0.055861
      f0      :     0.001741  f :     0.017740
      f+1     :     0.002720
      f-1     :     0.001748
      f+2     :     0.003184
      f-2     :     0.001777
      f+3     :     0.003514
      f-3     :     0.003057
 10 S s       :     5.856114  s :     5.856114
      pz      :     3.478430  p :    10.483496
      px      :     3.394544
      py      :     3.610522
      dz2     :     0.012072  d :     0.084924
      dxz     :     0.019291
      dyz     :     0.016855
      dx2y2   :     0.007307
      dxy     :     0.029399
      f0      :     0.001049  f :     0.010145
      f+1     :     0.001205
      f-1     :     0.000899
      f+2     :     0.000679
      f-2     :     0.003179
      f+3     :     0.001032
      f-3     :     0.002102
 11 N s       :     3.365631  s :     3.365631
      pz      :     1.475160  p :     3.748496
      px      :     1.260491
      py      :     1.012845
      dz2     :     0.005171  d :     0.060445
      dxz     :     0.007590
      dyz     :     0.013906
      dx2y2   :     0.015567
      dxy     :     0.018211
      f0      :     0.000685  f :     0.004701
      f+1     :     0.000385
      f-1     :     0.000633
      f+2     :     0.000719
      f-2     :     0.000681
      f+3     :     0.000758
      f-3     :     0.000840
 12 C s       :     3.101090  s :     3.101090
      pz      :     0.903125  p :     2.625223
      px      :     0.834249
      py      :     0.887849
      dz2     :     0.027370  d :     0.179487
      dxz     :     0.030827
      dyz     :     0.051450
      dx2y2   :     0.029002
      dxy     :     0.040839
      f0      :     0.001015  f :     0.011113
      f+1     :     0.001735
      f-1     :     0.001459
      f+2     :     0.001367
      f-2     :     0.002710
      f+3     :     0.001393
[...]
      f+2     :     0.007164
      f-2     :     0.004617
      f+3     :     0.005875
      f-3     :     0.006065
 15 C s       :     2.706738  s :     2.706738
      pz      :     0.946898  p :     2.798521
      px      :     0.880213
      py      :     0.971410
      dz2     :     0.120554  d :     0.417412
      dxz     :     0.070548
      dyz     :     0.082988
      dx2y2   :     0.090310
      dxy     :     0.053013
      f0      :     0.005328  f :     0.040928
      f+1     :     0.005406
      f-1     :     0.007927
      f+2     :     0.007292
      f-2     :     0.006783
      f+3     :     0.003650
      f-3     :     0.004543
 16 C s       :     2.701864  s :     2.701864
      pz      :     0.957223  p :     2.873246
      px      :     0.938483
      py      :     0.977541
      dz2     :     0.067381  d :     0.391425
      dxz     :     0.047412
      dyz     :     0.115013
      dx2y2   :     0.078099
      dxy     :     0.083519
      f0      :     0.006179  f :     0.040366
      f+1     :     0.004633
      f-1     :     0.005508
      f+2     :     0.006716
      f-2     :     0.004925
      f+3     :     0.007198
      f-3     :     0.005207
 17 C s       :     2.702577  s :     2.702577
      pz      :     0.851131  p :     2.682237
      px      :     0.815367
      py      :     1.015739
      dz2     :     0.155512  d :     0.707403
      dxz     :     0.104734
      dyz     :     0.182901
      dx2y2   :     0.125413
      dxy     :     0.138843
      f0      :     0.016795  f :     0.098891
      f+1     :     0.012555
      f-1     :     0.014634
      f+2     :     0.018371
      f-2     :     0.014902
      f+3     :     0.011600
      f-3     :     0.010034
 18 O s       :     3.177350  s :     3.177350
      pz      :     1.334794  p :     4.348445
      px      :     1.514453
      py      :     1.499199
      dz2     :     0.012838  d :     0.075487
      dxz     :     0.015926
      dyz     :     0.025875
      dx2y2   :     0.009566
      dxy     :     0.011282
      f0      :     0.000767  f :     0.005057
      f+1     :     0.000589
      f-1     :     0.000787
      f+2     :     0.001005
      f-2     :     0.001022
      f+3     :     0.000440
      f-3     :     0.000447
 19 C s       :     2.698428  s :     2.698428
      pz      :     0.959111  p :     2.853762
      px      :     0.926573
      py      :     0.968078
      dz2     :     0.099308  d :     0.386850
      dxz     :     0.067061
      dyz     :     0.086103
      dx2y2   :     0.079604
      dxy     :     0.054775
      f0      :     0.005064  f :     0.040158
      f+1     :     0.006186
      f-1     :     0.007408
      f+2     :     0.007005
      f-2     :     0.006948
      f+3     :     0.003537
      f-3     :     0.004010
 20 H s       :     0.852877  s :     0.852877
      pz      :     0.042605  p :     0.150372
      px      :     0.062738
      py      :     0.045028
      dz2     :     0.003041  d :     0.027232
      dxz     :     0.007134
      dyz     :     0.002880
      dx2y2   :     0.006910
      dxy     :     0.007266
 21 H s       :     0.849041  s :     0.849041
      pz      :     0.046639  p :     0.151166
      px      :     0.049087
      py      :     0.055439
      dz2     :     0.004943  d :     0.027356
      dxz     :     0.004215
      dyz     :     0.005758
      dx2y2   :     0.006812
      dxy     :     0.005628
 22 H s       :     0.845805  s :     0.845805
      pz      :     0.062557  p :     0.150338
      px      :     0.048306
      py      :     0.039476
      dz2     :     0.008232  d :     0.027661
      dxz     :     0.007030
      dyz     :     0.006391
      dx2y2   :     0.003038
      dxy     :     0.002969
 23 H s       :     0.859833  s :     0.859833
      pz      :     0.065183  p :     0.149665
      px      :     0.046065
      py      :     0.038418
      dz2     :     0.008881  d :     0.027875
      dxz     :     0.006835
      dyz     :     0.006296
      dx2y2   :     0.002294
      dxy     :     0.003569
 24 H s       :     0.847985  s :     0.847985
      pz      :     0.038475  p :     0.150428
      px      :     0.069375
      py      :     0.042578
      dz2     :     0.002953  d :     0.026833
      dxz     :     0.007351
      dyz     :     0.002774
      dx2y2   :     0.007613
      dxy     :     0.006141
 25 H s       :     0.826096  s :     0.826096
      pz      :     0.074860  p :     0.151584
      px      :     0.038967
      py      :     0.037757
      dz2     :     0.009563  d :     0.027860
      dxz     :     0.009239
      dyz     :     0.008654
      dx2y2   :     0.000326
      dxy     :     0.000078
 26 H s       :     0.845503  s :     0.845503
      pz      :     0.041642  p :     0.150422
      px      :     0.038569
      py      :     0.070212
      dz2     :     0.003332  d :     0.027694
      dxz     :     0.000370
      dyz     :     0.008472
      dx2y2   :     0.006952
      dxy     :     0.008569
 27 H s       :     0.824306  s :     0.824306
      pz      :     0.041711  p :     0.150777
      px      :     0.069444
      py      :     0.039621
      dz2     :     0.003975  d :     0.027675
      dxz     :     0.007912
      dyz     :     0.000908
      dx2y2   :     0.007290
      dxy     :     0.007590
 28 H s       :     0.741263  s :     0.741263
      pz      :     0.076301  p :     0.253847
      px      :     0.055974
      py      :     0.121572
      dz2     :     0.005348  d :     0.061864
      dxz     :     0.000572
      dyz     :     0.021496
      dx2y2   :     0.016291
      dxy     :     0.018157
 29 H s       :     0.744822  s :     0.744822
      pz      :     0.093995  p :     0.253230
      px      :     0.108197
      py      :     0.051038
      dz2     :     0.012459  d :     0.061885
      dxz     :     0.014753
      dyz     :     0.007183
      dx2y2   :     0.014820
      dxy     :     0.012670
 30 H s       :     0.835022  s :     0.835022
      pz      :     0.059905  p :     0.164008
      px      :     0.040847
      py      :     0.063256
      dz2     :     0.007132  d :     0.031232
      dxz     :     0.004879
      dyz     :     0.007693
      dx2y2   :     0.005329
      dxy     :     0.006199
 31 H s       :     0.850594  s :     0.850594
      pz      :     0.061277  p :     0.158419
      px      :     0.057189
      py      :     0.039954
      dz2     :     0.007233  d :     0.027571
      dxz     :     0.006443
      dyz     :     0.005855
      dx2y2   :     0.004052
      dxy     :     0.003989
 32 H s       :     0.844539  s :     0.844539
      pz      :     0.035129  p :     0.151517
      px      :     0.039291
      py      :     0.077097
      dz2     :     0.002691  d :     0.026430
      dxz     :     0.000315
      dyz     :     0.008004
      dx2y2   :     0.007682
      dxy     :     0.007738
 33 H s       :     0.849646  s :     0.849646
      pz      :     0.060164  p :     0.159417
      px      :     0.050264
      py      :     0.048989
      dz2     :     0.007266  d :     0.027778
      dxz     :     0.005302
      dyz     :     0.006710
      dx2y2   :     0.004354
      dxy     :     0.004146
 34 H s       :     0.707018  s :     0.707018
      pz      :     0.106618  p :     0.348119
      px      :     0.096460
      py      :     0.145041
      dz2     :     0.023488  d :     0.099634
      dxz     :     0.013563
      dyz     :     0.024169
      dx2y2   :     0.018338
      dxy     :     0.020077
 35 H s       :     0.841544  s :     0.841544
      pz      :     0.036681  p :     0.158714
      px      :     0.043068
      py      :     0.078966
      dz2     :     0.002774  d :     0.028354
      dxz     :     0.000349
      dyz     :     0.008679
      dx2y2   :     0.007905
      dxy     :     0.008647


                      *****************************
                      * MAYER POPULATION ANALYSIS *
                      *****************************

  NA   - Mulliken gross atomic population
  ZA   - Total nuclear charge
  QA   - Mulliken gross atomic charge
  VA   - Mayer's total valence
  BVA  - Mayer's bonded valence
  FA   - Mayer's free valence

  ATOM       NA         ZA         QA         VA         BVA        FA
  0 C      6.2772     6.0000    -0.2772     3.8824     3.8824     0.0000
  1 C      5.9792     6.0000     0.0208     3.8581     3.8581    -0.0000
  2 O      8.3450     8.0000    -0.3450     2.0738     2.0738     0.0000
  3 C      5.5480     6.0000     0.4520     4.2476     4.2476    -0.0000
  4 O      8.4366     8.0000    -0.4366     2.0798     2.0798     0.0000
  5 C      6.2361     6.0000    -0.2361     3.6416     3.6416     0.0000
  6 C      5.8270     6.0000     0.1730     3.8560     3.8560     0.0000
  7 C      6.2712     6.0000    -0.2712     3.9043     3.9043    -0.0000
  8 N      7.1258     7.0000    -0.1258     3.3067     3.3067     0.0000
  9 C      5.8005     6.0000     0.1995     4.1590     4.1590    -0.0000
 10 S     16.4347    16.0000    -0.4347     1.7630     1.7630    -0.0000
 11 N      7.1793     7.0000    -0.1793     3.2793     3.2793    -0.0000
 12 C      5.9169     6.0000     0.0831     3.9211     3.9211    -0.0000
 13 C      5.9850     6.0000     0.0150     3.7463     3.7463     0.0000
 14 C      6.1883     6.0000    -0.1883     3.8549     3.8549     0.0000
 15 C      6.1305     6.0000    -0.1305     3.8027     3.8027     0.0000
 16 C      6.2795     6.0000    -0.2795     3.7938     3.7938    -0.0000
 17 C      5.6868     6.0000     0.3132     3.8698     3.8698     0.0000
 18 O      8.3576     8.0000    -0.3576     2.1158     2.1158    -0.0000
 19 C      6.2619     6.0000    -0.2619     3.8532     3.8532    -0.0000
 20 H      0.9158     1.0000     0.0842     0.9861     0.9861    -0.0000
 21 H      0.8990     1.0000     0.1010     0.9829     0.9829    -0.0000
 22 H      0.8893     1.0000     0.1107     0.9814     0.9814     0.0000
 23 H      0.9006     1.0000     0.0994     0.9782     0.9782     0.0000
 24 H      0.8845     1.0000     0.1155     0.9867     0.9867    -0.0000
 25 H      0.8696     1.0000     0.1304     0.9811     0.9811     0.0000
 26 H      0.9049     1.0000     0.0951     0.9857     0.9857    -0.0000
 27 H      0.8659     1.0000     0.1341     0.9800     0.9800    -0.0000
 28 H      0.8003     1.0000     0.1997     1.0210     1.0210     0.0000
 29 H      0.8033     1.0000     0.1967     1.0191     1.0191    -0.0000
 30 H      0.8319     1.0000     0.1681     0.9931     0.9931    -0.0000
 31 H      0.8564     1.0000     0.1436     0.9855     0.9855     0.0000
 32 H      0.8407     1.0000     0.1593     0.9773     0.9773    -0.0000
 33 H      0.8718     1.0000     0.1282     0.9921     0.9921    -0.0000
 34 H      0.7598     1.0000     0.2402     1.0109     1.0109     0.0000
 35 H      0.8389     1.0000     0.1611     0.9889     0.9889     0.0000

  Mayer bond orders larger than 0.100000
B(  0-C ,  1-C ) :   0.9732 B(  0-C , 20-H ) :   0.9785 B(  0-C , 21-H ) :   0.9775 
B(  0-C , 22-H ) :   0.9746 B(  1-C ,  2-O ) :   0.8934 B(  1-C , 23-H ) :   0.9818 
B(  1-C , 24-H ) :   0.9760 B(  2-O ,  3-C ) :   1.1821 B(  3-C ,  4-O ) :   1.9622 
B(  3-C ,  5-C ) :   1.0651 B(  5-C ,  6-C ) :   1.6419 B(  5-C , 12-C ) :   0.9535 
B(  6-C ,  7-C ) :   0.9683 B(  6-C ,  8-N ) :   1.1511 B(  7-C , 25-H ) :   0.9607 
B(  7-C , 26-H ) :   0.9902 B(  7-C , 27-H ) :   0.9587 B(  8-N ,  9-C ) :   1.1877 
B(  8-N , 28-H ) :   0.9463 B(  9-C , 10-S ) :   1.6175 B(  9-C , 11-N ) :   1.3004 
B( 11-N , 12-C ) :   1.0191 B( 11-N , 29-H ) :   0.9495 B( 12-C , 13-C ) :   0.9239 
B( 12-C , 30-H ) :   0.9888 B( 13-C , 14-C ) :   1.3653 B( 13-C , 19-C ) :   1.3892 
B( 14-C , 15-C ) :   1.3905 B( 14-C , 31-H ) :   0.9715 B( 15-C , 16-C ) :   1.3614 
B( 15-C , 32-H ) :   0.9696 B( 16-C , 17-C ) :   1.3305 B( 16-C , 33-H ) :   0.9856 
B( 17-C , 18-O ) :   1.1038 B( 17-C , 19-C ) :   1.3721 B( 18-O , 34-H ) :   0.9804 
B( 19-C , 35-H ) :   0.9573 

-------
TIMINGS
-------

Total SCF time: 0 days 1 hours 30 min 46 sec 

Total time                  ....    5446.770 sec
Sum of individual times     ....    5442.518 sec  ( 99.9%)

Fock matrix formation       ....    5432.089 sec  ( 99.7%)
Diagonalization             ....       1.181 sec  (  0.0%)
Density matrix formation    ....       0.208 sec  (  0.0%)
Population analysis         ....       0.165 sec  (  0.0%)
Initial guess               ....       4.651 sec  (  0.1%)
Orbital Transformation      ....       0.000 sec  (  0.0%)
Orbital Orthonormalization  ....       0.000 sec  (  0.0%)
DIIS solution               ....       1.528 sec  (  0.0%)
SOSCF solution              ....       1.441 sec  (  0.0%)

------------------------------------------------------------------------------
                                ORCA  MP2 
------------------------------------------------------------------------------

Freezing NCore=48 chemical core electrons

-------------
RI-MP2 ENERGY
-------------
Dimension of the basis                    ...  828
Memory devoted to MP2                     ...  256 MB   
Data format for buffers                   ... DOUBLE
Compression type for matrix containers    ... UNCOMPRESSED
Overall scaling of the MP2 energy         ...   1.000e+00
Calculating two index integrals           ... done (    0.038 sec)
Cholesky decomposition of V**-1           ... done (    0.286 sec)

-----------------
RI-TRANSFORMATION (AUX index driven)
-----------------

Dimension of the orbital-basis         ... 828
Dimension of the aux-basis             ... 2141
Transformation of internal/external MOs...   24-  76 to   77- 827
Number Format for Storage              ... Double (8 Byte)
Integral mode                          ... Direct

First Phase: integral generation and transformation of MO indices
  Aux angular momentum 0               ... done (    4.316 sec)
  Aux angular momentum 1               ... done (    6.951 sec)
  Aux angular momentum 2               ... done (    9.094 sec)
  Aux angular momentum 3               ... done (    7.156 sec)
  Aux angular momentum 4               ... done (    2.525 sec)
Closing buffer VIA ( 0.63 GB; CompressionRatio= 1.00)
  Phase 1 completed in    30.378 sec
Second Phase: sorting and transformation of aux index

IA-Transformation
Memory available                       ... 167 MB 
Max. # MO pairs treated in a batch     ... 12    
# of internal orbitals                 ... 53
# batches for internal orbitals        ... 5
Closing buffer IAV ( 0.63 GB; CompressionRatio= 1.00)
(ia|v) transformation done in    18.998 sec

  Phase 2 completed in    19.002 sec
RI-Integral transformation completed in    49.384 sec
Opening buffers                              ... done

Starting loop over batches of integrals:

Operator 0  - window                       ... ( 24- 76)x( 77-827)
Operator 0  - Memory available             ...   256 MB
Operator 0  - Memory needed per MO         ...  12.3 MB
Operator 0  - Number of orbitals per batch ... 13
Operator 0  - Number of batches            ... 5

OPERATOR  0   PASS   0:  MOs    24 ...   36
  Reading integrals       ... ok
  Internal MO  26
  Internal MO  29
  Internal MO  32
  Internal MO  35
OPERATOR  0   PASS   1:  MOs    37 ...   49
  Reading integrals       ... ok
  Internal MO  38
  Internal MO  41
  Internal MO  44
  Internal MO  47
OPERATOR  0   PASS   2:  MOs    50 ...   62
  Reading integrals       ... ok
  Internal MO  50
  Internal MO  53
  Internal MO  56
  Internal MO  59
  Internal MO  62
OPERATOR  0   PASS   3:  MOs    63 ...   75
  Reading integrals       ... ok
  Internal MO  65
  Internal MO  68
  Internal MO  71
  Internal MO  74
OPERATOR  0   PASS   4:  MOs    76 ...   76
  Reading integrals       ... ok
Time spent in pair loops =    74.006 sec
Deleting buffer (Ka|jb)[aa] ...done

-----------------------------------------------
 RI-MP2 CORRELATION ENERGY:     -3.535322251 Eh
-----------------------------------------------


-------
TIMINGS
-------

Total time                :  123.798 sec
Integral trafo            :   49.388 sec ( 39.9%)
I/O of integrals          :    2.048 sec (  1.7%)
K(i,j) Operators          :   45.536 sec ( 36.8%)
T(i,j) pair energies      :    7.939 sec (  6.4%)
V-calculation             :    0.038 sec (  0.0%)
V**(-1/2)                 :    0.286 sec (  0.2%)
Gamma(ia|P)               :    0.000 sec (  0.0%)
Gamma-Trafo               :    0.000 sec (  0.0%)
D(virtual)                :    0.000 sec (  0.0%)
D(internal)               :    0.000 sec (  0.0%)
W(virtual)                :    0.000 sec (  0.0%)
W(internal)               :    0.000 sec (  0.0%)
L(virtual)                :    0.000 sec (  0.0%)
L(internal)               :    0.000 sec (  0.0%)
G(D)                      :    0.000 sec (  0.0%)
G(Z)                      :    0.000 sec (  0.0%)
Z-Vector Solution         :    0.000 sec (  0.0%)
3-Index Derivative        :    0.000 sec (  0.0%)
2-Index Derivative        :    0.000 sec (  0.0%)
Separable Gradient        :    0.000 sec (  0.0%)


---------------------------------------
MP2 TOTAL ENERGY:    -1274.333883332 Eh
---------------------------------------

-------------------------   --------------------
FINAL SINGLE POINT ENERGY     -1274.333883331655
-------------------------   --------------------


                            ***************************************
                            *     ORCA property calculations      *
                            ***************************************


  WARNING: The energy has been calculated at the MP2 level but the densities
           used in the property calculations are still SCF densities
           MP2 response densities have not been calculated 
           use %mp2 Density relaxed end
           or  %mp2 Density unrelaxed end

                                    ---------------------
                                    Active property flags
                                    ---------------------
   (+) Dipole Moment


------------------------------------------------------------------------------
                       ORCA ELECTRIC PROPERTIES CALCULATION
------------------------------------------------------------------------------

Dipole Moment Calculation                       ... on
Quadrupole Moment Calculation                   ... off
Polarizability Calculation                      ... off
GBWName                                         ... G2_CONFS/Conf169.orca.gbw
Electron density file                           ... G2_CONFS/Conf169.orca.scfp
The origin for moment calculation is the CENTER OF MASS  = (32.854772, 31.609363 35.233074)

-------------
DIPOLE MOMENT
-------------
                                X             Y             Z
Electronic contribution:      9.41717      12.03655       6.51876
Nuclear contribution   :    -10.26537     -13.59759      -7.13160
                        -----------------------------------------
Total Dipole Moment    :     -0.84820      -1.56104      -0.61284
                        -----------------------------------------
Magnitude (a.u.)       :      1.87932
Magnitude (Debye)      :      4.77686



--------------------
Rotational spectrum 
--------------------
 
Rotational constants in cm-1:     0.011846     0.008539     0.006140 
Rotational constants in MHz :   355.148625   255.989053   184.082336 

 Dipole components along the rotational axes: 
x,y,z [a.u.] :    -1.829699     0.397605    -0.161142 
x,y,z [Debye]:    -4.650726     1.010632    -0.409590 

 

Timings for individual modules:

Sum of individual times         ...     5572.172 sec (=  92.870 min)
GTO integral calculation        ...        1.210 sec (=   0.020 min)   0.0 %
SCF iterations                  ...     5446.817 sec (=  90.780 min)  97.8 %
MP2 module                      ...      124.145 sec (=   2.069 min)   2.2 %
                             ****ORCA TERMINATED NORMALLY****
TOTAL RUN TIME: 0 days 1 hours 32 minutes 53 seconds 331 msec
