
                                 *****************
                                 * O   R   C   A *
                                 *****************

           --- An Ab Initio, DFT and Semiempirical electronic structure package ---

                  #######################################################
                  #                        -***-                        #
                  #          Department of theory and spectroscopy      #
                  #               Directorship: Frank Neese             #
                  #        Max Planck Institute fuer Kohlenforschung    #
                  #                Kaiser Wilhelm Platz 1               #
                  #                 D-45470 Muelheim/Ruhr               #
                  #                      Germany                        #
                  #                                                     #
                  #                  All rights reserved                #
                  #                        -***-                        #
                  #######################################################


                         Program Version 4.2.0 -  RELEASE  -


 With contributions from (in alphabetic order):
   Daniel Aravena         : Magnetic Suceptibility
   Michael Atanasov       : Ab Initio Ligand Field Theory (pilot matlab implementation)
   Alexander A. Auer      : GIAO ZORA, VPT2
   Ute Becker             : Parallelization
   Giovanni Bistoni       : ED, misc. LED, open-shell LED, HFLED
   Martin Brehm           : Molecular dynamics
   Dmytro Bykov           : SCF Hessian
   Vijay G. Chilkuri      : MRCI spin determinant printing, contributions to CSF-ICE
   Dipayan Datta          : RHF DLPNO-CCSD density
   Achintya Kumar Dutta   : EOM-CC, STEOM-CC
   Dmitry Ganyushin       : Spin-Orbit,Spin-Spin,Magnetic field MRCI
   Miquel Garcia          : C-PCM Hessian, Gaussian charge scheme
   Yang Guo               : DLPNO-NEVPT2, CIM, IAO-localization
   Andreas Hansen         : Spin unrestricted coupled pair/coupled cluster methods
   Benjamin Helmich-Paris : CASSCF linear response (MC-RPA)
   Lee Huntington         : MR-EOM, pCC
   Robert Izsak           : Overlap fitted RIJCOSX, COSX-SCS-MP3, EOM
   Christian Kollmar      : KDIIS, OOCD, Brueckner-CCSD(T), CCSD density
   Simone Kossmann        : Meta GGA functionals, TD-DFT gradient, OOMP2, MP2 Hessian
   Martin Krupicka        : AUTO-CI
   Lucas Lang             : DCDCAS
   Dagmar Lenk            : GEPOL surface, SMD
   Dimitrios Liakos       : Extrapolation schemes; Compound Job, initial MDCI parallelization
   Dimitrios Manganas     : Further ROCIS development; embedding schemes
   Dimitrios Pantazis     : SARC Basis sets
   Taras Petrenko         : DFT Hessian,TD-DFT gradient, ASA, ECA, R-Raman, ABS, FL, XAS/XES, NRVS
   Peter Pinski           : DLPNO-MP2, DLPNO-MP2 Gradient
   Christoph Reimann      : Effective Core Potentials
   Marius Retegan         : Local ZFS, SOC
   Christoph Riplinger    : Optimizer, TS searches, QM/MM, DLPNO-CCSD(T), (RO)-DLPNO pert. Triples
   Tobias Risthaus        : Range-separated hybrids, TD-DFT gradient, RPA, STAB
   Michael Roemelt        : Original ROCIS implementation
   Masaaki Saitow         : Open-shell DLPNO-CCSD energy and density
   Barbara Sandhoefer     : DKH picture change effects
   Avijit Sen             : IP-ROCIS
   Kantharuban Sivalingam : CASSCF convergence, NEVPT2, FIC-MRCI
   Bernardo de Souza      : ESD, SOC TD-DFT
   Georgi Stoychev        : AutoAux, RI-MP2 NMR
   Willem Van den Heuvel  : Paramagnetic NMR
   Boris Wezisla          : Elementary symmetry handling
   Frank Wennmohs         : Technical directorship


 We gratefully acknowledge several colleagues who have allowed us to
 interface, adapt or use parts of their codes:
   Stefan Grimme, W. Hujo, H. Kruse,             : VdW corrections, initial TS optimization,
                  C. Bannwarth                     DFT functionals, gCP, sTDA/sTD-DF
   Ed Valeev, F. Pavosevic, A. Kumar             : LibInt (2-el integral package), F12 methods
   Garnet Chan, S. Sharma, J. Yang, R. Olivares  : DMRG
   Ulf Ekstrom                                   : XCFun DFT Library
   Mihaly Kallay                                 : mrcc  (arbitrary order and MRCC methods)
   Andreas Klamt, Michael Diedenhofen            : otool_cosmo (COSMO solvation model)
   Jiri Pittner, Ondrej Demel                    : Mk-CCSD
   Frank Weinhold                                : gennbo (NPA and NBO analysis)
   Christopher J. Cramer and Donald G. Truhlar   : smd solvation model
   Lars Goerigk                                  : TD-DFT with DH, B97 family of functionals
   V. Asgeirsson, H. Jonsson                     : NEB implementation
   FAccTs GmbH                                   : IRC, NEB, NEB-TS, Multilevel, MM, QM/MM, CI optimization
   S Lehtola, MJT Oliveira, MAL Marques          : LibXC Library


 Your calculation uses the libint2 library for the computation of 2-el integrals
 For citations please refer to: http://libint.valeyev.net

 Your ORCA version has been built with support for libXC version: 4.2.3
 For citations please refer to: https://tddft.org/programs/libxc/

 This ORCA versions uses:
   CBLAS   interface :  Fast vector & matrix operations
   LAPACKE interface :  Fast linear algebra routines
   SCALAPACK package :  Parallel linear algebra routines


----- Orbital basis set information -----
Your calculation utilizes the basis: cc-pVTZ 
       H, B-Ne : Obtained from the ccRepo (grant-hill.group.shef.ac.uk/ccrepo) Feb. 2017
                 T. H. Dunning, Jr., J. Chem. Phys. 90, 1007 (1989)
            He : Obtained from the ccRepo (grant-hill.group.shef.ac.uk/ccrepo) Feb. 2017
                 D. E. Woon, T. H. Dunning, Jr., J. Chem. Phys. 100, 2975 (1994)
  Li-Be, Na-Mg : Obtained from the ccRepo (grant-hill.group.shef.ac.uk/ccrepo) Feb. 2017
                 B. P. Prascher, D. E. Woon, K. A. Peterson, T. H. Dunning, Jr., A. K. Wilson, Theor. Chem. Acc. 128, 69 (2011)
         Al-Ar : Obtained from the ccRepo (grant-hill.group.shef.ac.uk/ccrepo) Feb. 2017
                 D. E. Woon, T. H. Dunning, Jr., J. Chem. Phys. 98, 1358 (1993)
            Ca : Obtained from the Peterson Research Group Website (tyr0.chem.wsu.edu/~kipeters) Feb. 2017
                 J. Koput, K. A. Peterson, J. Phys. Chem. 106, 9595 (2002)
         Sc-Zn : Obtained from the ccRepo (grant-hill.group.shef.ac.uk/ccrepo) Feb. 2017
                 N. B. Balabanov, K. A. Peterson, J. Chem. Phys. 123, 064107 (2005)
                 N. B. Balabanov, K. A. Peterson, J. Chem. Phys. 125, 074110 (2006)
         Ga-Kr : Obtained from the ccRepo (grant-hill.group.shef.ac.uk/ccrepo) Feb. 2017
                 A. K. Wilson, D. E. Woon, K. A. Peterson, T. H. Dunning, Jr., J. Chem. Phys. 110, 7667 (1999)
             Y : Obtained from the ccRepo (grant-hill.group.shef.ac.uk/ccrepo) Feb. 2017
                 K. A. Peterson, D. Figgen, M. Dolg, H. Stoll, J. Chem. Phys. 126, 124101 (2007)
        Ag, Au : Obtained from the Peterson Research Group Website (tyr0.chem.wsu.edu/~kipeters) Feb. 2017
                 K. A. Peterson, C. Puzzarini, Theor. Chem. Acc. 114, 283 (2005)

----- AuxC basis set information -----
Your calculation utilizes the auxiliary basis: cc-pVTZ/C 
  Obtained from the EMSL Basis Set Exchange (bse.pnl.gov) Feb. 2017
  H-He, B-F, Al-Ar, Ga-Kr : F. Weigend, A. Kohn, C. Hattig, J. Chem. Phys. 116, 3175 (2002)
             Li-Be, Na-Mg : C. Haettig, Phys. Chem. Chem. Phys. 7, 59 (2005)
                       Ne : C. Haettig, Phys. Chem. Chem. Phys. 7, 59 (2005)
                            F. Weigend, A. Kohn, C. Hattig, J. Chem. Phys. 116, 3175 (2002)
                    Sc-Zn : J. G. Hill, J. A. Platts, J. Chem. Phys. 128, 044104 (2008)

================================================================================
                                        WARNINGS
                       Please study these warnings very carefully!
================================================================================


WARNING: No MP2 level density has been requested!
         To caclulate MP2 level properties use
         %mp2 Density relaxed end
         or
         %mp2 Density unrelaxed end

WARNING: Post HF methods need fully converged wavefunctions
  ===> : Setting SCFConvForced true
         You can overwrite this default with %scf ConvForced false 


INFO   : the flag for use of LIBINT has been found!

================================================================================
                                       INPUT FILE
================================================================================
NAME = G2_CONFS/Conf4.orca
|  1> ! ri-mp2 cc-pvtz cc-pvtz/c TightSCF NoKeepInts
|  2> 
|  3> %scf
|  4>   MaxCore 4096
|  5> end
|  6> *xyz  0  1
|  7>     C       14.5723601   14.4922693   15.5609549
|  8>     C       15.5784289   15.1125880   16.5438542
|  9>     O       16.8432022   15.2033513   15.8596474
| 10>     C       17.9564920   15.6801398   16.4992878
| 11>     O       19.0686871   15.2587590   16.2424018
| 12>     C       17.6984248   16.6900000   17.5700361
| 13>     C       17.3196186   17.9136060   17.1148739
| 14>     C       16.7620189   18.2558747   15.7448577
| 15>     N       17.5155193   19.0461094   17.9093803
| 16>     C       18.3947428   19.1076329   18.9560577
| 17>     S       18.7217391   20.5257917   19.7410334
| 18>     N       19.0091362   17.9305814   19.2985822
| 19>     C       18.6301595   16.5995549   18.7842441
| 20>     C       17.9534422   15.7880113   19.8810802
| 21>     C       18.3982711   14.4832959   20.1616713
| 22>     C       17.7699675   13.7112361   21.1531854
| 23>     C       16.6838661   14.2462020   21.8667597
| 24>     C       16.2330113   15.5428950   21.5846626
| 25>     O       15.1777237   16.0581048   22.2640361
| 26>     C       16.8596696   16.3089504   20.5966335
| 27>     H       14.9118652   13.5003295   15.2367021
| 28>     H       14.4582512   15.1251025   14.6720316
| 29>     H       13.5888494   14.3808097   16.0334996
| 30>     H       15.2149769   16.0958969   16.8655479
| 31>     H       15.6739426   14.4696894   17.4297993
| 32>     H       17.3213159   17.7529150   14.9450210
| 33>     H       16.8217824   19.3305305   15.5314951
| 34>     H       15.7100646   17.9622792   15.6553087
| 35>     H       17.1064035   19.9265695   17.6389051
| 36>     H       19.6547965   17.9988214   20.0750715
| 37>     H       19.5683078   16.1111825   18.4814686
| 38>     H       19.2328020   14.0639786   19.6040881
| 39>     H       18.1240362   12.7032995   21.3636239
| 40>     H       16.1951206   13.6528026   22.6325856
| 41>     H       14.9232262   15.4122991   22.9404327
| 42>     H       16.4947772   17.3105353   20.3951805
| 43> *
| 44> 
| 45>                          ****END OF INPUT****
================================================================================

                       ****************************
                       * Single Point Calculation *
                       ****************************

---------------------------------
CARTESIAN COORDINATES (ANGSTROEM)
---------------------------------
  C     14.572360   14.492269   15.560955
  C     15.578429   15.112588   16.543854
  O     16.843202   15.203351   15.859647
  C     17.956492   15.680140   16.499288
  O     19.068687   15.258759   16.242402
  C     17.698425   16.690000   17.570036
  C     17.319619   17.913606   17.114874
  C     16.762019   18.255875   15.744858
  N     17.515519   19.046109   17.909380
  C     18.394743   19.107633   18.956058
  S     18.721739   20.525792   19.741033
  N     19.009136   17.930581   19.298582
  C     18.630160   16.599555   18.784244
  C     17.953442   15.788011   19.881080
  C     18.398271   14.483296   20.161671
  C     17.769967   13.711236   21.153185
  C     16.683866   14.246202   21.866760
  C     16.233011   15.542895   21.584663
  O     15.177724   16.058105   22.264036
  C     16.859670   16.308950   20.596633
  H     14.911865   13.500329   15.236702
  H     14.458251   15.125103   14.672032
  H     13.588849   14.380810   16.033500
  H     15.214977   16.095897   16.865548
  H     15.673943   14.469689   17.429799
  H     17.321316   17.752915   14.945021
  H     16.821782   19.330530   15.531495
  H     15.710065   17.962279   15.655309
  H     17.106403   19.926569   17.638905
  H     19.654796   17.998821   20.075071
  H     19.568308   16.111183   18.481469
  H     19.232802   14.063979   19.604088
  H     18.124036   12.703299   21.363624
  H     16.195121   13.652803   22.632586
  H     14.923226   15.412299   22.940433
  H     16.494777   17.310535   20.395180

----------------------------
CARTESIAN COORDINATES (A.U.)
----------------------------
  NO LB      ZA    FRAG     MASS         X           Y           Z
   0 C     6.0000    0    12.011   27.537770   27.386420   29.405943
   1 C     6.0000    0    12.011   29.438964   28.558652   31.263354
   2 O     8.0000    0    15.999   31.829039   28.730170   29.970390
   3 C     6.0000    0    12.011   33.932852   29.631170   31.179135
   4 O     8.0000    0    15.999   36.034596   28.834876   30.693691
   5 C     6.0000    0    12.011   33.445176   31.539529   33.202556
   6 C     6.0000    0    12.011   32.729336   33.851809   32.342424
   7 C     6.0000    0    12.011   31.675625   34.498604   29.753469
   8 N     7.0000    0    14.007   33.099535   35.991931   33.843824
   9 C     6.0000    0    12.011   34.761026   36.108193   35.821758
  10 S    16.0000    0    32.060   35.378960   38.788125   37.305147
  11 N     7.0000    0    14.007   35.922061   33.883888   36.469035
  12 C     6.0000    0    12.011   35.205899   31.368613   35.497077
  13 C     6.0000    0    12.011   33.927089   29.835018   37.569797
  14 C     6.0000    0    12.011   34.767694   27.369463   38.100037
  15 C     6.0000    0    12.011   33.580372   25.910481   39.973727
  16 C     6.0000    0    12.011   31.527938   26.921420   41.322187
  17 C     6.0000    0    12.011   30.675946   29.371815   40.789101
  18 O     8.0000    0    15.999   28.681741   30.345420   42.072931
  19 C     6.0000    0    12.011   31.860158   30.819450   38.921997
  20 H     1.0000    0     1.008   28.179341   25.511925   28.793194
  21 H     1.0000    0     1.008   27.322135   28.582301   27.726122
  22 H     1.0000    0     1.008   25.679204   27.175792   30.298923
  23 H     1.0000    0     1.008   28.752139   30.416837   31.871267
  24 H     1.0000    0     1.008   29.619459   27.343750   32.937547
  25 H     1.0000    0     1.008   32.732543   33.548147   28.241997
  26 H     1.0000    0     1.008   31.788562   36.529409   29.350272
  27 H     1.0000    0     1.008   29.687720   33.943788   29.584246
  28 H     1.0000    0     1.008   32.326418   37.655759   33.332700
  29 H     1.0000    0     1.008   37.142183   34.012843   37.936387
  30 H     1.0000    0     1.008   36.978743   30.445723   34.924914
  31 H     1.0000    0     1.008   36.344729   26.577068   37.046358
  32 H     1.0000    0     1.008   34.249465   24.005757   40.371398
  33 H     1.0000    0     1.008   30.604343   25.800058   42.769388
  34 H     1.0000    0     1.008   28.200811   29.125024   43.351135
  35 H     1.0000    0     1.008   31.170612   32.712171   38.541306

--------------------------------
INTERNAL COORDINATES (ANGSTROEM)
--------------------------------
 C      0   0   0     0.000000000000     0.00000000     0.00000000
 C      1   0   0     1.537225017310     0.00000000     0.00000000
 O      2   1   0     1.440842955421   107.23469279     0.00000000
 C      3   2   1     1.369628158964   120.90865211   182.17484501
 O      4   3   2     1.216770371134   121.58937366   146.82426487
 C      4   3   2     1.494295226926   115.43747426   329.84138627
 C      6   4   3     1.359366914671   114.61473663   287.61420653
 C      7   6   4     1.518225831918   127.40299907    18.76168167
 N      7   6   4     1.397204872205   120.00847310   203.36281471
 C      9   7   6     1.368339389068   124.15973871    19.48182336
 S     10   9   7     1.653568205978   121.92094738   172.25218047
 N     10   9   7     1.371223000360   116.12816766   353.52705171
 C     12  10   9     1.476414089596   124.87816880   349.31624393
 C     13  12  10     1.523022898411   110.09305566   251.71229103
 C     14  13  12     1.406728968448   119.82513463   230.82837983
 C     15  14  13     1.404970447749   120.59881652   181.17241767
 C     16  15  14     1.405344458439   119.65416702     0.26080983
 C     17  16  15     1.401521159584   119.90778223     0.10637363
 O     18  17  16     1.356695031771   120.05160421   179.45232330
 C     18  17  16     1.398478817600   120.32214397   359.93340318
 H      1   2   3     1.097427973973   110.56032990    59.11923911
 H      1   2   3     1.097125030871   110.69346264   299.09668674
 H      1   2   3     1.096820419642   110.63376559   179.00498909
 H      2   1   3     1.096576757798   109.42092294   121.62204812
 H      2   1   3     1.098790333496   109.65326143   240.48777160
 H      8   7   6     1.097961903119   111.53093499   316.19407656
 H      8   7   6     1.097260390010   112.10219999   197.23200032
 H      8   7   6     1.095821696404   111.46353003    76.82102850
 H      9   7   6     1.007840542604   119.90625924   189.66634787
 H     12  10   9     1.012160833865   114.80806072   180.02019097
 H     13  12  10     1.100137644695   106.09260174   132.83368021
 H     15  14  13     1.087735191146   119.86113309     0.86381996
 H     16  15  14     1.088845809204   119.97748539   180.13804600
 H     17  16  15     1.085119496093   119.88592481   179.93258970
 H     19  18  17     0.969198813531   107.49855307     4.41858790
 H     20  18  17     1.084851181819   119.09172593   180.04686215

---------------------------
INTERNAL COORDINATES (A.U.)
---------------------------
 C      0   0   0     0.000000000000     0.00000000     0.00000000
 C      1   0   0     2.904934288928     0.00000000     0.00000000
 O      2   1   0     2.722798587735   107.23469279     0.00000000
 C      3   2   1     2.588222125750   120.90865211   182.17484501
 O      4   3   2     2.299362769312   121.58937366   146.82426487
 C      4   3   2     2.823808742115   115.43747426   329.84138627
 C      6   4   3     2.568831184242   114.61473663   287.61420653
 C      7   6   4     2.869031031769   127.40299907    18.76168167
 N      7   6   4     2.640334561448   120.00847310   203.36281471
 C      9   7   6     2.585786703596   124.15973871    19.48182336
 S     10   9   7     3.124791053058   121.92094738   172.25218047
 N     10   9   7     2.591235939214   116.12816766   353.52705171
 C     12  10   9     2.790018289599   124.87816880   349.31624393
 C     13  12  10     2.878096173687   110.09305566   251.71229103
 C     14  13  12     2.658332495021   119.82513463   230.82837983
 C     15  14  13     2.655009372498   120.59881652   181.17241767
 C     16  15  14     2.655716150274   119.65416702     0.26080983
 C     17  16  15     2.648491162509   119.90778223     0.10637363
 O     18  17  16     2.563782057299   120.05160421   179.45232330
 C     18  17  16     2.642741969353   120.32214397   359.93340318
 H      1   2   3     2.073838322513   110.56032990    59.11923911
 H      1   2   3     2.073265843017   110.69346264   299.09668674
 H      1   2   3     2.072690211217   110.63376559   179.00498909
 H      2   1   3     2.072229757062   109.42092294   121.62204812
 H      2   1   3     2.076412808907   109.65326143   240.48777160
 H      8   7   6     2.074847302373   111.53093499   316.19407656
 H      8   7   6     2.073521634718   112.10219999   197.23200032
 H      8   7   6     2.070802897813   111.46353003    76.82102850
 H      9   7   6     1.904542612184   119.90625924   189.66634787
 H     12  10   9     1.912706779486   114.80806072   180.02019097
 H     13  12  10     2.078958858091   106.09260174   132.83368021
 H     15  14  13     2.055521617493   119.86113309     0.86381996
 H     16  15  14     2.057620381464   119.97748539   180.13804600
 H     17  16  15     2.050578670195   119.88592481   179.93258970
 H     19  18  17     1.831520326895   107.49855307     4.41858790
 H     20  18  17     2.050071629699   119.09172593   180.04686215

---------------------
BASIS SET INFORMATION
---------------------
There are 5 groups of distinct atoms

 Group   1 Type C   : 18s5p2d1f contracted to 4s3p2d1f pattern {8811/311/11/1}
 Group   2 Type O   : 18s5p2d1f contracted to 4s3p2d1f pattern {8811/311/11/1}
 Group   3 Type N   : 18s5p2d1f contracted to 4s3p2d1f pattern {8811/311/11/1}
 Group   4 Type S   : 41s16p2d1f contracted to 5s4p2d1f pattern {13131311/7711/11/1}
 Group   5 Type H   : 5s2p1d contracted to 3s2p1d pattern {311/11/1}

Atom   0C    basis set group =>   1
Atom   1C    basis set group =>   1
Atom   2O    basis set group =>   2
Atom   3C    basis set group =>   1
Atom   4O    basis set group =>   2
Atom   5C    basis set group =>   1
Atom   6C    basis set group =>   1
Atom   7C    basis set group =>   1
Atom   8N    basis set group =>   3
Atom   9C    basis set group =>   1
Atom  10S    basis set group =>   4
Atom  11N    basis set group =>   3
Atom  12C    basis set group =>   1
Atom  13C    basis set group =>   1
Atom  14C    basis set group =>   1
Atom  15C    basis set group =>   1
Atom  16C    basis set group =>   1
Atom  17C    basis set group =>   1
Atom  18O    basis set group =>   2
Atom  19C    basis set group =>   1
Atom  20H    basis set group =>   5
Atom  21H    basis set group =>   5
Atom  22H    basis set group =>   5
Atom  23H    basis set group =>   5
Atom  24H    basis set group =>   5
Atom  25H    basis set group =>   5
Atom  26H    basis set group =>   5
Atom  27H    basis set group =>   5
Atom  28H    basis set group =>   5
Atom  29H    basis set group =>   5
Atom  30H    basis set group =>   5
Atom  31H    basis set group =>   5
Atom  32H    basis set group =>   5
Atom  33H    basis set group =>   5
Atom  34H    basis set group =>   5
Atom  35H    basis set group =>   5
---------------------------------
AUXILIARY/C BASIS SET INFORMATION
---------------------------------
There are 5 groups of distinct atoms

 Group   1 Type C   : 8s6p5d3f1g contracted to 8s6p5d3f1g pattern {11111111/111111/11111/111/1}
 Group   2 Type O   : 8s6p5d3f1g contracted to 8s6p5d3f1g pattern {11111111/111111/11111/111/1}
 Group   3 Type N   : 8s6p5d3f1g contracted to 8s6p5d3f1g pattern {11111111/111111/11111/111/1}
 Group   4 Type S   : 10s8p7d5f2g contracted to 10s8p7d5f2g pattern {1111111111/11111111/1111111/11111/11}
 Group   5 Type H   : 4s3p2d1f contracted to 4s3p2d1f pattern {1111/111/11/1}

Atom   0C    basis set group =>   1
Atom   1C    basis set group =>   1
Atom   2O    basis set group =>   2
Atom   3C    basis set group =>   1
Atom   4O    basis set group =>   2
Atom   5C    basis set group =>   1
Atom   6C    basis set group =>   1
Atom   7C    basis set group =>   1
Atom   8N    basis set group =>   3
Atom   9C    basis set group =>   1
Atom  10S    basis set group =>   4
Atom  11N    basis set group =>   3
Atom  12C    basis set group =>   1
Atom  13C    basis set group =>   1
Atom  14C    basis set group =>   1
Atom  15C    basis set group =>   1
Atom  16C    basis set group =>   1
Atom  17C    basis set group =>   1
Atom  18O    basis set group =>   2
Atom  19C    basis set group =>   1
Atom  20H    basis set group =>   5
Atom  21H    basis set group =>   5
Atom  22H    basis set group =>   5
Atom  23H    basis set group =>   5
Atom  24H    basis set group =>   5
Atom  25H    basis set group =>   5
Atom  26H    basis set group =>   5
Atom  27H    basis set group =>   5
Atom  28H    basis set group =>   5
Atom  29H    basis set group =>   5
Atom  30H    basis set group =>   5
Atom  31H    basis set group =>   5
Atom  32H    basis set group =>   5
Atom  33H    basis set group =>   5
Atom  34H    basis set group =>   5
Atom  35H    basis set group =>   5
------------------------------------------------------------------------------
                           ORCA GTO INTEGRAL CALCULATION
------------------------------------------------------------------------------

                         BASIS SET STATISTICS AND STARTUP INFO

 # of primitive gaussian shells          ...  682
 # of primitive gaussian functions       ... 1312
 # of contracted shells                  ...  298
 # of contracted basis functions         ...  828
 Highest angular momentum                ...    3
 Maximum contraction depth               ...   13
 Integral package used                   ... LIBINT
 Integral threshhold            Thresh   ...  2.500e-11
 Primitive cut-off              TCut     ...  2.500e-12


------------------------------ INTEGRAL EVALUATION ----------------------------


 * One electron integrals 
 Pre-screening matrix                    ... done
 Shell pair data                         ... done (   0.018 sec)

-------------------------------------------------------------------------------
                                 ORCA SCF
-------------------------------------------------------------------------------

------------
SCF SETTINGS
------------
Hamiltonian:
 Ab initio Hamiltonian  Method          .... Hartree-Fock(GTOs)


General Settings:
 Integral files         IntName         .... G2_CONFS/Conf4.orca
 Hartree-Fock type      HFTyp           .... RHF
 Total Charge           Charge          ....    0
 Multiplicity           Mult            ....    1
 Number of Electrons    NEL             ....  154
 Basis Dimension        Dim             ....  828
 Nuclear Repulsion      ENuc            ....   1698.4289385457 Eh

Convergence Acceleration:
 DIIS                   CNVDIIS         .... on
   Start iteration      DIISMaxIt       ....    12
   Startup error        DIISStart       ....  0.200000
   # of expansion vecs  DIISMaxEq       ....     5
   Bias factor          DIISBfac        ....   1.050
   Max. coefficient     DIISMaxC        ....  10.000
 Newton-Raphson         CNVNR           .... off
 SOSCF                  CNVSOSCF        .... on
   Start iteration      SOSCFMaxIt      ....   150
   Startup grad/error   SOSCFStart      ....  0.003300
 Level Shifting         CNVShift        .... on
   Level shift para.    LevelShift      ....    0.2500
   Turn off err/grad.   ShiftErr        ....    0.0010
 Zerner damping         CNVZerner       .... off
 Static damping         CNVDamp         .... on
   Fraction old density DampFac         ....    0.7000
   Max. Damping (<1)    DampMax         ....    0.9800
   Min. Damping (>=0)   DampMin         ....    0.0000
   Turn off err/grad.   DampErr         ....    0.1000
 Fernandez-Rico         CNVRico         .... off

SCF Procedure:
 Maximum # iterations   MaxIter         ....   125
 SCF integral mode      SCFMode         .... Direct
   Integral package                     .... LIBINT
 Reset frequency        DirectResetFreq ....    20
 Integral Threshold     Thresh          ....  2.500e-11 Eh
 Primitive CutOff       TCut            ....  2.500e-12 Eh

Convergence Tolerance:
 Convergence Check Mode ConvCheckMode   .... Total+1el-Energy
 Convergence forced     ConvForced      .... 1
 Energy Change          TolE            ....  1.000e-08 Eh
 1-El. energy change                    ....  1.000e-05 Eh
 Orbital Gradient       TolG            ....  1.000e-05
 Orbital Rotation angle TolX            ....  1.000e-05
 DIIS Error             TolErr          ....  5.000e-07


Diagonalization of the overlap matrix:
Smallest eigenvalue                        ... 3.518e-05
Time for diagonalization                   ...    0.351 sec
Threshold for overlap eigenvalues          ... 1.000e-08
Number of eigenvalues below threshold      ... 0
Time for construction of square roots      ...    0.186 sec
Total time needed                          ...    0.539 sec

-------------------
DFT GRID GENERATION
-------------------

General Integration Accuracy     IntAcc      ...  4.340
Radial Grid Type                 RadialGrid  ... Gauss-Chebyshev
Angular Grid (max. acc.)         AngularGrid ... Lebedev-110
Angular grid pruning method      GridPruning ... 3 (G Style)
Weight generation scheme         WeightScheme... Becke
Basis function cutoff            BFCut       ...    1.0000e-11
Integration weight cutoff        WCut        ...    1.0000e-14
Grids for H and He will be reduced by one unit

# of grid points (after initial pruning)     ...  46246 (   0.0 sec)
# of grid points (after weights+screening)   ...  41315 (   0.5 sec)
nearest neighbour list constructed           ...    0.0 sec
Grid point re-assignment to atoms done       ...    0.0 sec
Grid point division into batches done        ...    0.0 sec
Reduced shell lists constructed in    1.5 sec

Total number of grid points                  ...    41315
Total number of batches                      ...      663
Average number of points per batch           ...       62
Average number of grid points per atom       ...     1148
Average number of shells per batch           ...   148.24 (49.75%)
Average number of basis functions per batch  ...   376.55 (45.48%)
Average number of large shells per batch     ...    94.95 (64.05%)
Average number of large basis fcns per batch ...   244.36 (64.89%)
Maximum spatial batch extension              ...  25.60, 21.59, 20.65 au
Average spatial batch extension              ...   3.60,  3.49,  3.43 au

Time for grid setup =    2.004 sec

------------------------------
INITIAL GUESS: MODEL POTENTIAL
------------------------------
Loading Hartree-Fock densities                     ... done
Calculating cut-offs                               ... done
Setting up the integral package                    ... done
Initializing the effective Hamiltonian             ... done
Starting the Coulomb interaction                   ... done (   6.3 sec)
Reading the grid                                   ... done
Mapping shells                                     ... done
Starting the XC term evaluation                    ... done (   2.3 sec)
Transforming the Hamiltonian                       ... done (   0.1 sec)
Diagonalizing the Hamiltonian                      ... done (   0.2 sec)
Back transforming the eigenvectors                 ... done (   0.0 sec)
Now organizing SCF variables                       ... done
                      ------------------
                      INITIAL GUESS DONE (  11.5 sec)
                      ------------------
--------------
SCF ITERATIONS
--------------
ITER       Energy         Delta-E        Max-DP      RMS-DP      [F,P]     Damp
               ***  Starting incremental Fock matrix formation  ***
  0  -1269.9967047342   0.000000000000 0.04931074  0.00044092  0.3061291 0.7000
  1  -1270.2637020822  -0.266997348032 0.04034304  0.00035690  0.1784649 0.7000
                               ***Turning on DIIS***
  2  -1270.4302432232  -0.166541141015 0.02585233  0.00023722  0.1098011 0.7000
  3  -1272.5382413004  -2.107998077131 0.06321312  0.00050196  0.0829482 0.0000
  4  -1270.7398500725   1.798391227841 0.01700586  0.00010080  0.0065818 0.0000
  5  -1270.7979318053  -0.058081732730 0.00519366  0.00005192  0.0034890 0.0000
                      *** Initiating the SOSCF procedure ***
                           *** Shutting down DIIS ***
                      *** Re-Reading the Fockian *** 
                      *** Removing any level shift *** 
ITER      Energy       Delta-E        Grad      Rot      Max-DP    RMS-DP
  6  -1270.77674379   0.0211880162  0.001481  0.001481  0.002339  0.000026
               *** Restarting incremental Fock matrix formation ***
  7  -1270.79190124  -0.0151574478  0.000715  0.001795  0.001349  0.000016
  8  -1270.79194545  -0.0000442145  0.000364  0.002023  0.001476  0.000017
  9  -1270.79196236  -0.0000169095  0.000149  0.000285  0.000384  0.000004
 10  -1270.79196442  -0.0000020627  0.000035  0.000092  0.000118  0.000001
 11  -1270.79196460  -0.0000001760  0.000018  0.000082  0.000053  0.000001
 12  -1270.79196465  -0.0000000495  0.000009  0.000026  0.000027  0.000000
 13  -1270.79196465  -0.0000000033  0.000003  0.000009  0.000006  0.000000
                  ***Gradient check signals convergence***
              ***Rediagonalizing the Fockian in SOSCF/NRSCF***

               *****************************************************
               *                     SUCCESS                       *
               *           SCF CONVERGED AFTER  14 CYCLES          *
               *****************************************************


----------------
TOTAL SCF ENERGY
----------------

Total Energy       :        -1270.79196465 Eh          -34580.00737 eV

Components:
Nuclear Repulsion  :         1698.42893855 Eh           46216.60102 eV
Electronic Energy  :        -2969.22090319 Eh          -80796.60840 eV
One Electron Energy:        -5117.49866654 Eh         -139254.21826 eV
Two Electron Energy:         2148.27776335 Eh           58457.60987 eV

Virial components:
Potential Energy   :        -2539.80882433 Eh          -69111.71168 eV
Kinetic Energy     :         1269.01685968 Eh           34531.70431 eV
Virial Ratio       :            2.00139880


---------------
SCF CONVERGENCE
---------------

  Last Energy change         ...    6.9535e-09  Tolerance :   1.0000e-08
  Last MAX-Density change    ...    2.5552e-06  Tolerance :   1.0000e-07
  Last RMS-Density change    ...    3.0502e-08  Tolerance :   5.0000e-09
  Last Orbital Gradient      ...    9.9463e-07  Tolerance :   1.0000e-05
  Last Orbital Rotation      ...    2.8987e-06  Tolerance :   1.0000e-05

             **** THE GBW FILE WAS UPDATED (G2_CONFS/Conf4.orca.gbw) ****
             **** DENSITY FILE WAS UPDATED (G2_CONFS/Conf4.orca.scfp) ****
             **** ENERGY FILE WAS UPDATED (G2_CONFS/Conf4.orca.en.tmp) ****
             **** THE GBW FILE WAS UPDATED (G2_CONFS/Conf4.orca.gbw) ****
             **** DENSITY FILE WAS UPDATED (G2_CONFS/Conf4.orca.scfp) ****
----------------
ORBITAL ENERGIES
----------------

  NO   OCC          E(Eh)            E(eV) 
   0   2.0000     -91.890200     -2500.4595 
   1   2.0000     -20.601143      -560.5856 
   2   2.0000     -20.599136      -560.5310 
   3   2.0000     -20.550565      -559.2093 
   4   2.0000     -15.629830      -425.3093 
   5   2.0000     -15.608579      -424.7310 
   6   2.0000     -11.396411      -310.1121 
   7   2.0000     -11.385235      -309.8080 
   8   2.0000     -11.338781      -308.5439 
   9   2.0000     -11.316569      -307.9395 
  10   2.0000     -11.310678      -307.7792 
  11   2.0000     -11.305931      -307.6500 
  12   2.0000     -11.268289      -306.6257 
  13   2.0000     -11.262203      -306.4601 
  14   2.0000     -11.259881      -306.3969 
  15   2.0000     -11.257465      -306.3312 
  16   2.0000     -11.245126      -305.9954 
  17   2.0000     -11.240525      -305.8702 
  18   2.0000     -11.239715      -305.8482 
  19   2.0000     -11.236162      -305.7515 
  20   2.0000      -8.895269      -242.0526 
  21   2.0000      -6.576848      -178.9651 
  22   2.0000      -6.574834      -178.9103 
  23   2.0000      -6.574249      -178.8944 
  24   2.0000      -1.449917       -39.4543 
  25   2.0000      -1.418767       -38.6066 
  26   2.0000      -1.362552       -37.0769 
  27   2.0000      -1.343061       -36.5465 
  28   2.0000      -1.239995       -33.7420 
  29   2.0000      -1.160598       -31.5815 
  30   2.0000      -1.127249       -30.6740 
  31   2.0000      -1.048529       -28.5319 
  32   2.0000      -1.041295       -28.3351 
  33   2.0000      -1.018186       -27.7063 
  34   2.0000      -1.006234       -27.3810 
  35   2.0000      -0.989478       -26.9251 
  36   2.0000      -0.927111       -25.2280 
  37   2.0000      -0.879932       -23.9442 
  38   2.0000      -0.855803       -23.2876 
  39   2.0000      -0.844309       -22.9748 
  40   2.0000      -0.837114       -22.7790 
  41   2.0000      -0.833781       -22.6883 
  42   2.0000      -0.758722       -20.6459 
  43   2.0000      -0.736255       -20.0345 
  44   2.0000      -0.731446       -19.9037 
  45   2.0000      -0.698522       -19.0078 
  46   2.0000      -0.690781       -18.7971 
  47   2.0000      -0.682306       -18.5665 
  48   2.0000      -0.672499       -18.2996 
  49   2.0000      -0.664547       -18.0832 
  50   2.0000      -0.657815       -17.9000 
  51   2.0000      -0.649068       -17.6620 
  52   2.0000      -0.638676       -17.3792 
  53   2.0000      -0.612128       -16.6568 
  54   2.0000      -0.608656       -16.5624 
  55   2.0000      -0.602628       -16.3984 
  56   2.0000      -0.597673       -16.2635 
  57   2.0000      -0.583409       -15.8754 
  58   2.0000      -0.579252       -15.7622 
  59   2.0000      -0.567716       -15.4483 
  60   2.0000      -0.560203       -15.2439 
  61   2.0000      -0.559647       -15.2288 
  62   2.0000      -0.548524       -14.9261 
  63   2.0000      -0.526269       -14.3205 
  64   2.0000      -0.524572       -14.2743 
  65   2.0000      -0.515963       -14.0401 
  66   2.0000      -0.506942       -13.7946 
  67   2.0000      -0.501088       -13.6353 
  68   2.0000      -0.487791       -13.2735 
  69   2.0000      -0.465951       -12.6792 
  70   2.0000      -0.458753       -12.4833 
  71   2.0000      -0.452322       -12.3083 
  72   2.0000      -0.360725        -9.8158 
  73   2.0000      -0.349925        -9.5219 
  74   2.0000      -0.329753        -8.9730 
  75   2.0000      -0.324993        -8.8435 
  76   2.0000      -0.318501        -8.6669 
  77   0.0000       0.080409         2.1880 
  78   0.0000       0.104494         2.8434 
  79   0.0000       0.115893         3.1536 
  80   0.0000       0.128839         3.5059 
  81   0.0000       0.130976         3.5640 
  82   0.0000       0.140077         3.8117 
  83   0.0000       0.147770         4.0210 
  84   0.0000       0.159039         4.3277 
  85   0.0000       0.159895         4.3510 
  86   0.0000       0.168256         4.5785 
  87   0.0000       0.170891         4.6502 
  88   0.0000       0.181434         4.9371 
  89   0.0000       0.188043         5.1169 
  90   0.0000       0.199593         5.4312 
  91   0.0000       0.203339         5.5331 
  92   0.0000       0.206978         5.6322 
  93   0.0000       0.214462         5.8358 
  94   0.0000       0.216413         5.8889 
  95   0.0000       0.231123         6.2892 
  96   0.0000       0.241015         6.5583 
  97   0.0000       0.246542         6.7087 
  98   0.0000       0.264187         7.1889 
  99   0.0000       0.266194         7.2435 
 100   0.0000       0.292378         7.9560 
 101   0.0000       0.298055         8.1105 
 102   0.0000       0.308963         8.4073 
 103   0.0000       0.309531         8.4228 
 104   0.0000       0.315066         8.5734 
 105   0.0000       0.326621         8.8878 
 106   0.0000       0.334599         9.1049 
 107   0.0000       0.343377         9.3438 
 108   0.0000       0.348735         9.4896 
 109   0.0000       0.359390         9.7795 
 110   0.0000       0.367793        10.0082 
 111   0.0000       0.373635        10.1671 
 112   0.0000       0.380934        10.3657 
 113   0.0000       0.391433        10.6514 
 114   0.0000       0.397719        10.8225 
 115   0.0000       0.403563        10.9815 
 116   0.0000       0.417744        11.3674 
 117   0.0000       0.421687        11.4747 
 118   0.0000       0.432587        11.7713 
 119   0.0000       0.433810        11.8046 
 120   0.0000       0.435975        11.8635 
 121   0.0000       0.444363        12.0917 
 122   0.0000       0.450434        12.2569 
 123   0.0000       0.455762        12.4019 
 124   0.0000       0.461288        12.5523 
 125   0.0000       0.468005        12.7351 
 126   0.0000       0.474521        12.9124 
 127   0.0000       0.476384        12.9631 
 128   0.0000       0.480672        13.0798 
 129   0.0000       0.493761        13.4359 
 130   0.0000       0.497318        13.5327 
 131   0.0000       0.504569        13.7300 
 132   0.0000       0.509882        13.8746 
 133   0.0000       0.518669        14.1137 
 134   0.0000       0.521491        14.1905 
 135   0.0000       0.523108        14.2345 
 136   0.0000       0.524628        14.2759 
 137   0.0000       0.534357        14.5406 
 138   0.0000       0.537742        14.6327 
 139   0.0000       0.545643        14.8477 
 140   0.0000       0.551822        15.0158 
 141   0.0000       0.557229        15.1630 
 142   0.0000       0.560932        15.2637 
 143   0.0000       0.566472        15.4145 
 144   0.0000       0.571130        15.5412 
 145   0.0000       0.574084        15.6216 
 146   0.0000       0.587261        15.9802 
 147   0.0000       0.588487        16.0135 
 148   0.0000       0.590491        16.0681 
 149   0.0000       0.596494        16.2314 
 150   0.0000       0.601427        16.3657 
 151   0.0000       0.606107        16.4930 
 152   0.0000       0.609918        16.5967 
 153   0.0000       0.611597        16.6424 
 154   0.0000       0.618395        16.8274 
 155   0.0000       0.622962        16.9517 
 156   0.0000       0.625636        17.0244 
 157   0.0000       0.627110        17.0645 
 158   0.0000       0.635150        17.2833 
 159   0.0000       0.639029        17.3889 
 160   0.0000       0.644449        17.5363 
 161   0.0000       0.645716        17.5708 
 162   0.0000       0.656014        17.8510 
 163   0.0000       0.661748        18.0071 
 164   0.0000       0.667144        18.1539 
 165   0.0000       0.674952        18.3664 
 166   0.0000       0.677818        18.4444 
 167   0.0000       0.682779        18.5794 
 168   0.0000       0.685636        18.6571 
 169   0.0000       0.698257        19.0005 
 170   0.0000       0.700417        19.0593 
 171   0.0000       0.701768        19.0961 
 172   0.0000       0.708200        19.2711 
 173   0.0000       0.717721        19.5302 
 174   0.0000       0.722164        19.6511 
 175   0.0000       0.725924        19.7534 
 176   0.0000       0.730665        19.8824 
 177   0.0000       0.737848        20.0779 
 178   0.0000       0.745744        20.2927 
 179   0.0000       0.749104        20.3842 
 180   0.0000       0.760138        20.6844 
 181   0.0000       0.772406        21.0182 
 182   0.0000       0.778209        21.1761 
 183   0.0000       0.786109        21.3911 
 184   0.0000       0.798307        21.7230 
 185   0.0000       0.799826        21.7644 
 186   0.0000       0.804090        21.8804 
 187   0.0000       0.819925        22.3113 
 188   0.0000       0.826425        22.4882 
 189   0.0000       0.832670        22.6581 
 190   0.0000       0.840411        22.8687 
 191   0.0000       0.846624        23.0378 
 192   0.0000       0.850826        23.1522 
 193   0.0000       0.864505        23.5244 
 194   0.0000       0.867030        23.5931 
 195   0.0000       0.874828        23.8053 
 196   0.0000       0.885953        24.1080 
 197   0.0000       0.888199        24.1691 
 198   0.0000       0.893016        24.3002 
 199   0.0000       0.897864        24.4321 
 200   0.0000       0.911392        24.8002 
 201   0.0000       0.921730        25.0815 
 202   0.0000       0.926419        25.2092 
 203   0.0000       0.931396        25.3446 
 204   0.0000       0.932202        25.3665 
 205   0.0000       0.939237        25.5580 
 206   0.0000       0.944196        25.6929 
 207   0.0000       0.957032        26.0422 
 208   0.0000       0.960445        26.1350 
 209   0.0000       0.965248        26.2657 
 210   0.0000       0.974404        26.5149 
 211   0.0000       0.981082        26.6966 
 212   0.0000       0.995099        27.0780 
 213   0.0000       1.008967        27.4554 
 214   0.0000       1.012849        27.5610 
 215   0.0000       1.015401        27.6305 
 216   0.0000       1.023643        27.8547 
 217   0.0000       1.029385        28.0110 
 218   0.0000       1.041310        28.3355 
 219   0.0000       1.045725        28.4556 
 220   0.0000       1.050752        28.5924 
 221   0.0000       1.054834        28.7035 
 222   0.0000       1.057888        28.7866 
 223   0.0000       1.067403        29.0455 
 224   0.0000       1.073014        29.1982 
 225   0.0000       1.085261        29.5315 
 226   0.0000       1.092419        29.7262 
 227   0.0000       1.106614        30.1125 
 228   0.0000       1.110576        30.2203 
 229   0.0000       1.118158        30.4266 
 230   0.0000       1.123079        30.5605 
 231   0.0000       1.126813        30.6621 
 232   0.0000       1.137208        30.9450 
 233   0.0000       1.143915        31.1275 
 234   0.0000       1.149759        31.2865 
 235   0.0000       1.159398        31.5488 
 236   0.0000       1.163272        31.6543 
 237   0.0000       1.173328        31.9279 
 238   0.0000       1.174607        31.9627 
 239   0.0000       1.187418        32.3113 
 240   0.0000       1.189592        32.3704 
 241   0.0000       1.200463        32.6663 
 242   0.0000       1.204028        32.7633 
 243   0.0000       1.210548        32.9407 
 244   0.0000       1.217175        33.1210 
 245   0.0000       1.221976        33.2517 
 246   0.0000       1.224525        33.3210 
 247   0.0000       1.241007        33.7695 
 248   0.0000       1.248356        33.9695 
 249   0.0000       1.255233        34.1566 
 250   0.0000       1.261557        34.3287 
 251   0.0000       1.264770        34.4161 
 252   0.0000       1.274128        34.6708 
 253   0.0000       1.286915        35.0187 
 254   0.0000       1.294526        35.2258 
 255   0.0000       1.302241        35.4358 
 256   0.0000       1.304514        35.4976 
 257   0.0000       1.315079        35.7851 
 258   0.0000       1.321025        35.9469 
 259   0.0000       1.331781        36.2396 
 260   0.0000       1.341306        36.4988 
 261   0.0000       1.347230        36.6600 
 262   0.0000       1.362172        37.0666 
 263   0.0000       1.362426        37.0735 
 264   0.0000       1.373914        37.3861 
 265   0.0000       1.380164        37.5562 
 266   0.0000       1.387276        37.7497 
 267   0.0000       1.394188        37.9378 
 268   0.0000       1.400299        38.1041 
 269   0.0000       1.411474        38.4082 
 270   0.0000       1.413244        38.4563 
 271   0.0000       1.423067        38.7236 
 272   0.0000       1.431739        38.9596 
 273   0.0000       1.433254        39.0008 
 274   0.0000       1.445582        39.3363 
 275   0.0000       1.451073        39.4857 
 276   0.0000       1.466474        39.9048 
 277   0.0000       1.468443        39.9584 
 278   0.0000       1.478311        40.2269 
 279   0.0000       1.485961        40.4351 
 280   0.0000       1.492619        40.6162 
 281   0.0000       1.503533        40.9132 
 282   0.0000       1.504466        40.9386 
 283   0.0000       1.510702        41.1083 
 284   0.0000       1.514176        41.2028 
 285   0.0000       1.529240        41.6127 
 286   0.0000       1.535425        41.7810 
 287   0.0000       1.537276        41.8314 
 288   0.0000       1.546879        42.0927 
 289   0.0000       1.551784        42.2262 
 290   0.0000       1.560018        42.4502 
 291   0.0000       1.566928        42.6383 
 292   0.0000       1.568469        42.6802 
 293   0.0000       1.579295        42.9748 
 294   0.0000       1.587998        43.2116 
 295   0.0000       1.594342        43.3842 
 296   0.0000       1.602960        43.6188 
 297   0.0000       1.607395        43.7395 
 298   0.0000       1.614044        43.9204 
 299   0.0000       1.620552        44.0975 
 300   0.0000       1.628847        44.3232 
 301   0.0000       1.634039        44.4645 
 302   0.0000       1.641952        44.6798 
 303   0.0000       1.644891        44.7598 
 304   0.0000       1.656455        45.0744 
 305   0.0000       1.660713        45.1903 
 306   0.0000       1.672689        45.5162 
 307   0.0000       1.684769        45.8449 
 308   0.0000       1.689328        45.9690 
 309   0.0000       1.696444        46.1626 
 310   0.0000       1.715900        46.6920 
 311   0.0000       1.719657        46.7942 
 312   0.0000       1.723845        46.9082 
 313   0.0000       1.735086        47.2141 
 314   0.0000       1.741478        47.3880 
 315   0.0000       1.756964        47.8094 
 316   0.0000       1.764673        48.0192 
 317   0.0000       1.772167        48.2231 
 318   0.0000       1.783055        48.5194 
 319   0.0000       1.794411        48.8284 
 320   0.0000       1.799765        48.9741 
 321   0.0000       1.808411        49.2094 
 322   0.0000       1.815058        49.3902 
 323   0.0000       1.841050        50.0975 
 324   0.0000       1.847140        50.2632 
 325   0.0000       1.863144        50.6987 
 326   0.0000       1.870935        50.9107 
 327   0.0000       1.896535        51.6073 
 328   0.0000       1.903358        51.7930 
 329   0.0000       1.910819        51.9960 
 330   0.0000       1.920748        52.2662 
 331   0.0000       1.942841        52.8674 
 332   0.0000       1.945486        52.9394 
 333   0.0000       1.956924        53.2506 
 334   0.0000       1.967945        53.5505 
 335   0.0000       1.982247        53.9397 
 336   0.0000       1.987621        54.0859 
 337   0.0000       2.001819        54.4723 
 338   0.0000       2.017929        54.9106 
 339   0.0000       2.021921        55.0193 
 340   0.0000       2.025635        55.1203 
 341   0.0000       2.041559        55.5536 
 342   0.0000       2.044845        55.6431 
 343   0.0000       2.059528        56.0426 
 344   0.0000       2.087526        56.8045 
 345   0.0000       2.120748        57.7085 
 346   0.0000       2.127166        57.8831 
 347   0.0000       2.137985        58.1775 
 348   0.0000       2.146021        58.3962 
 349   0.0000       2.164970        58.9118 
 350   0.0000       2.166923        58.9650 
 351   0.0000       2.209521        60.1241 
 352   0.0000       2.216414        60.3117 
 353   0.0000       2.227961        60.6259 
 354   0.0000       2.239902        60.9508 
 355   0.0000       2.258940        61.4689 
 356   0.0000       2.280230        62.0482 
 357   0.0000       2.283022        62.1242 
 358   0.0000       2.297583        62.5204 
 359   0.0000       2.310458        62.8707 
 360   0.0000       2.315524        63.0086 
 361   0.0000       2.320379        63.1407 
 362   0.0000       2.339654        63.6652 
 363   0.0000       2.347914        63.8900 
 364   0.0000       2.361673        64.2644 
 365   0.0000       2.368156        64.4408 
 366   0.0000       2.387192        64.9588 
 367   0.0000       2.401277        65.3421 
 368   0.0000       2.411361        65.6165 
 369   0.0000       2.419534        65.8389 
 370   0.0000       2.433866        66.2289 
 371   0.0000       2.445388        66.5424 
 372   0.0000       2.456020        66.8317 
 373   0.0000       2.464714        67.0683 
 374   0.0000       2.484993        67.6201 
 375   0.0000       2.488878        67.7258 
 376   0.0000       2.490176        67.7611 
 377   0.0000       2.516743        68.4841 
 378   0.0000       2.520224        68.5788 
 379   0.0000       2.536260        69.0151 
 380   0.0000       2.550150        69.3931 
 381   0.0000       2.555134        69.5287 
 382   0.0000       2.577049        70.1251 
 383   0.0000       2.589200        70.4557 
 384   0.0000       2.595331        70.6225 
 385   0.0000       2.597479        70.6810 
 386   0.0000       2.603470        70.8440 
 387   0.0000       2.636053        71.7307 
 388   0.0000       2.639963        71.8371 
 389   0.0000       2.656953        72.2994 
 390   0.0000       2.672286        72.7166 
 391   0.0000       2.674711        72.7826 
 392   0.0000       2.687080        73.1192 
 393   0.0000       2.704565        73.5950 
 394   0.0000       2.709969        73.7420 
 395   0.0000       2.725669        74.1692 
 396   0.0000       2.731098        74.3169 
 397   0.0000       2.738667        74.5229 
 398   0.0000       2.742608        74.6302 
 399   0.0000       2.761868        75.1543 
 400   0.0000       2.764552        75.2273 
 401   0.0000       2.791501        75.9606 
 402   0.0000       2.796365        76.0930 
 403   0.0000       2.802100        76.2490 
 404   0.0000       2.806834        76.3778 
 405   0.0000       2.817826        76.6769 
 406   0.0000       2.828911        76.9786 
 407   0.0000       2.830383        77.0186 
 408   0.0000       2.840874        77.3041 
 409   0.0000       2.849682        77.5438 
 410   0.0000       2.866855        78.0111 
 411   0.0000       2.878132        78.3180 
 412   0.0000       2.894530        78.7642 
 413   0.0000       2.898322        78.8674 
 414   0.0000       2.921353        79.4941 
 415   0.0000       2.921815        79.5066 
 416   0.0000       2.925736        79.6133 
 417   0.0000       2.939215        79.9801 
 418   0.0000       2.942048        80.0572 
 419   0.0000       2.954901        80.4069 
 420   0.0000       2.961331        80.5819 
 421   0.0000       2.964385        80.6650 
 422   0.0000       2.979690        81.0815 
 423   0.0000       2.989566        81.3502 
 424   0.0000       3.004084        81.7453 
 425   0.0000       3.011539        81.9481 
 426   0.0000       3.018902        82.1485 
 427   0.0000       3.021646        82.2232 
 428   0.0000       3.032158        82.5092 
 429   0.0000       3.038385        82.6786 
 430   0.0000       3.042456        82.7894 
 431   0.0000       3.063405        83.3595 
 432   0.0000       3.065548        83.4178 
 433   0.0000       3.068869        83.5082 
 434   0.0000       3.072801        83.6152 
 435   0.0000       3.077544        83.7442 
 436   0.0000       3.084100        83.9226 
 437   0.0000       3.090324        84.0920 
 438   0.0000       3.095462        84.2318 
 439   0.0000       3.099593        84.3442 
 440   0.0000       3.109571        84.6157 
 441   0.0000       3.118024        84.8457 
 442   0.0000       3.119219        84.8783 
 443   0.0000       3.127305        85.0983 
 444   0.0000       3.133066        85.2551 
 445   0.0000       3.141475        85.4839 
 446   0.0000       3.148199        85.6669 
 447   0.0000       3.163874        86.0934 
 448   0.0000       3.170551        86.2751 
 449   0.0000       3.180970        86.5586 
 450   0.0000       3.192007        86.8589 
 451   0.0000       3.199780        87.0704 
 452   0.0000       3.207194        87.2722 
 453   0.0000       3.218744        87.5865 
 454   0.0000       3.220132        87.6242 
 455   0.0000       3.230565        87.9081 
 456   0.0000       3.238227        88.1166 
 457   0.0000       3.239549        88.1526 
 458   0.0000       3.251212        88.4700 
 459   0.0000       3.258981        88.6814 
 460   0.0000       3.263700        88.8098 
 461   0.0000       3.273932        89.0882 
 462   0.0000       3.278775        89.2200 
 463   0.0000       3.284701        89.3813 
 464   0.0000       3.292080        89.5821 
 465   0.0000       3.298873        89.7669 
 466   0.0000       3.311162        90.1013 
 467   0.0000       3.317979        90.2868 
 468   0.0000       3.321887        90.3931 
 469   0.0000       3.329770        90.6076 
 470   0.0000       3.334758        90.7434 
 471   0.0000       3.339734        90.8788 
 472   0.0000       3.346767        91.0702 
 473   0.0000       3.354942        91.2926 
 474   0.0000       3.356854        91.3446 
 475   0.0000       3.365446        91.5784 
 476   0.0000       3.368094        91.6505 
 477   0.0000       3.377572        91.9084 
 478   0.0000       3.379618        91.9641 
 479   0.0000       3.384123        92.0867 
 480   0.0000       3.391220        92.2798 
 481   0.0000       3.400018        92.5192 
 482   0.0000       3.401749        92.5663 
 483   0.0000       3.408946        92.7621 
 484   0.0000       3.410765        92.8116 
 485   0.0000       3.419415        93.0470 
 486   0.0000       3.424183        93.1768 
 487   0.0000       3.428666        93.2987 
 488   0.0000       3.435417        93.4824 
 489   0.0000       3.439335        93.5891 
 490   0.0000       3.440066        93.6090 
 491   0.0000       3.449708        93.8713 
 492   0.0000       3.458625        94.1140 
 493   0.0000       3.459898        94.1486 
 494   0.0000       3.462752        94.2263 
 495   0.0000       3.470535        94.4380 
 496   0.0000       3.481185        94.7279 
 497   0.0000       3.482747        94.7704 
 498   0.0000       3.488541        94.9280 
 499   0.0000       3.503687        95.3402 
 500   0.0000       3.509204        95.4903 
 501   0.0000       3.510408        95.5231 
 502   0.0000       3.516692        95.6941 
 503   0.0000       3.532743        96.1308 
 504   0.0000       3.535729        96.2121 
 505   0.0000       3.545181        96.4693 
 506   0.0000       3.553378        96.6923 
 507   0.0000       3.557406        96.8019 
 508   0.0000       3.564312        96.9899 
 509   0.0000       3.577899        97.3596 
 510   0.0000       3.584141        97.5294 
 511   0.0000       3.590307        97.6972 
 512   0.0000       3.605866        98.1206 
 513   0.0000       3.612507        98.3013 
 514   0.0000       3.617489        98.4369 
 515   0.0000       3.622144        98.5636 
 516   0.0000       3.627373        98.7058 
 517   0.0000       3.630336        98.7865 
 518   0.0000       3.642453        99.1162 
 519   0.0000       3.643667        99.1492 
 520   0.0000       3.647541        99.2546 
 521   0.0000       3.651942        99.3744 
 522   0.0000       3.664457        99.7150 
 523   0.0000       3.666634        99.7742 
 524   0.0000       3.674668        99.9928 
 525   0.0000       3.681260       100.1722 
 526   0.0000       3.683811       100.2416 
 527   0.0000       3.695276       100.5536 
 528   0.0000       3.704445       100.8031 
 529   0.0000       3.708171       100.9044 
 530   0.0000       3.718253       101.1788 
 531   0.0000       3.720008       101.2266 
 532   0.0000       3.723188       101.3131 
 533   0.0000       3.730908       101.5232 
 534   0.0000       3.741097       101.8004 
 535   0.0000       3.744838       101.9022 
 536   0.0000       3.750597       102.0589 
 537   0.0000       3.755993       102.2058 
 538   0.0000       3.758223       102.2664 
 539   0.0000       3.774047       102.6970 
 540   0.0000       3.777925       102.8026 
 541   0.0000       3.781176       102.8910 
 542   0.0000       3.785936       103.0206 
 543   0.0000       3.801761       103.4512 
 544   0.0000       3.807953       103.6197 
 545   0.0000       3.814189       103.7894 
 546   0.0000       3.820986       103.9743 
 547   0.0000       3.827073       104.1399 
 548   0.0000       3.832536       104.2886 
 549   0.0000       3.840409       104.5028 
 550   0.0000       3.851857       104.8144 
 551   0.0000       3.857688       104.9730 
 552   0.0000       3.866611       105.2158 
 553   0.0000       3.875898       105.4686 
 554   0.0000       3.884503       105.7027 
 555   0.0000       3.898458       106.0824 
 556   0.0000       3.906828       106.3102 
 557   0.0000       3.914595       106.5215 
 558   0.0000       3.919934       106.6668 
 559   0.0000       3.936215       107.1098 
 560   0.0000       3.941293       107.2480 
 561   0.0000       3.957180       107.6803 
 562   0.0000       3.964672       107.8842 
 563   0.0000       3.968564       107.9901 
 564   0.0000       3.974795       108.1597 
 565   0.0000       3.982362       108.3656 
 566   0.0000       3.991398       108.6115 
 567   0.0000       3.999644       108.8358 
 568   0.0000       4.006831       109.0314 
 569   0.0000       4.023150       109.4755 
 570   0.0000       4.031671       109.7073 
 571   0.0000       4.038809       109.9016 
 572   0.0000       4.043987       110.0425 
 573   0.0000       4.058239       110.4303 
 574   0.0000       4.069575       110.7388 
 575   0.0000       4.073993       110.8590 
 576   0.0000       4.085732       111.1784 
 577   0.0000       4.090646       111.3121 
 578   0.0000       4.096184       111.4628 
 579   0.0000       4.100402       111.5776 
 580   0.0000       4.115341       111.9841 
 581   0.0000       4.120069       112.1128 
 582   0.0000       4.130217       112.3889 
 583   0.0000       4.135146       112.5230 
 584   0.0000       4.140184       112.6601 
 585   0.0000       4.146489       112.8317 
 586   0.0000       4.151289       112.9623 
 587   0.0000       4.152971       113.0081 
 588   0.0000       4.164060       113.3098 
 589   0.0000       4.169136       113.4479 
 590   0.0000       4.172973       113.5524 
 591   0.0000       4.179331       113.7254 
 592   0.0000       4.188570       113.9768 
 593   0.0000       4.194200       114.1300 
 594   0.0000       4.203920       114.3945 
 595   0.0000       4.219587       114.8208 
 596   0.0000       4.221186       114.8643 
 597   0.0000       4.230629       115.1213 
 598   0.0000       4.239056       115.3506 
 599   0.0000       4.241859       115.4268 
 600   0.0000       4.247640       115.5842 
 601   0.0000       4.259983       115.9200 
 602   0.0000       4.270414       116.2039 
 603   0.0000       4.279131       116.4411 
 604   0.0000       4.291374       116.7742 
 605   0.0000       4.295346       116.8823 
 606   0.0000       4.311490       117.3216 
 607   0.0000       4.315455       117.4295 
 608   0.0000       4.318779       117.5200 
 609   0.0000       4.330119       117.8285 
 610   0.0000       4.333217       117.9128 
 611   0.0000       4.334918       117.9591 
 612   0.0000       4.347268       118.2952 
 613   0.0000       4.358050       118.5886 
 614   0.0000       4.359929       118.6397 
 615   0.0000       4.370705       118.9329 
 616   0.0000       4.377193       119.1095 
 617   0.0000       4.383108       119.2704 
 618   0.0000       4.386284       119.3569 
 619   0.0000       4.399389       119.7134 
 620   0.0000       4.411169       120.0340 
 621   0.0000       4.426386       120.4481 
 622   0.0000       4.429550       120.5342 
 623   0.0000       4.434733       120.6752 
 624   0.0000       4.444874       120.9512 
 625   0.0000       4.447886       121.0331 
 626   0.0000       4.459448       121.3477 
 627   0.0000       4.476447       121.8103 
 628   0.0000       4.486617       122.0870 
 629   0.0000       4.493490       122.2741 
 630   0.0000       4.502873       122.5294 
 631   0.0000       4.507288       122.6495 
 632   0.0000       4.516815       122.9088 
 633   0.0000       4.531621       123.3117 
 634   0.0000       4.539127       123.5159 
 635   0.0000       4.541338       123.5761 
 636   0.0000       4.549922       123.8097 
 637   0.0000       4.554125       123.9240 
 638   0.0000       4.563174       124.1703 
 639   0.0000       4.569529       124.3432 
 640   0.0000       4.584567       124.7524 
 641   0.0000       4.589131       124.8766 
 642   0.0000       4.603188       125.2591 
 643   0.0000       4.610357       125.4542 
 644   0.0000       4.619530       125.7038 
 645   0.0000       4.622844       125.7940 
 646   0.0000       4.633924       126.0955 
 647   0.0000       4.634695       126.1165 
 648   0.0000       4.645290       126.4048 
 649   0.0000       4.654123       126.6451 
 650   0.0000       4.662060       126.8611 
 651   0.0000       4.668339       127.0320 
 652   0.0000       4.673125       127.1622 
 653   0.0000       4.681376       127.3867 
 654   0.0000       4.689560       127.6094 
 655   0.0000       4.701075       127.9227 
 656   0.0000       4.703501       127.9888 
 657   0.0000       4.714487       128.2877 
 658   0.0000       4.736459       128.8856 
 659   0.0000       4.743930       129.0889 
 660   0.0000       4.759238       129.5055 
 661   0.0000       4.771236       129.8319 
 662   0.0000       4.790305       130.3508 
 663   0.0000       4.793400       130.4350 
 664   0.0000       4.809418       130.8709 
 665   0.0000       4.828460       131.3891 
 666   0.0000       4.857729       132.1855 
 667   0.0000       4.863777       132.3501 
 668   0.0000       4.881905       132.8434 
 669   0.0000       4.896575       133.2426 
 670   0.0000       4.905001       133.4719 
 671   0.0000       4.926415       134.0546 
 672   0.0000       4.939361       134.4069 
 673   0.0000       4.959662       134.9593 
 674   0.0000       4.962986       135.0497 
 675   0.0000       5.000584       136.0728 
 676   0.0000       5.010259       136.3361 
 677   0.0000       5.016169       136.4969 
 678   0.0000       5.032181       136.9326 
 679   0.0000       5.042887       137.2239 
 680   0.0000       5.048477       137.3761 
 681   0.0000       5.059877       137.6863 
 682   0.0000       5.068873       137.9310 
 683   0.0000       5.075536       138.1124 
 684   0.0000       5.084033       138.3436 
 685   0.0000       5.110162       139.0546 
 686   0.0000       5.117795       139.2623 
 687   0.0000       5.139820       139.8616 
 688   0.0000       5.149942       140.1370 
 689   0.0000       5.154887       140.2716 
 690   0.0000       5.164066       140.5214 
 691   0.0000       5.172718       140.7568 
 692   0.0000       5.189303       141.2081 
 693   0.0000       5.191301       141.2625 
 694   0.0000       5.204330       141.6170 
 695   0.0000       5.206520       141.6766 
 696   0.0000       5.214853       141.9034 
 697   0.0000       5.223948       142.1509 
 698   0.0000       5.224498       142.1658 
 699   0.0000       5.244768       142.7174 
 700   0.0000       5.257056       143.0518 
 701   0.0000       5.279012       143.6492 
 702   0.0000       5.285039       143.8132 
 703   0.0000       5.296701       144.1306 
 704   0.0000       5.317208       144.6886 
 705   0.0000       5.331708       145.0832 
 706   0.0000       5.332692       145.1099 
 707   0.0000       5.342923       145.3883 
 708   0.0000       5.350799       145.6026 
 709   0.0000       5.367797       146.0652 
 710   0.0000       5.375548       146.2761 
 711   0.0000       5.414031       147.3233 
 712   0.0000       5.423640       147.5848 
 713   0.0000       5.446147       148.1972 
 714   0.0000       5.455333       148.4472 
 715   0.0000       5.477073       149.0387 
 716   0.0000       5.487589       149.3249 
 717   0.0000       5.510192       149.9400 
 718   0.0000       5.514922       150.0686 
 719   0.0000       5.525935       150.3683 
 720   0.0000       5.529055       150.4532 
 721   0.0000       5.537294       150.6774 
 722   0.0000       5.549221       151.0020 
 723   0.0000       5.562227       151.3559 
 724   0.0000       5.579684       151.8309 
 725   0.0000       5.594899       152.2449 
 726   0.0000       5.621861       152.9786 
 727   0.0000       5.631436       153.2392 
 728   0.0000       5.639007       153.4452 
 729   0.0000       5.643597       153.5701 
 730   0.0000       5.651134       153.7752 
 731   0.0000       5.658777       153.9832 
 732   0.0000       5.659657       154.0071 
 733   0.0000       5.671329       154.3247 
 734   0.0000       5.681551       154.6029 
 735   0.0000       5.685427       154.7083 
 736   0.0000       5.713781       155.4799 
 737   0.0000       5.733811       156.0249 
 738   0.0000       5.745251       156.3362 
 739   0.0000       5.752216       156.5257 
 740   0.0000       5.762498       156.8056 
 741   0.0000       5.772149       157.0682 
 742   0.0000       5.792421       157.6198 
 743   0.0000       5.815308       158.2426 
 744   0.0000       5.830629       158.6595 
 745   0.0000       5.839540       158.9020 
 746   0.0000       5.855587       159.3386 
 747   0.0000       5.863164       159.5448 
 748   0.0000       5.890326       160.2839 
 749   0.0000       5.896261       160.4454 
 750   0.0000       5.923109       161.1760 
 751   0.0000       5.949141       161.8843 
 752   0.0000       5.971584       162.4951 
 753   0.0000       5.999083       163.2433 
 754   0.0000       6.004339       163.3864 
 755   0.0000       6.024864       163.9449 
 756   0.0000       6.048399       164.5853 
 757   0.0000       6.053620       164.7274 
 758   0.0000       6.075210       165.3149 
 759   0.0000       6.090569       165.7328 
 760   0.0000       6.096821       165.9029 
 761   0.0000       6.145709       167.2332 
 762   0.0000       6.217476       169.1861 
 763   0.0000       6.222695       169.3281 
 764   0.0000       6.227479       169.4583 
 765   0.0000       6.241347       169.8357 
 766   0.0000       6.282497       170.9554 
 767   0.0000       6.312377       171.7685 
 768   0.0000       6.343655       172.6196 
 769   0.0000       6.354661       172.9191 
 770   0.0000       6.369600       173.3256 
 771   0.0000       6.383110       173.6933 
 772   0.0000       6.404126       174.2651 
 773   0.0000       6.441253       175.2754 
 774   0.0000       6.454891       175.6465 
 775   0.0000       6.466521       175.9630 
 776   0.0000       6.498611       176.8362 
 777   0.0000       6.551623       178.2787 
 778   0.0000       6.574125       178.8910 
 779   0.0000       6.597972       179.5400 
 780   0.0000       6.634425       180.5319 
 781   0.0000       6.664810       181.3587 
 782   0.0000       6.711642       182.6331 
 783   0.0000       6.734251       183.2483 
 784   0.0000       6.801821       185.0870 
 785   0.0000       6.834121       185.9659 
 786   0.0000       6.906289       187.9297 
 787   0.0000       6.920637       188.3201 
 788   0.0000       6.930153       188.5791 
 789   0.0000       6.972942       189.7434 
 790   0.0000       7.047000       191.7586 
 791   0.0000       7.050796       191.8619 
 792   0.0000       7.080600       192.6729 
 793   0.0000       7.111062       193.5018 
 794   0.0000       7.238986       196.9828 
 795   0.0000       7.258311       197.5087 
 796   0.0000       7.280323       198.1077 
 797   0.0000       7.304063       198.7537 
 798   0.0000       7.338300       199.6853 
 799   0.0000       7.373814       200.6517 
 800   0.0000       7.378703       200.7847 
 801   0.0000       7.517969       204.5743 
 802   0.0000       7.559989       205.7178 
 803   0.0000       7.579514       206.2491 
 804   0.0000       7.603992       206.9152 
 805   0.0000       7.801650       212.2937 
 806   0.0000       7.814915       212.6546 
 807   0.0000       7.933052       215.8693 
 808   0.0000       7.968398       216.8311 
 809   0.0000       9.360652       254.7163 
 810   0.0000       9.597292       261.1556 
 811   0.0000      10.694039       290.9996 
 812   0.0000      11.036994       300.3319 
 813   0.0000      12.093780       329.0885 
 814   0.0000      12.598151       342.8131 
 815   0.0000      12.931248       351.8772 
 816   0.0000      13.048476       355.0671 
 817   0.0000      13.196509       359.0953 
 818   0.0000      13.410276       364.9122 
 819   0.0000      13.463029       366.3476 
 820   0.0000      13.526207       368.0668 
 821   0.0000      13.685791       372.4093 
 822   0.0000      13.936716       379.2373 
 823   0.0000      13.983266       380.5040 
 824   0.0000      14.132973       384.5778 
 825   0.0000      14.422441       392.4546 
 826   0.0000      14.499127       394.5413 
 827   0.0000      15.950204       434.0271 

                    ********************************
                    * MULLIKEN POPULATION ANALYSIS *
                    ********************************

-----------------------
MULLIKEN ATOMIC CHARGES
-----------------------
   0 C :   -0.258005
   1 C :    0.022687
   2 O :   -0.320433
   3 C :    0.413283
   4 O :   -0.381712
   5 C :   -0.214546
   6 C :    0.143089
   7 C :   -0.306460
   8 N :   -0.127748
   9 C :    0.193893
  10 S :   -0.437649
  11 N :   -0.197713
  12 C :    0.044020
  13 C :    0.052397
  14 C :   -0.212845
  15 C :   -0.126616
  16 C :   -0.280080
  17 C :    0.308185
  18 O :   -0.355440
  19 C :   -0.255129
  20 H :    0.106554
  21 H :    0.094833
  22 H :    0.090856
  23 H :    0.090190
  24 H :    0.112691
  25 H :    0.139184
  26 H :    0.117440
  27 H :    0.120854
  28 H :    0.196127
  29 H :    0.193415
  30 H :    0.171192
  31 H :    0.161464
  32 H :    0.162718
  33 H :    0.131167
  34 H :    0.241128
  35 H :    0.167011
Sum of atomic charges:   -0.0000000

--------------------------------
MULLIKEN REDUCED ORBITAL CHARGES
--------------------------------
  0 C s       :     3.260534  s :     3.260534
      pz      :     0.962626  p :     2.921746
      px      :     0.950415
      py      :     1.008705
      dz2     :     0.010030  d :     0.071287
      dxz     :     0.017101
      dyz     :     0.020515
      dx2y2   :     0.015892
      dxy     :     0.007751
      f0      :     0.000282  f :     0.004437
      f+1     :     0.000450
      f-1     :     0.000606
      f+2     :     0.001366
      f-2     :     0.000860
      f+3     :     0.000588
      f-3     :     0.000286
  1 C s       :     3.173294  s :     3.173294
      pz      :     0.938489  p :     2.631261
      px      :     0.696897
      py      :     0.995876
      dz2     :     0.027329  d :     0.160986
      dxz     :     0.035090
      dyz     :     0.031714
      dx2y2   :     0.036455
      dxy     :     0.030398
      f0      :     0.000814  f :     0.011772
      f+1     :     0.002383
      f-1     :     0.000766
      f+2     :     0.002398
      f-2     :     0.002009
      f+3     :     0.001609
      f-3     :     0.001793
  2 O s       :     3.723115  s :     3.723115
      pz      :     1.605472  p :     4.560551
      px      :     1.201521
      py      :     1.753559
      dz2     :     0.004170  d :     0.034522
      dxz     :     0.015394
      dyz     :     0.003601
      dx2y2   :     0.004982
      dxy     :     0.006375
      f0      :     0.000176  f :     0.002245
      f+1     :     0.000259
      f-1     :     0.000044
      f+2     :     0.000508
      f-2     :     0.000323
      f+3     :     0.000467
      f-3     :     0.000470
  3 C s       :     3.068835  s :     3.068835
      pz      :     0.742482  p :     2.198005
      px      :     0.713710
      py      :     0.741813
      dz2     :     0.035601  d :     0.293525
      dxz     :     0.092614
      dyz     :     0.018411
      dx2y2   :     0.067958
      dxy     :     0.078940
      f0      :     0.002071  f :     0.026353
      f+1     :     0.004381
      f-1     :     0.001596
      f+2     :     0.003839
      f-2     :     0.003884
      f+3     :     0.006480
      f-3     :     0.004102
  4 O s       :     3.762963  s :     3.762963
      pz      :     1.600816  p :     4.580174
      px      :     1.419881
      py      :     1.559477
      dz2     :     0.004532  d :     0.036096
      dxz     :     0.009506
      dyz     :     0.001357
      dx2y2   :     0.010002
      dxy     :     0.010698
      f0      :     0.000237  f :     0.002479
      f+1     :     0.000410
      f-1     :     0.000070
      f+2     :     0.000307
      f-2     :     0.000215
      f+3     :     0.000586
      f-3     :     0.000654
  5 C s       :     3.172402  s :     3.172402
      pz      :     0.923835  p :     2.941588
      px      :     1.093928
      py      :     0.923825
      dz2     :     0.016752  d :     0.090726
      dxz     :     0.015224
      dyz     :     0.027519
      dx2y2   :     0.016304
      dxy     :     0.014927
      f0      :     0.000817  f :     0.009830
      f+1     :     0.001252
      f-1     :     0.001799
      f+2     :     0.002125
      f-2     :     0.001093
      f+3     :     0.001282
      f-3     :     0.001462
  6 C s       :     3.190741  s :     3.190741
      pz      :     0.842882  p :     2.474802
      px      :     0.849859
      py      :     0.782061
      dz2     :     0.035133  d :     0.176863
      dxz     :     0.019291
      dyz     :     0.048994
      dx2y2   :     0.025727
      dxy     :     0.047718
      f0      :     0.001734  f :     0.014504
      f+1     :     0.001062
      f-1     :     0.003268
      f+2     :     0.002668
      f-2     :     0.002093
      f+3     :     0.002023
      f-3     :     0.001656
  7 C s       :     3.290458  s :     3.290458
      pz      :     0.893726  p :     2.941290
      px      :     1.010004
      py      :     1.037559
      dz2     :     0.020009  d :     0.070122
      dxz     :     0.015220
      dyz     :     0.010071
      dx2y2   :     0.018747
      dxy     :     0.006074
      f0      :     0.000855  f :     0.004591
      f+1     :     0.001248
      f-1     :     0.000752
      f+2     :     0.000281
      f-2     :     0.000380
      f+3     :     0.000256
      f-3     :     0.000820
  8 N s       :     3.344846  s :     3.344846
      pz      :     1.243451  p :     3.718298
      px      :     1.385723
      py      :     1.089125
      dz2     :     0.012756  d :     0.059649
      dxz     :     0.009254
      dyz     :     0.014992
      dx2y2   :     0.010454
      dxy     :     0.012192
      f0      :     0.000585  f :     0.004954
      f+1     :     0.000925
      f-1     :     0.000653
      f+2     :     0.001035
      f-2     :     0.000901
      f+3     :     0.000451
      f-3     :     0.000405
  9 C s       :     3.169918  s :     3.169918
      pz      :     0.748421  p :     2.355891
      px      :     0.711066
      py      :     0.896403
      dz2     :     0.059772  d :     0.262653
      dxz     :     0.031291
      dyz     :     0.055682
      dx2y2   :     0.053215
      dxy     :     0.062694
      f0      :     0.002551  f :     0.017645
      f+1     :     0.002455
      f-1     :     0.002492
      f+2     :     0.002799
      f-2     :     0.002293
      f+3     :     0.002377
      f-3     :     0.002677
 10 S s       :     5.855352  s :     5.855352
      pz      :     3.576564  p :    10.487554
      px      :     3.707250
      py      :     3.203740
      dz2     :     0.009095  d :     0.084619
      dxz     :     0.003168
      dyz     :     0.034214
      dx2y2   :     0.021544
      dxy     :     0.016598
      f0      :     0.001244  f :     0.010124
      f+1     :     0.000089
      f-1     :     0.001597
      f+2     :     0.002957
      f-2     :     0.001122
      f+3     :     0.001708
      f-3     :     0.001407
 11 N s       :     3.369654  s :     3.369654
      pz      :     1.360443  p :     3.765994
      px      :     1.373905
      py      :     1.031646
      dz2     :     0.007610  d :     0.057621
      dxz     :     0.007440
      dyz     :     0.013564
      dx2y2   :     0.013562
      dxy     :     0.015444
      f0      :     0.000408  f :     0.004445
      f+1     :     0.000567
      f-1     :     0.000556
      f+2     :     0.000619
      f-2     :     0.000728
      f+3     :     0.000828
      f-3     :     0.000739
 12 C s       :     3.117089  s :     3.117089
      pz      :     0.860960  p :     2.643361
      px      :     0.981952
      py      :     0.800449
      dz2     :     0.036429  d :     0.184154
      dxz     :     0.029378
      dyz     :     0.041922
      dx2y2   :     0.034133
      dxy     :     0.042291
      f0      :     0.001172  f :     0.011376
      f+1     :     0.001458
      f-1     :     0.001845
      f+2     :     0.002304
      f-2     :     0.001678
      f+3     :     0.001441
      f-3     :     0.001478
 13 C s       :     3.108897  s :     3.108897
      pz      :     0.891805  p :     2.719585
      px      :     0.900104
      py      :     0.927675
      dz2     :     0.020857  d :     0.107846
      dxz     :     0.013171
      dyz     :     0.026756
      dx2y2   :     0.023300
      dxy     :     0.023761
      f0      :     0.000992  f :     0.011275
      f+1     :     0.001631
      f-1     :     0.001481
[...]
      f-1     :     0.005341
      f+2     :     0.007824
      f-2     :     0.004930
      f+3     :     0.005867
      f-3     :     0.007495
 15 C s       :     2.706232  s :     2.706232
      pz      :     0.914907  p :     2.792504
      px      :     0.924577
      py      :     0.953020
      dz2     :     0.097853  d :     0.416761
      dxz     :     0.075069
      dyz     :     0.066574
      dx2y2   :     0.096555
      dxy     :     0.080710
      f0      :     0.004190  f :     0.041057
      f+1     :     0.006018
      f-1     :     0.005799
      f+2     :     0.007737
      f-2     :     0.005696
      f+3     :     0.006598
      f-3     :     0.005019
 16 C s       :     2.701856  s :     2.701856
      pz      :     0.941622  p :     2.869958
      px      :     0.959271
      py      :     0.969064
      dz2     :     0.049936  d :     0.389531
      dxz     :     0.062350
      dyz     :     0.086892
      dx2y2   :     0.091771
      dxy     :     0.098581
      f0      :     0.003633  f :     0.040224
      f+1     :     0.005307
      f-1     :     0.004996
      f+2     :     0.006083
      f-2     :     0.005013
      f+3     :     0.008284
      f-3     :     0.006909
 17 C s       :     2.701894  s :     2.701894
      pz      :     0.873403  p :     2.680075
      px      :     0.817413
      py      :     0.989259
      dz2     :     0.134146  d :     0.709131
      dxz     :     0.113004
      dyz     :     0.139872
      dx2y2   :     0.161551
      dxy     :     0.160559
      f0      :     0.009696  f :     0.099254
      f+1     :     0.016260
      f-1     :     0.010250
      f+2     :     0.016839
      f-2     :     0.013670
      f+3     :     0.016920
      f-3     :     0.015619
 18 O s       :     3.177351  s :     3.177351
      pz      :     1.392417  p :     4.346682
      px      :     1.430436
      py      :     1.523829
      dz2     :     0.009482  d :     0.075455
      dxz     :     0.016874
      dyz     :     0.019633
      dx2y2   :     0.014382
      dxy     :     0.015085
      f0      :     0.000586  f :     0.005062
      f+1     :     0.000686
      f-1     :     0.000579
      f+2     :     0.000664
      f-2     :     0.001033
      f+3     :     0.000671
      f-3     :     0.000842
 19 C s       :     2.695252  s :     2.695252
      pz      :     0.941425  p :     2.848834
      px      :     0.948724
      py      :     0.958685
      dz2     :     0.079912  d :     0.385842
      dxz     :     0.073352
      dyz     :     0.065754
      dx2y2   :     0.084349
      dxy     :     0.082475
      f0      :     0.004028  f :     0.040671
      f+1     :     0.006314
      f-1     :     0.005440
      f+2     :     0.007668
      f-2     :     0.006131
      f+3     :     0.006416
      f-3     :     0.004674
 20 H s       :     0.844719  s :     0.844719
      pz      :     0.041964  p :     0.150206
      px      :     0.040815
      py      :     0.067427
      dz2     :     0.002940  d :     0.027455
      dxz     :     0.001920
      dyz     :     0.008092
      dx2y2   :     0.007521
      dxy     :     0.006981
 21 H s       :     0.849316  s :     0.849316
      pz      :     0.062459  p :     0.150678
      px      :     0.038614
      py      :     0.049606
      dz2     :     0.008250  d :     0.027495
      dxz     :     0.006557
      dyz     :     0.006828
      dx2y2   :     0.002939
      dxy     :     0.002921
 22 H s       :     0.846121  s :     0.846121
      pz      :     0.044337  p :     0.150712
      px      :     0.066081
      py      :     0.040294
      dz2     :     0.004300  d :     0.027385
      dxz     :     0.007439
      dyz     :     0.002180
      dx2y2   :     0.006021
      dxy     :     0.007446
 23 H s       :     0.861056  s :     0.861056
      pz      :     0.042975  p :     0.150985
      px      :     0.034608
      py      :     0.073402
      dz2     :     0.003081  d :     0.027523
      dxz     :     0.001881
      dyz     :     0.008732
      dx2y2   :     0.006568
      dxy     :     0.007260
 24 H s       :     0.855330  s :     0.855330
      pz      :     0.065668  p :     0.145454
      px      :     0.026696
      py      :     0.053090
      dz2     :     0.008633  d :     0.026929
      dxz     :     0.005032
      dyz     :     0.007787
      dx2y2   :     0.003377
      dxy     :     0.002099
 25 H s       :     0.824981  s :     0.824981
      pz      :     0.056061  p :     0.151393
      px      :     0.047830
      py      :     0.047502
      dz2     :     0.007818  d :     0.027660
      dxz     :     0.005961
      dyz     :     0.005556
      dx2y2   :     0.005138
      dxy     :     0.003186
 26 H s       :     0.836817  s :     0.836817
      pz      :     0.036735  p :     0.149790
      px      :     0.040688
      py      :     0.072367
      dz2     :     0.002776  d :     0.027744
      dxz     :     0.000317
      dyz     :     0.008920
      dx2y2   :     0.006720
      dxy     :     0.009011
 27 H s       :     0.833566  s :     0.833566
      pz      :     0.038591  p :     0.153999
      px      :     0.071942
      py      :     0.043466
      dz2     :     0.002514  d :     0.027830
      dxz     :     0.008445
      dyz     :     0.000481
      dx2y2   :     0.008004
      dxy     :     0.008386
 28 H s       :     0.743804  s :     0.743804
      pz      :     0.062858  p :     0.253300
      px      :     0.083916
      py      :     0.106526
      dz2     :     0.007298  d :     0.061749
      dxz     :     0.003667
      dyz     :     0.016212
      dx2y2   :     0.016484
      dxy     :     0.018088
 29 H s       :     0.748220  s :     0.748220
      pz      :     0.112431  p :     0.254132
      px      :     0.098065
      py      :     0.043637
      dz2     :     0.021289  d :     0.061332
      dxz     :     0.015321
      dyz     :     0.009240
      dx2y2   :     0.008921
      dxy     :     0.006561
 30 H s       :     0.824238  s :     0.824238
      pz      :     0.040774  p :     0.149621
      px      :     0.067577
      py      :     0.041270
      dz2     :     0.003427  d :     0.028359
      dxz     :     0.007488
      dyz     :     0.002509
      dx2y2   :     0.007681
      dxy     :     0.007255
 31 H s       :     0.841047  s :     0.841047
      pz      :     0.051779  p :     0.157156
      px      :     0.065448
      py      :     0.039929
      dz2     :     0.005006  d :     0.027390
      dxz     :     0.006583
      dyz     :     0.003590
      dx2y2   :     0.006094
      dxy     :     0.006116
 32 H s       :     0.842189  s :     0.842189
      pz      :     0.037580  p :     0.150942
      px      :     0.040212
      py      :     0.073149
      dz2     :     0.002941  d :     0.026412
      dxz     :     0.001145
      dyz     :     0.007175
      dx2y2   :     0.007471
      dxy     :     0.007680
 33 H s       :     0.848273  s :     0.848273
      pz      :     0.062618  p :     0.159101
      px      :     0.047672
      py      :     0.048811
      dz2     :     0.007172  d :     0.027759
      dxz     :     0.005565
      dyz     :     0.006327
      dx2y2   :     0.004492
      dxy     :     0.004202
 34 H s       :     0.706172  s :     0.706172
      pz      :     0.125184  p :     0.347607
      px      :     0.085178
      py      :     0.137245
      dz2     :     0.027710  d :     0.099479
      dxz     :     0.015674
      dyz     :     0.024371
      dx2y2   :     0.015840
      dxy     :     0.015884
 35 H s       :     0.838307  s :     0.838307
      pz      :     0.040308  p :     0.157227
      px      :     0.042207
      py      :     0.074711
      dz2     :     0.002978  d :     0.028015
      dxz     :     0.001368
      dyz     :     0.007672
      dx2y2   :     0.007903
      dxy     :     0.008095


                      *****************************
                      * MAYER POPULATION ANALYSIS *
                      *****************************

  NA   - Mulliken gross atomic population
  ZA   - Total nuclear charge
  QA   - Mulliken gross atomic charge
  VA   - Mayer's total valence
  BVA  - Mayer's bonded valence
  FA   - Mayer's free valence

  ATOM       NA         ZA         QA         VA         BVA        FA
  0 C      6.2580     6.0000    -0.2580     3.9010     3.9010    -0.0000
  1 C      5.9773     6.0000     0.0227     3.8586     3.8586     0.0000
  2 O      8.3204     8.0000    -0.3204     2.0456     2.0456     0.0000
  3 C      5.5867     6.0000     0.4133     4.2870     4.2870     0.0000
  4 O      8.3817     8.0000    -0.3817     2.1424     2.1424     0.0000
  5 C      6.2145     6.0000    -0.2145     3.5785     3.5785    -0.0000
  6 C      5.8569     6.0000     0.1431     3.8443     3.8443    -0.0000
  7 C      6.3065     6.0000    -0.3065     3.8791     3.8791    -0.0000
  8 N      7.1277     7.0000    -0.1277     3.2708     3.2708    -0.0000
  9 C      5.8061     6.0000     0.1939     4.1550     4.1550    -0.0000
 10 S     16.4376    16.0000    -0.4376     1.7592     1.7592     0.0000
 11 N      7.1977     7.0000    -0.1977     3.2537     3.2537    -0.0000
 12 C      5.9560     6.0000     0.0440     3.9312     3.9312    -0.0000
 13 C      5.9476     6.0000     0.0524     3.7223     3.7223     0.0000
 14 C      6.2128     6.0000    -0.2128     3.8640     3.8640    -0.0000
 15 C      6.1266     6.0000    -0.1266     3.8043     3.8043    -0.0000
 16 C      6.2801     6.0000    -0.2801     3.7953     3.7953    -0.0000
 17 C      5.6918     6.0000     0.3082     3.8730     3.8730     0.0000
 18 O      8.3554     8.0000    -0.3554     2.1197     2.1197    -0.0000
 19 C      6.2551     6.0000    -0.2551     3.8466     3.8466    -0.0000
 20 H      0.8934     1.0000     0.1066     0.9851     0.9851     0.0000
 21 H      0.9052     1.0000     0.0948     0.9842     0.9842     0.0000
 22 H      0.9091     1.0000     0.0909     0.9814     0.9814     0.0000
 23 H      0.9098     1.0000     0.0902     0.9650     0.9650     0.0000
 24 H      0.8873     1.0000     0.1127     0.9738     0.9738    -0.0000
 25 H      0.8608     1.0000     0.1392     0.9773     0.9773    -0.0000
 26 H      0.8826     1.0000     0.1174     0.9867     0.9867    -0.0000
 27 H      0.8791     1.0000     0.1209     0.9712     0.9712     0.0000
 28 H      0.8039     1.0000     0.1961     1.0222     1.0222    -0.0000
 29 H      0.8066     1.0000     0.1934     1.0187     1.0187    -0.0000
 30 H      0.8288     1.0000     0.1712     1.0036     1.0036     0.0000
 31 H      0.8385     1.0000     0.1615     0.9837     0.9837    -0.0000
 32 H      0.8373     1.0000     0.1627     0.9767     0.9767    -0.0000
 33 H      0.8688     1.0000     0.1312     0.9917     0.9917    -0.0000
 34 H      0.7589     1.0000     0.2411     1.0103     1.0103    -0.0000
 35 H      0.8330     1.0000     0.1670     0.9899     0.9899    -0.0000

  Mayer bond orders larger than 0.100000
B(  0-C ,  1-C ) :   0.9782 B(  0-C , 20-H ) :   0.9774 B(  0-C , 21-H ) :   0.9771 
B(  0-C , 22-H ) :   0.9766 B(  1-C ,  2-O ) :   0.9034 B(  1-C , 23-H ) :   0.9659 
B(  1-C , 24-H ) :   0.9754 B(  2-O ,  3-C ) :   1.1592 B(  3-C ,  4-O ) :   2.1133 
B(  3-C ,  5-C ) :   0.9317 B(  5-C ,  6-C ) :   1.7063 B(  5-C , 12-C ) :   0.9435 
B(  6-C ,  7-C ) :   0.9387 B(  6-C ,  8-N ) :   1.1090 B(  7-C , 25-H ) :   0.9647 
B(  7-C , 26-H ) :   0.9866 B(  7-C , 27-H ) :   0.9675 B(  8-N ,  9-C ) :   1.1858 
B(  8-N , 28-H ) :   0.9496 B(  9-C , 10-S ) :   1.6172 B(  9-C , 11-N ) :   1.2916 
B( 11-N , 12-C ) :   0.9972 B( 11-N , 29-H ) :   0.9527 B( 12-C , 13-C ) :   0.9501 
B( 12-C , 30-H ) :   0.9875 B( 13-C , 14-C ) :   1.3751 B( 13-C , 19-C ) :   1.3667 
B( 14-C , 15-C ) :   1.3852 B( 14-C , 31-H ) :   0.9667 B( 15-C , 16-C ) :   1.3729 
B( 15-C , 32-H ) :   0.9702 B( 16-C , 17-C ) :   1.3249 B( 16-C , 33-H ) :   0.9848 
B( 17-C , 18-O ) :   1.1130 B( 17-C , 19-C ) :   1.3739 B( 18-O , 34-H ) :   0.9794 
B( 19-C , 35-H ) :   0.9575 

-------
TIMINGS
-------

Total SCF time: 0 days 2 hours 39 min 56 sec 

Total time                  ....    9596.893 sec
Sum of individual times     ....    9588.587 sec  ( 99.9%)

Fock matrix formation       ....    9561.424 sec  ( 99.6%)
Diagonalization             ....       2.182 sec  (  0.0%)
Density matrix formation    ....       0.328 sec  (  0.0%)
Population analysis         ....       0.440 sec  (  0.0%)
Initial guess               ....       9.527 sec  (  0.1%)
Orbital Transformation      ....       0.000 sec  (  0.0%)
Orbital Orthonormalization  ....       0.000 sec  (  0.0%)
DIIS solution               ....      10.226 sec  (  0.1%)
SOSCF solution              ....       2.455 sec  (  0.0%)

------------------------------------------------------------------------------
                                ORCA  MP2 
------------------------------------------------------------------------------

Freezing NCore=48 chemical core electrons

-------------
RI-MP2 ENERGY
-------------
Dimension of the basis                    ...  828
Memory devoted to MP2                     ...  256 MB   
Data format for buffers                   ... DOUBLE
Compression type for matrix containers    ... UNCOMPRESSED
Overall scaling of the MP2 energy         ...   1.000e+00
Calculating two index integrals           ... done (    0.061 sec)
Cholesky decomposition of V**-1           ... done (    0.830 sec)

-----------------
RI-TRANSFORMATION (AUX index driven)
-----------------

Dimension of the orbital-basis         ... 828
Dimension of the aux-basis             ... 2141
Transformation of internal/external MOs...   24-  76 to   77- 827
Number Format for Storage              ... Double (8 Byte)
Integral mode                          ... Direct

First Phase: integral generation and transformation of MO indices
  Aux angular momentum 0               ... done (    8.600 sec)
  Aux angular momentum 1               ... done (   13.476 sec)
  Aux angular momentum 2               ... done (   15.867 sec)
  Aux angular momentum 3               ... done (   12.922 sec)
  Aux angular momentum 4               ... done (    4.510 sec)
Closing buffer VIA ( 0.63 GB; CompressionRatio= 1.00)
  Phase 1 completed in    56.016 sec
Second Phase: sorting and transformation of aux index

IA-Transformation
Memory available                       ... 167 MB 
Max. # MO pairs treated in a batch     ... 12    
# of internal orbitals                 ... 53
# batches for internal orbitals        ... 5
Closing buffer IAV ( 0.63 GB; CompressionRatio= 1.00)
(ia|v) transformation done in    65.161 sec

  Phase 2 completed in    65.268 sec
RI-Integral transformation completed in   121.428 sec
Opening buffers                              ... done

Starting loop over batches of integrals:

Operator 0  - window                       ... ( 24- 76)x( 77-827)
Operator 0  - Memory available             ...   256 MB
Operator 0  - Memory needed per MO         ...  12.3 MB
Operator 0  - Number of orbitals per batch ... 13
Operator 0  - Number of batches            ... 5

OPERATOR  0   PASS   0:  MOs    24 ...   36
  Reading integrals       ... ok
  Internal MO  26
  Internal MO  29
  Internal MO  32
  Internal MO  35
OPERATOR  0   PASS   1:  MOs    37 ...   49
  Reading integrals       ... ok
  Internal MO  38
  Internal MO  41
  Internal MO  44
  Internal MO  47
OPERATOR  0   PASS   2:  MOs    50 ...   62
  Reading integrals       ... ok
  Internal MO  50
  Internal MO  53
  Internal MO  56
  Internal MO  59
  Internal MO  62
OPERATOR  0   PASS   3:  MOs    63 ...   75
  Reading integrals       ... ok
  Internal MO  65
  Internal MO  68
  Internal MO  71
  Internal MO  74
OPERATOR  0   PASS   4:  MOs    76 ...   76
  Reading integrals       ... ok
Time spent in pair loops =   331.534 sec
Deleting buffer (Ka|jb)[aa] ...done

-----------------------------------------------
 RI-MP2 CORRELATION ENERGY:     -3.536129840 Eh
-----------------------------------------------


-------
TIMINGS
-------

Total time                :  454.783 sec
Integral trafo            :  121.449 sec ( 26.7%)
I/O of integrals          :   12.300 sec (  2.7%)
K(i,j) Operators          :  104.426 sec ( 23.0%)
T(i,j) pair energies      :    6.170 sec (  1.4%)
V-calculation             :    0.061 sec (  0.0%)
V**(-1/2)                 :    0.830 sec (  0.2%)
Gamma(ia|P)               :    0.000 sec (  0.0%)
Gamma-Trafo               :    0.000 sec (  0.0%)
D(virtual)                :    0.000 sec (  0.0%)
D(internal)               :    0.000 sec (  0.0%)
W(virtual)                :    0.000 sec (  0.0%)
W(internal)               :    0.000 sec (  0.0%)
L(virtual)                :    0.000 sec (  0.0%)
L(internal)               :    0.000 sec (  0.0%)
G(D)                      :    0.000 sec (  0.0%)
G(Z)                      :    0.000 sec (  0.0%)
Z-Vector Solution         :    0.000 sec (  0.0%)
3-Index Derivative        :    0.000 sec (  0.0%)
2-Index Derivative        :    0.000 sec (  0.0%)
Separable Gradient        :    0.000 sec (  0.0%)


---------------------------------------
MP2 TOTAL ENERGY:    -1274.328094486 Eh
---------------------------------------

-------------------------   --------------------
FINAL SINGLE POINT ENERGY     -1274.328094485892
-------------------------   --------------------


                            ***************************************
                            *     ORCA property calculations      *
                            ***************************************


  WARNING: The energy has been calculated at the MP2 level but the densities
           used in the property calculations are still SCF densities
           MP2 response densities have not been calculated 
           use %mp2 Density relaxed end
           or  %mp2 Density unrelaxed end

                                    ---------------------
                                    Active property flags
                                    ---------------------
   (+) Dipole Moment


------------------------------------------------------------------------------
                       ORCA ELECTRIC PROPERTIES CALCULATION
------------------------------------------------------------------------------

Dipole Moment Calculation                       ... on
Quadrupole Moment Calculation                   ... off
Polarizability Calculation                      ... off
GBWName                                         ... G2_CONFS/Conf4.orca.gbw
Electron density file                           ... G2_CONFS/Conf4.orca.scfp
The origin for moment calculation is the CENTER OF MASS  = (32.892582, 31.464474 35.310654)

-------------
DIPOLE MOMENT
-------------
                                X             Y             Z
Electronic contribution:     10.89383       8.83799       8.87177
Nuclear contribution   :    -12.70656     -10.09437      -8.93980
                        -----------------------------------------
Total Dipole Moment    :     -1.81273      -1.25638      -0.06803
                        -----------------------------------------
Magnitude (a.u.)       :      2.20661
Magnitude (Debye)      :      5.60875



--------------------
Rotational spectrum 
--------------------
 
Rotational constants in cm-1:     0.009874     0.009699     0.006249 
Rotational constants in MHz :   296.025207   290.773277   187.332424 

 Dipole components along the rotational axes: 
x,y,z [a.u.] :     0.137337    -1.829512     1.226027 
x,y,z [Debye]:     0.349084    -4.650250     3.116312 

 

Timings for individual modules:

Sum of individual times         ...    10059.271 sec (= 167.655 min)
GTO integral calculation        ...        3.996 sec (=   0.067 min)   0.0 %
SCF iterations                  ...     9599.323 sec (= 159.989 min)  95.4 %
MP2 module                      ...      455.953 sec (=   7.599 min)   4.5 %
                             ****ORCA TERMINATED NORMALLY****
TOTAL RUN TIME: 0 days 2 hours 47 minutes 41 seconds 158 msec
