
                                 *****************
                                 * O   R   C   A *
                                 *****************

           --- An Ab Initio, DFT and Semiempirical electronic structure package ---

                  #######################################################
                  #                        -***-                        #
                  #          Department of theory and spectroscopy      #
                  #               Directorship: Frank Neese             #
                  #        Max Planck Institute fuer Kohlenforschung    #
                  #                Kaiser Wilhelm Platz 1               #
                  #                 D-45470 Muelheim/Ruhr               #
                  #                      Germany                        #
                  #                                                     #
                  #                  All rights reserved                #
                  #                        -***-                        #
                  #######################################################


                         Program Version 4.2.0 -  RELEASE  -


 With contributions from (in alphabetic order):
   Daniel Aravena         : Magnetic Suceptibility
   Michael Atanasov       : Ab Initio Ligand Field Theory (pilot matlab implementation)
   Alexander A. Auer      : GIAO ZORA, VPT2
   Ute Becker             : Parallelization
   Giovanni Bistoni       : ED, misc. LED, open-shell LED, HFLED
   Martin Brehm           : Molecular dynamics
   Dmytro Bykov           : SCF Hessian
   Vijay G. Chilkuri      : MRCI spin determinant printing, contributions to CSF-ICE
   Dipayan Datta          : RHF DLPNO-CCSD density
   Achintya Kumar Dutta   : EOM-CC, STEOM-CC
   Dmitry Ganyushin       : Spin-Orbit,Spin-Spin,Magnetic field MRCI
   Miquel Garcia          : C-PCM Hessian, Gaussian charge scheme
   Yang Guo               : DLPNO-NEVPT2, CIM, IAO-localization
   Andreas Hansen         : Spin unrestricted coupled pair/coupled cluster methods
   Benjamin Helmich-Paris : CASSCF linear response (MC-RPA)
   Lee Huntington         : MR-EOM, pCC
   Robert Izsak           : Overlap fitted RIJCOSX, COSX-SCS-MP3, EOM
   Christian Kollmar      : KDIIS, OOCD, Brueckner-CCSD(T), CCSD density
   Simone Kossmann        : Meta GGA functionals, TD-DFT gradient, OOMP2, MP2 Hessian
   Martin Krupicka        : AUTO-CI
   Lucas Lang             : DCDCAS
   Dagmar Lenk            : GEPOL surface, SMD
   Dimitrios Liakos       : Extrapolation schemes; Compound Job, initial MDCI parallelization
   Dimitrios Manganas     : Further ROCIS development; embedding schemes
   Dimitrios Pantazis     : SARC Basis sets
   Taras Petrenko         : DFT Hessian,TD-DFT gradient, ASA, ECA, R-Raman, ABS, FL, XAS/XES, NRVS
   Peter Pinski           : DLPNO-MP2, DLPNO-MP2 Gradient
   Christoph Reimann      : Effective Core Potentials
   Marius Retegan         : Local ZFS, SOC
   Christoph Riplinger    : Optimizer, TS searches, QM/MM, DLPNO-CCSD(T), (RO)-DLPNO pert. Triples
   Tobias Risthaus        : Range-separated hybrids, TD-DFT gradient, RPA, STAB
   Michael Roemelt        : Original ROCIS implementation
   Masaaki Saitow         : Open-shell DLPNO-CCSD energy and density
   Barbara Sandhoefer     : DKH picture change effects
   Avijit Sen             : IP-ROCIS
   Kantharuban Sivalingam : CASSCF convergence, NEVPT2, FIC-MRCI
   Bernardo de Souza      : ESD, SOC TD-DFT
   Georgi Stoychev        : AutoAux, RI-MP2 NMR
   Willem Van den Heuvel  : Paramagnetic NMR
   Boris Wezisla          : Elementary symmetry handling
   Frank Wennmohs         : Technical directorship


 We gratefully acknowledge several colleagues who have allowed us to
 interface, adapt or use parts of their codes:
   Stefan Grimme, W. Hujo, H. Kruse,             : VdW corrections, initial TS optimization,
                  C. Bannwarth                     DFT functionals, gCP, sTDA/sTD-DF
   Ed Valeev, F. Pavosevic, A. Kumar             : LibInt (2-el integral package), F12 methods
   Garnet Chan, S. Sharma, J. Yang, R. Olivares  : DMRG
   Ulf Ekstrom                                   : XCFun DFT Library
   Mihaly Kallay                                 : mrcc  (arbitrary order and MRCC methods)
   Andreas Klamt, Michael Diedenhofen            : otool_cosmo (COSMO solvation model)
   Jiri Pittner, Ondrej Demel                    : Mk-CCSD
   Frank Weinhold                                : gennbo (NPA and NBO analysis)
   Christopher J. Cramer and Donald G. Truhlar   : smd solvation model
   Lars Goerigk                                  : TD-DFT with DH, B97 family of functionals
   V. Asgeirsson, H. Jonsson                     : NEB implementation
   FAccTs GmbH                                   : IRC, NEB, NEB-TS, Multilevel, MM, QM/MM, CI optimization
   S Lehtola, MJT Oliveira, MAL Marques          : LibXC Library


 Your calculation uses the libint2 library for the computation of 2-el integrals
 For citations please refer to: http://libint.valeyev.net

 Your ORCA version has been built with support for libXC version: 4.2.3
 For citations please refer to: https://tddft.org/programs/libxc/

 This ORCA versions uses:
   CBLAS   interface :  Fast vector & matrix operations
   LAPACKE interface :  Fast linear algebra routines
   SCALAPACK package :  Parallel linear algebra routines


----- Orbital basis set information -----
Your calculation utilizes the basis: cc-pVTZ 
       H, B-Ne : Obtained from the ccRepo (grant-hill.group.shef.ac.uk/ccrepo) Feb. 2017
                 T. H. Dunning, Jr., J. Chem. Phys. 90, 1007 (1989)
            He : Obtained from the ccRepo (grant-hill.group.shef.ac.uk/ccrepo) Feb. 2017
                 D. E. Woon, T. H. Dunning, Jr., J. Chem. Phys. 100, 2975 (1994)
  Li-Be, Na-Mg : Obtained from the ccRepo (grant-hill.group.shef.ac.uk/ccrepo) Feb. 2017
                 B. P. Prascher, D. E. Woon, K. A. Peterson, T. H. Dunning, Jr., A. K. Wilson, Theor. Chem. Acc. 128, 69 (2011)
         Al-Ar : Obtained from the ccRepo (grant-hill.group.shef.ac.uk/ccrepo) Feb. 2017
                 D. E. Woon, T. H. Dunning, Jr., J. Chem. Phys. 98, 1358 (1993)
            Ca : Obtained from the Peterson Research Group Website (tyr0.chem.wsu.edu/~kipeters) Feb. 2017
                 J. Koput, K. A. Peterson, J. Phys. Chem. 106, 9595 (2002)
         Sc-Zn : Obtained from the ccRepo (grant-hill.group.shef.ac.uk/ccrepo) Feb. 2017
                 N. B. Balabanov, K. A. Peterson, J. Chem. Phys. 123, 064107 (2005)
                 N. B. Balabanov, K. A. Peterson, J. Chem. Phys. 125, 074110 (2006)
         Ga-Kr : Obtained from the ccRepo (grant-hill.group.shef.ac.uk/ccrepo) Feb. 2017
                 A. K. Wilson, D. E. Woon, K. A. Peterson, T. H. Dunning, Jr., J. Chem. Phys. 110, 7667 (1999)
             Y : Obtained from the ccRepo (grant-hill.group.shef.ac.uk/ccrepo) Feb. 2017
                 K. A. Peterson, D. Figgen, M. Dolg, H. Stoll, J. Chem. Phys. 126, 124101 (2007)
        Ag, Au : Obtained from the Peterson Research Group Website (tyr0.chem.wsu.edu/~kipeters) Feb. 2017
                 K. A. Peterson, C. Puzzarini, Theor. Chem. Acc. 114, 283 (2005)

----- AuxC basis set information -----
Your calculation utilizes the auxiliary basis: cc-pVTZ/C 
  Obtained from the EMSL Basis Set Exchange (bse.pnl.gov) Feb. 2017
  H-He, B-F, Al-Ar, Ga-Kr : F. Weigend, A. Kohn, C. Hattig, J. Chem. Phys. 116, 3175 (2002)
             Li-Be, Na-Mg : C. Haettig, Phys. Chem. Chem. Phys. 7, 59 (2005)
                       Ne : C. Haettig, Phys. Chem. Chem. Phys. 7, 59 (2005)
                            F. Weigend, A. Kohn, C. Hattig, J. Chem. Phys. 116, 3175 (2002)
                    Sc-Zn : J. G. Hill, J. A. Platts, J. Chem. Phys. 128, 044104 (2008)

================================================================================
                                        WARNINGS
                       Please study these warnings very carefully!
================================================================================


WARNING: No MP2 level density has been requested!
         To caclulate MP2 level properties use
         %mp2 Density relaxed end
         or
         %mp2 Density unrelaxed end

WARNING: Post HF methods need fully converged wavefunctions
  ===> : Setting SCFConvForced true
         You can overwrite this default with %scf ConvForced false 


INFO   : the flag for use of LIBINT has been found!

================================================================================
                                       INPUT FILE
================================================================================
NAME = G2_CONFS/Conf169.orca
|  1> ! ri-mp2 cc-pvtz cc-pvtz/c TightSCF  NoKeepInts
|  2> 
|  3> %scf
|  4>   MaxCore 4096
|  5> end
|  6> *xyz  0  1
|  7>     C       15.6002628   13.1430417   16.6751598
|  8>     C       15.9227132   14.3539463   15.7708054
|  9>     O       16.6493539   15.2833771   16.5953995
| 10>     C       16.3096316   16.6092389   16.6426425
| 11>     O       15.3412664   17.0552968   16.0504709
| 12>     C       17.2010860   17.4038747   17.5693070
| 13>     C       17.1516826   18.7761178   17.5603626
| 14>     C       16.1366489   19.6745439   16.9156794
| 15>     N       18.1126440   19.4712464   18.3184120
| 16>     C       19.2132363   18.9345720   18.9240114
| 17>     S       20.3258473   19.8646161   19.7168240
| 18>     N       19.3407870   17.5793400   18.8556555
| 19>     C       18.4223621   16.7051320   18.1701799
| 20>     C       17.7889556   15.7859007   19.3183655
| 21>     C       18.0149808   14.3823303   19.3207875
| 22>     C       17.4716883   13.5484284   20.3174581
| 23>     C       16.6790135   14.1090739   21.3327119
| 24>     C       16.4353496   15.4893053   21.3455721
| 25>     O       15.6703976   16.0343992   22.3256151
| 26>     C       16.9780958   16.3143703   20.3507887
| 27>     H       16.5329216   12.6700987   17.0192016
| 28>     H       15.0241289   12.3900009   16.1235299
| 29>     H       15.0244582   13.4429052   17.5579395
| 30>     H       16.4973213   14.0491604   14.9015400
| 31>     H       14.9608792   14.7801319   15.4338871
| 32>     H       16.1707042   19.5627105   15.8276282
| 33>     H       16.2919001   20.7321137   17.1516778
| 34>     H       15.1282022   19.4013889   17.2477464
| 35>     H       18.0290659   20.4783525   18.3991689
| 36>     H       20.1486634   17.1953362   19.3180760
| 37>     H       18.8376783   15.9462576   17.5276668
| 38>     H       18.6211992   13.9385785   18.5340302
| 39>     H       17.6653960   12.4763794   20.3006686
| 40>     H       16.2574147   13.4732958   22.1044964
| 41>     H       15.4109306   15.3188505   22.9250247
| 42>     H       16.7801321   17.3782836   20.3855107
| 43> *
| 44> 
| 45>                          ****END OF INPUT****
================================================================================

                       ****************************
                       * Single Point Calculation *
                       ****************************

---------------------------------
CARTESIAN COORDINATES (ANGSTROEM)
---------------------------------
  C     15.600263   13.143042   16.675160
  C     15.922713   14.353946   15.770805
  O     16.649354   15.283377   16.595399
  C     16.309632   16.609239   16.642643
  O     15.341266   17.055297   16.050471
  C     17.201086   17.403875   17.569307
  C     17.151683   18.776118   17.560363
  C     16.136649   19.674544   16.915679
  N     18.112644   19.471246   18.318412
  C     19.213236   18.934572   18.924011
  S     20.325847   19.864616   19.716824
  N     19.340787   17.579340   18.855656
  C     18.422362   16.705132   18.170180
  C     17.788956   15.785901   19.318365
  C     18.014981   14.382330   19.320788
  C     17.471688   13.548428   20.317458
  C     16.679013   14.109074   21.332712
  C     16.435350   15.489305   21.345572
  O     15.670398   16.034399   22.325615
  C     16.978096   16.314370   20.350789
  H     16.532922   12.670099   17.019202
  H     15.024129   12.390001   16.123530
  H     15.024458   13.442905   17.557939
  H     16.497321   14.049160   14.901540
  H     14.960879   14.780132   15.433887
  H     16.170704   19.562711   15.827628
  H     16.291900   20.732114   17.151678
  H     15.128202   19.401389   17.247746
  H     18.029066   20.478352   18.399169
  H     20.148663   17.195336   19.318076
  H     18.837678   15.946258   17.527667
  H     18.621199   13.938578   18.534030
  H     17.665396   12.476379   20.300669
  H     16.257415   13.473296   22.104496
  H     15.410931   15.318850   22.925025
  H     16.780132   17.378284   20.385511

----------------------------
CARTESIAN COORDINATES (A.U.)
----------------------------
  NO LB      ZA    FRAG     MASS         X           Y           Z
   0 C     6.0000    0    12.011   29.480224   24.836749   31.511485
   1 C     6.0000    0    12.011   30.089567   27.125027   29.802503
   2 O     8.0000    0    15.999   31.462719   28.881397   31.360760
   3 C     6.0000    0    12.011   30.820737   31.386913   31.450036
   4 O     8.0000    0    15.999   28.990792   32.229840   30.330994
   5 C     6.0000    0    12.011   32.505342   32.888557   33.201179
   6 C     6.0000    0    12.011   32.411983   35.481721   33.184276
   7 C     6.0000    0    12.011   30.493847   37.179500   31.966001
   8 N     7.0000    0    14.007   34.227937   36.795323   34.616782
   9 C     6.0000    0    12.011   36.307755   35.781156   35.761199
  10 S    16.0000    0    32.060   38.410285   37.538684   37.259398
  11 N     7.0000    0    14.007   36.548791   33.220138   35.632025
  12 C     6.0000    0    12.011   34.813219   31.568125   34.336664
  13 C     6.0000    0    12.011   33.616254   29.831029   36.506420
  14 C     6.0000    0    12.011   34.043380   27.178665   36.510997
  15 C     6.0000    0    12.011   33.016706   25.602819   38.394432
  16 C     6.0000    0    12.011   31.518768   26.662286   40.312983
  17 C     6.0000    0    12.011   31.058310   29.270545   40.337285
  18 O     8.0000    0    15.999   29.612760   30.300623   42.189298
  19 C     6.0000    0    12.011   32.083951   30.829692   38.457417
  20 H     1.0000    0     1.008   31.242694   23.943017   32.161630
  21 H     1.0000    0     1.008   28.391489   23.413709   30.469056
  22 H     1.0000    0     1.008   28.392111   25.403409   33.179697
  23 H     1.0000    0     1.008   31.175419   26.549066   28.159830
  24 H     1.0000    0     1.008   28.271964   27.930402   29.165820
  25 H     1.0000    0     1.008   30.558202   36.968165   29.909883
  26 H     1.0000    0     1.008   30.787229   39.178017   32.411974
  27 H     1.0000    0     1.008   28.588159   36.663312   32.593517
  28 H     1.0000    0     1.008   34.069997   38.698478   34.769390
  29 H     1.0000    0     1.008   38.075456   32.494476   36.505873
  30 H     1.0000    0     1.008   35.598053   30.134060   33.122490
  31 H     1.0000    0     1.008   35.188967   26.340096   35.024241
  32 H     1.0000    0     1.008   33.382760   23.576940   38.362704
  33 H     1.0000    0     1.008   30.722061   25.460839   41.771445
  34 H     1.0000    0     1.008   29.122438   28.948432   43.322018
  35 H     1.0000    0     1.008   31.709854   32.840197   38.523032

--------------------------------
INTERNAL COORDINATES (ANGSTROEM)
--------------------------------
 C      0   0   0     0.000000000000     0.00000000     0.00000000
 C      1   0   0     1.545354681476     0.00000000     0.00000000
 O      2   1   0     1.439376166483   106.02463479     0.00000000
 C      3   2   1     1.369508179919   121.31025734   228.58575657
 O      4   3   2     1.219576161857   122.29694367     3.91143154
 C      4   3   2     1.511570076934   112.56930593   180.00000000
 C      6   4   3     1.373161251900   120.00922577   168.73752222
 C      7   6   4     1.501026081605   128.70185228    12.34171590
 N      7   6   4     1.407582848598   117.73904153   187.64783019
 C      9   7   6     1.366042991899   126.49654847     9.70965554
 S     10   9   7     1.652705988367   122.27409816   176.27599374
 N     10   9   7     1.362936346261   116.34739053   355.47778023
 C     12  10   9     1.441395408068   124.56170849     1.58382767
 C     13  12  10     1.601411923644   105.02206969   243.83258047
 C     14  13  12     1.421655065364   120.33455845   243.97367689
 C     15  14  13     1.408513899216   121.62741115   179.97283618
 C     16  15  14     1.404776492414   119.52236129     0.40397725
 C     17  16  15     1.401633403731   119.84999450     0.02472563
 O     18  17  16     1.357484145016   120.00010056   180.03555623
 C     18  17  16     1.401748802302   120.38364089     0.00000000
 H      1   2   3     1.100859790624   110.04435047   298.00322899
 H      1   2   3     1.096948614917   110.68427058   178.84046983
 H      1   2   3     1.095796082647   111.51008095    57.97663145
 H      2   1   3     1.085675480547   111.03976050   121.73753714
 H      2   1   3     1.104659562978   107.40457602   240.77847770
 H      8   7   6     1.094313431625   110.17110883   295.24108548
 H      8   7   6     1.094647003274   112.93982065   174.40610523
 H      8   7   6     1.096287778485   110.04840989    53.87350280
 H      9   7   6     1.013789757472   118.50312504   186.31590165
 H     12  10   9     1.006953779928   115.54676510   180.90500075
 H     13  12  10     1.077590360308   117.71650013   133.55965414
 H     15  14  13     1.087843489480   119.34688355   359.90310724
 H     16  15  14     1.089538259425   120.20262499   180.41770761
 H     17  16  15     1.085177706664   119.96032757   180.03966147
 H     19  18  17     0.968826576190   107.51861506     1.51526628
 H     20  18  17     1.082731154867   119.00038247   180.34053706

---------------------------
INTERNAL COORDINATES (A.U.)
---------------------------
 C      0   0   0     0.000000000000     0.00000000     0.00000000
 C      1   0   0     2.920297127763     0.00000000     0.00000000
 O      2   1   0     2.720026758347   106.02463479     0.00000000
 C      3   2   1     2.587995398212   121.31025734   228.58575657
 O      4   3   2     2.304664945369   122.29694367     3.91143154
 C      4   3   2     2.856453477635   112.56930593   180.00000000
 C      6   4   3     2.594898703804   120.00922577   168.73752222
 C      7   6   4     2.836528214107   128.70185228    12.34171590
 N      7   6   4     2.659946094656   117.73904153   187.64783019
 C      9   7   6     2.581447141851   126.49654847     9.70965554
 S     10   9   7     3.123161697906   122.27409816   176.27599374
 N     10   9   7     2.575576432401   116.34739053   355.47778023
 C     12  10   9     2.723842571940   124.56170849     1.58382767
 C     13  12  10     3.026229963283   105.02206969   243.83258047
 C     14  13  12     2.686538730440   120.33455845   243.97367689
 C     15  14  13     2.661705525339   121.62741115   179.97283618
 C     16  15  14     2.654642850033   119.52236129     0.40397725
 C     17  16  15     2.648703273207   119.84999450     0.02472563
 O     18  17  16     2.565273265221   120.00010056   180.03555623
 C     18  17  16     2.648921344903   120.38364089     0.00000000
 H      1   2   3     2.080323516126   110.04435047   298.00322899
 H      1   2   3     2.072932465177   110.68427058   178.84046983
 H      1   2   3     2.070754494827   111.51008095    57.97663145
 H      2   1   3     2.051629328548   111.03976050   121.73753714
 H      2   1   3     2.087504045245   107.40457602   240.77847770
 H      8   7   6     2.067952690443   110.17110883   295.24108548
 H      8   7   6     2.068583049505   112.93982065   174.40610523
 H      8   7   6     2.071683665301   110.04840989    53.87350280
 H      9   7   6     1.915784998996   118.50312504   186.31590165
 H     12  10   9     1.902866873581   115.54676510   180.90500075
 H     13  12  10     2.036350665536   117.71650013   133.55965414
 H     15  14  13     2.055726271687   119.34688355   359.90310724
 H     16  15  14     2.058928922742   120.20262499   180.41770761
 H     17  16  15     2.050688672232   119.96032757   180.03966147
 H     19  18  17     1.830816900264   107.51861506     1.51526628
 H     20  18  17     2.046065359362   119.00038247   180.34053706

---------------------
BASIS SET INFORMATION
---------------------
There are 5 groups of distinct atoms

 Group   1 Type C   : 18s5p2d1f contracted to 4s3p2d1f pattern {8811/311/11/1}
 Group   2 Type O   : 18s5p2d1f contracted to 4s3p2d1f pattern {8811/311/11/1}
 Group   3 Type N   : 18s5p2d1f contracted to 4s3p2d1f pattern {8811/311/11/1}
 Group   4 Type S   : 41s16p2d1f contracted to 5s4p2d1f pattern {13131311/7711/11/1}
 Group   5 Type H   : 5s2p1d contracted to 3s2p1d pattern {311/11/1}

Atom   0C    basis set group =>   1
Atom   1C    basis set group =>   1
Atom   2O    basis set group =>   2
Atom   3C    basis set group =>   1
Atom   4O    basis set group =>   2
Atom   5C    basis set group =>   1
Atom   6C    basis set group =>   1
Atom   7C    basis set group =>   1
Atom   8N    basis set group =>   3
Atom   9C    basis set group =>   1
Atom  10S    basis set group =>   4
Atom  11N    basis set group =>   3
Atom  12C    basis set group =>   1
Atom  13C    basis set group =>   1
Atom  14C    basis set group =>   1
Atom  15C    basis set group =>   1
Atom  16C    basis set group =>   1
Atom  17C    basis set group =>   1
Atom  18O    basis set group =>   2
Atom  19C    basis set group =>   1
Atom  20H    basis set group =>   5
Atom  21H    basis set group =>   5
Atom  22H    basis set group =>   5
Atom  23H    basis set group =>   5
Atom  24H    basis set group =>   5
Atom  25H    basis set group =>   5
Atom  26H    basis set group =>   5
Atom  27H    basis set group =>   5
Atom  28H    basis set group =>   5
Atom  29H    basis set group =>   5
Atom  30H    basis set group =>   5
Atom  31H    basis set group =>   5
Atom  32H    basis set group =>   5
Atom  33H    basis set group =>   5
Atom  34H    basis set group =>   5
Atom  35H    basis set group =>   5
---------------------------------
AUXILIARY/C BASIS SET INFORMATION
---------------------------------
There are 5 groups of distinct atoms

 Group   1 Type C   : 8s6p5d3f1g contracted to 8s6p5d3f1g pattern {11111111/111111/11111/111/1}
 Group   2 Type O   : 8s6p5d3f1g contracted to 8s6p5d3f1g pattern {11111111/111111/11111/111/1}
 Group   3 Type N   : 8s6p5d3f1g contracted to 8s6p5d3f1g pattern {11111111/111111/11111/111/1}
 Group   4 Type S   : 10s8p7d5f2g contracted to 10s8p7d5f2g pattern {1111111111/11111111/1111111/11111/11}
 Group   5 Type H   : 4s3p2d1f contracted to 4s3p2d1f pattern {1111/111/11/1}

Atom   0C    basis set group =>   1
Atom   1C    basis set group =>   1
Atom   2O    basis set group =>   2
Atom   3C    basis set group =>   1
Atom   4O    basis set group =>   2
Atom   5C    basis set group =>   1
Atom   6C    basis set group =>   1
Atom   7C    basis set group =>   1
Atom   8N    basis set group =>   3
Atom   9C    basis set group =>   1
Atom  10S    basis set group =>   4
Atom  11N    basis set group =>   3
Atom  12C    basis set group =>   1
Atom  13C    basis set group =>   1
Atom  14C    basis set group =>   1
Atom  15C    basis set group =>   1
Atom  16C    basis set group =>   1
Atom  17C    basis set group =>   1
Atom  18O    basis set group =>   2
Atom  19C    basis set group =>   1
Atom  20H    basis set group =>   5
Atom  21H    basis set group =>   5
Atom  22H    basis set group =>   5
Atom  23H    basis set group =>   5
Atom  24H    basis set group =>   5
Atom  25H    basis set group =>   5
Atom  26H    basis set group =>   5
Atom  27H    basis set group =>   5
Atom  28H    basis set group =>   5
Atom  29H    basis set group =>   5
Atom  30H    basis set group =>   5
Atom  31H    basis set group =>   5
Atom  32H    basis set group =>   5
Atom  33H    basis set group =>   5
Atom  34H    basis set group =>   5
Atom  35H    basis set group =>   5
------------------------------------------------------------------------------
                           ORCA GTO INTEGRAL CALCULATION
------------------------------------------------------------------------------

                         BASIS SET STATISTICS AND STARTUP INFO

 # of primitive gaussian shells          ...  682
 # of primitive gaussian functions       ... 1312
 # of contracted shells                  ...  298
 # of contracted basis functions         ...  828
 Highest angular momentum                ...    3
 Maximum contraction depth               ...   13
 Integral package used                   ... LIBINT
 Integral threshhold            Thresh   ...  2.500e-11
 Primitive cut-off              TCut     ...  2.500e-12


------------------------------ INTEGRAL EVALUATION ----------------------------


 * One electron integrals 
 Pre-screening matrix                    ... done
 Shell pair data                         ... done (   0.014 sec)

-------------------------------------------------------------------------------
                                 ORCA SCF
-------------------------------------------------------------------------------

------------
SCF SETTINGS
------------
Hamiltonian:
 Ab initio Hamiltonian  Method          .... Hartree-Fock(GTOs)


General Settings:
 Integral files         IntName         .... G2_CONFS/Conf169.orca
 Hartree-Fock type      HFTyp           .... RHF
 Total Charge           Charge          ....    0
 Multiplicity           Mult            ....    1
 Number of Electrons    NEL             ....  154
 Basis Dimension        Dim             ....  828
 Nuclear Repulsion      ENuc            ....   1700.1631012255 Eh

Convergence Acceleration:
 DIIS                   CNVDIIS         .... on
   Start iteration      DIISMaxIt       ....    12
   Startup error        DIISStart       ....  0.200000
   # of expansion vecs  DIISMaxEq       ....     5
   Bias factor          DIISBfac        ....   1.050
   Max. coefficient     DIISMaxC        ....  10.000
 Newton-Raphson         CNVNR           .... off
 SOSCF                  CNVSOSCF        .... on
   Start iteration      SOSCFMaxIt      ....   150
   Startup grad/error   SOSCFStart      ....  0.003300
 Level Shifting         CNVShift        .... on
   Level shift para.    LevelShift      ....    0.2500
   Turn off err/grad.   ShiftErr        ....    0.0010
 Zerner damping         CNVZerner       .... off
 Static damping         CNVDamp         .... on
   Fraction old density DampFac         ....    0.7000
   Max. Damping (<1)    DampMax         ....    0.9800
   Min. Damping (>=0)   DampMin         ....    0.0000
   Turn off err/grad.   DampErr         ....    0.1000
 Fernandez-Rico         CNVRico         .... off

SCF Procedure:
 Maximum # iterations   MaxIter         ....   125
 SCF integral mode      SCFMode         .... Direct
   Integral package                     .... LIBINT
 Reset frequency        DirectResetFreq ....    20
 Integral Threshold     Thresh          ....  2.500e-11 Eh
 Primitive CutOff       TCut            ....  2.500e-12 Eh

Convergence Tolerance:
 Convergence Check Mode ConvCheckMode   .... Total+1el-Energy
 Convergence forced     ConvForced      .... 1
 Energy Change          TolE            ....  1.000e-08 Eh
 1-El. energy change                    ....  1.000e-05 Eh
 Orbital Gradient       TolG            ....  1.000e-05
 Orbital Rotation angle TolX            ....  1.000e-05
 DIIS Error             TolErr          ....  5.000e-07


Diagonalization of the overlap matrix:
Smallest eigenvalue                        ... 3.426e-05
Time for diagonalization                   ...    0.121 sec
Threshold for overlap eigenvalues          ... 1.000e-08
Number of eigenvalues below threshold      ... 0
Time for construction of square roots      ...    0.067 sec
Total time needed                          ...    0.190 sec

-------------------
DFT GRID GENERATION
-------------------

General Integration Accuracy     IntAcc      ...  4.340
Radial Grid Type                 RadialGrid  ... Gauss-Chebyshev
Angular Grid (max. acc.)         AngularGrid ... Lebedev-110
Angular grid pruning method      GridPruning ... 3 (G Style)
Weight generation scheme         WeightScheme... Becke
Basis function cutoff            BFCut       ...    1.0000e-11
Integration weight cutoff        WCut        ...    1.0000e-14
Grids for H and He will be reduced by one unit

# of grid points (after initial pruning)     ...  46246 (   0.0 sec)
# of grid points (after weights+screening)   ...  41340 (   0.3 sec)
nearest neighbour list constructed           ...    0.0 sec
Grid point re-assignment to atoms done       ...    0.0 sec
Grid point division into batches done        ...    0.0 sec
Reduced shell lists constructed in    1.0 sec

Total number of grid points                  ...    41340
Total number of batches                      ...      667
Average number of points per batch           ...       61
Average number of grid points per atom       ...     1148
Average number of shells per batch           ...   147.66 (49.55%)
Average number of basis functions per batch  ...   375.13 (45.31%)
Average number of large shells per batch     ...    94.38 (63.92%)
Average number of large basis fcns per batch ...   242.82 (64.73%)
Maximum spatial batch extension              ...  20.21, 20.14, 18.99 au
Average spatial batch extension              ...   3.54,  3.37,  3.46 au

Time for grid setup =    1.285 sec

------------------------------
INITIAL GUESS: MODEL POTENTIAL
------------------------------
Loading Hartree-Fock densities                     ... done
Calculating cut-offs                               ... done
Setting up the integral package                    ... done
Initializing the effective Hamiltonian             ... done
Starting the Coulomb interaction                   ... done (   3.1 sec)
Reading the grid                                   ... done
Mapping shells                                     ... done
Starting the XC term evaluation                    ... done (   1.4 sec)
Transforming the Hamiltonian                       ... done (   0.1 sec)
Diagonalizing the Hamiltonian                      ... done (   0.1 sec)
Back transforming the eigenvectors                 ... done (   0.0 sec)
Now organizing SCF variables                       ... done
                      ------------------
                      INITIAL GUESS DONE (   6.4 sec)
                      ------------------
--------------
SCF ITERATIONS
--------------
ITER       Energy         Delta-E        Max-DP      RMS-DP      [F,P]     Damp
               ***  Starting incremental Fock matrix formation  ***
  0  -1270.0015009180   0.000000000000 0.04936666  0.00043007  0.3093264 0.7000
  1  -1270.2692843407  -0.267783422782 0.03611790  0.00034651  0.1819721 0.7000
                               ***Turning on DIIS***
  2  -1270.4360283873  -0.166744046555 0.02586408  0.00023444  0.1096883 0.7000
  3  -1272.5562271447  -2.120198757387 0.06319275  0.00051269  0.0829738 0.0000
  4  -1270.7471819513   1.809045193332 0.00687646  0.00009145  0.0073699 0.0000
  5  -1270.8041503233  -0.056968371969 0.00346939  0.00004873  0.0045981 0.0000
                      *** Initiating the SOSCF procedure ***
                           *** Shutting down DIIS ***
                      *** Re-Reading the Fockian *** 
                      *** Removing any level shift *** 
ITER      Energy       Delta-E        Grad      Rot      Max-DP    RMS-DP
  6  -1270.78368569   0.0204646292  0.001766  0.001766  0.001662  0.000025
               *** Restarting incremental Fock matrix formation ***
  7  -1270.79826553  -0.0145798367  0.000692  0.001531  0.001263  0.000015
  8  -1270.79830890  -0.0000433708  0.000438  0.001803  0.001368  0.000016
  9  -1270.79832486  -0.0000159618  0.000191  0.000355  0.000345  0.000004
 10  -1270.79832682  -0.0000019611  0.000037  0.000107  0.000114  0.000001
 11  -1270.79832702  -0.0000001928  0.000022  0.000099  0.000049  0.000001
 12  -1270.79832708  -0.0000000617  0.000008  0.000033  0.000034  0.000000
 13  -1270.79832708  -0.0000000016  0.000003  0.000011  0.000007  0.000000
                  ***Gradient check signals convergence***
              ***Rediagonalizing the Fockian in SOSCF/NRSCF***

               *****************************************************
               *                     SUCCESS                       *
               *           SCF CONVERGED AFTER  14 CYCLES          *
               *****************************************************


----------------
TOTAL SCF ENERGY
----------------

Total Energy       :        -1270.79832707 Eh          -34580.18050 eV

Components:
Nuclear Repulsion  :         1700.16310123 Eh           46263.78999 eV
Electronic Energy  :        -2970.96142829 Eh          -80843.97049 eV
One Electron Energy:        -5121.67207024 Eh         -139367.78235 eV
Two Electron Energy:         2150.71064195 Eh           58523.81186 eV

Virial components:
Potential Energy   :        -2539.64495440 Eh          -69107.25255 eV
Kinetic Energy     :         1268.84662734 Eh           34527.07205 eV
Virial Ratio       :            2.00153817


---------------
SCF CONVERGENCE
---------------

  Last Energy change         ...    1.3465e-08  Tolerance :   1.0000e-08
  Last MAX-Density change    ...    2.3453e-06  Tolerance :   1.0000e-07
  Last RMS-Density change    ...    2.7913e-08  Tolerance :   5.0000e-09
  Last Orbital Gradient      ...    1.5605e-06  Tolerance :   1.0000e-05
  Last Orbital Rotation      ...    3.4619e-06  Tolerance :   1.0000e-05

             **** THE GBW FILE WAS UPDATED (G2_CONFS/Conf169.orca.gbw) ****
             **** DENSITY FILE WAS UPDATED (G2_CONFS/Conf169.orca.scfp) ****
             **** ENERGY FILE WAS UPDATED (G2_CONFS/Conf169.orca.en.tmp) ****
             **** THE GBW FILE WAS UPDATED (G2_CONFS/Conf169.orca.gbw) ****
             **** DENSITY FILE WAS UPDATED (G2_CONFS/Conf169.orca.scfp) ****
----------------
ORBITAL ENERGIES
----------------

  NO   OCC          E(Eh)            E(eV) 
   0   2.0000     -91.890326     -2500.4629 
   1   2.0000     -20.602537      -560.6235 
   2   2.0000     -20.592284      -560.3445 
   3   2.0000     -20.542008      -558.9765 
   4   2.0000     -15.630053      -425.3154 
   5   2.0000     -15.612841      -424.8470 
   6   2.0000     -11.397025      -310.1288 
   7   2.0000     -11.385711      -309.8209 
   8   2.0000     -11.339837      -308.5726 
   9   2.0000     -11.312900      -307.8397 
  10   2.0000     -11.309251      -307.7404 
  11   2.0000     -11.295670      -307.3708 
  12   2.0000     -11.263395      -306.4926 
  13   2.0000     -11.258256      -306.3527 
  14   2.0000     -11.253253      -306.2166 
  15   2.0000     -11.250603      -306.1445 
  16   2.0000     -11.237582      -305.7902 
  17   2.0000     -11.233924      -305.6906 
  18   2.0000     -11.233751      -305.6859 
  19   2.0000     -11.227360      -305.5120 
  20   2.0000      -8.895437      -242.0572 
  21   2.0000      -6.577022      -178.9699 
  22   2.0000      -6.574996      -178.9147 
  23   2.0000      -6.574410      -178.8988 
  24   2.0000      -1.450840       -39.4794 
  25   2.0000      -1.411587       -38.4112 
  26   2.0000      -1.355128       -36.8749 
  27   2.0000      -1.344929       -36.5974 
  28   2.0000      -1.245383       -33.8886 
  29   2.0000      -1.149263       -31.2730 
  30   2.0000      -1.120079       -30.4789 
  31   2.0000      -1.042141       -28.3581 
  32   2.0000      -1.034066       -28.1384 
  33   2.0000      -1.008237       -27.4355 
  34   2.0000      -0.995476       -27.0883 
  35   2.0000      -0.986437       -26.8423 
  36   2.0000      -0.921411       -25.0729 
  37   2.0000      -0.888489       -24.1770 
  38   2.0000      -0.851652       -23.1746 
  39   2.0000      -0.831772       -22.6337 
  40   2.0000      -0.827261       -22.5109 
  41   2.0000      -0.816589       -22.2205 
  42   2.0000      -0.764040       -20.7906 
  43   2.0000      -0.730464       -19.8769 
  44   2.0000      -0.720225       -19.5983 
  45   2.0000      -0.696915       -18.9640 
  46   2.0000      -0.686930       -18.6923 
  47   2.0000      -0.681813       -18.5531 
  48   2.0000      -0.672933       -18.3114 
  49   2.0000      -0.662186       -18.0190 
  50   2.0000      -0.649826       -17.6827 
  51   2.0000      -0.646792       -17.6001 
  52   2.0000      -0.635672       -17.2975 
  53   2.0000      -0.602849       -16.4043 
  54   2.0000      -0.600158       -16.3311 
  55   2.0000      -0.595650       -16.2085 
  56   2.0000      -0.593486       -16.1496 
  57   2.0000      -0.577140       -15.7048 
  58   2.0000      -0.571331       -15.5467 
  59   2.0000      -0.563264       -15.3272 
  60   2.0000      -0.559572       -15.2267 
  61   2.0000      -0.546232       -14.8637 
  62   2.0000      -0.544109       -14.8059 
  63   2.0000      -0.529659       -14.4127 
  64   2.0000      -0.518983       -14.1222 
  65   2.0000      -0.511036       -13.9060 
  66   2.0000      -0.496983       -13.5236 
  67   2.0000      -0.494283       -13.4501 
  68   2.0000      -0.479394       -13.0450 
  69   2.0000      -0.461555       -12.5595 
  70   2.0000      -0.457954       -12.4616 
  71   2.0000      -0.449704       -12.2371 
  72   2.0000      -0.350619        -9.5408 
  73   2.0000      -0.343223        -9.3396 
  74   2.0000      -0.329654        -8.9704 
  75   2.0000      -0.316096        -8.6014 
  76   2.0000      -0.313512        -8.5311 
  77   0.0000       0.074257         2.0206 
  78   0.0000       0.111064         3.0222 
  79   0.0000       0.125670         3.4196 
  80   0.0000       0.132961         3.6180 
  81   0.0000       0.139202         3.7879 
  82   0.0000       0.146147         3.9769 
  83   0.0000       0.154299         4.1987 
  84   0.0000       0.156137         4.2487 
  85   0.0000       0.166674         4.5354 
  86   0.0000       0.169329         4.6077 
  87   0.0000       0.178589         4.8597 
  88   0.0000       0.189613         5.1596 
  89   0.0000       0.194907         5.3037 
  90   0.0000       0.204885         5.5752 
  91   0.0000       0.210095         5.7170 
  92   0.0000       0.216879         5.9016 
  93   0.0000       0.220509         6.0004 
  94   0.0000       0.224157         6.0996 
  95   0.0000       0.234204         6.3730 
  96   0.0000       0.245197         6.6722 
  97   0.0000       0.254234         6.9181 
  98   0.0000       0.260156         7.0792 
  99   0.0000       0.275625         7.5001 
 100   0.0000       0.282901         7.6981 
 101   0.0000       0.299173         8.1409 
 102   0.0000       0.313131         8.5207 
 103   0.0000       0.320069         8.7095 
 104   0.0000       0.327013         8.8985 
 105   0.0000       0.333789         9.0829 
 106   0.0000       0.339275         9.2321 
 107   0.0000       0.345471         9.4007 
 108   0.0000       0.358228         9.7479 
 109   0.0000       0.369205        10.0466 
 110   0.0000       0.372268        10.1299 
 111   0.0000       0.373722        10.1695 
 112   0.0000       0.380301        10.3485 
 113   0.0000       0.386876        10.5274 
 114   0.0000       0.399766        10.8782 
 115   0.0000       0.404302        11.0016 
 116   0.0000       0.407647        11.0926 
 117   0.0000       0.419613        11.4182 
 118   0.0000       0.429091        11.6761 
 119   0.0000       0.431259        11.7351 
 120   0.0000       0.442073        12.0294 
 121   0.0000       0.449139        12.2217 
 122   0.0000       0.456090        12.4109 
 123   0.0000       0.460545        12.5321 
 124   0.0000       0.463144        12.6028 
 125   0.0000       0.470972        12.8158 
 126   0.0000       0.476482        12.9657 
 127   0.0000       0.480620        13.0783 
 128   0.0000       0.485470        13.2103 
 129   0.0000       0.490504        13.3473 
 130   0.0000       0.495209        13.4753 
 131   0.0000       0.506585        13.7849 
 132   0.0000       0.516999        14.0683 
 133   0.0000       0.517676        14.0867 
 134   0.0000       0.520993        14.1769 
 135   0.0000       0.534953        14.5568 
 136   0.0000       0.537483        14.6257 
 137   0.0000       0.538817        14.6620 
 138   0.0000       0.542919        14.7736 
 139   0.0000       0.545269        14.8375 
 140   0.0000       0.555740        15.1224 
 141   0.0000       0.561233        15.2719 
 142   0.0000       0.566225        15.4078 
 143   0.0000       0.569519        15.4974 
 144   0.0000       0.580539        15.7973 
 145   0.0000       0.582781        15.8583 
 146   0.0000       0.585695        15.9376 
 147   0.0000       0.590454        16.0671 
 148   0.0000       0.596768        16.2389 
 149   0.0000       0.601660        16.3720 
 150   0.0000       0.606983        16.5168 
 151   0.0000       0.611042        16.6273 
 152   0.0000       0.614856        16.7311 
 153   0.0000       0.619572        16.8594 
 154   0.0000       0.621490        16.9116 
 155   0.0000       0.623959        16.9788 
 156   0.0000       0.631115        17.1735 
 157   0.0000       0.633216        17.2307 
 158   0.0000       0.634180        17.2569 
 159   0.0000       0.637043        17.3348 
 160   0.0000       0.643141        17.5008 
 161   0.0000       0.651186        17.7197 
 162   0.0000       0.655776        17.8446 
 163   0.0000       0.663212        18.0469 
 164   0.0000       0.668660        18.1952 
 165   0.0000       0.673806        18.3352 
 166   0.0000       0.675415        18.3790 
 167   0.0000       0.682479        18.5712 
 168   0.0000       0.688029        18.7222 
 169   0.0000       0.691083        18.8053 
 170   0.0000       0.698775        19.0146 
 171   0.0000       0.707387        19.2490 
 172   0.0000       0.711558        19.3625 
 173   0.0000       0.717617        19.5273 
 174   0.0000       0.726174        19.7602 
 175   0.0000       0.734360        19.9829 
 176   0.0000       0.738228        20.0882 
 177   0.0000       0.750783        20.4298 
 178   0.0000       0.752268        20.4702 
 179   0.0000       0.757645        20.6166 
 180   0.0000       0.764084        20.7918 
 181   0.0000       0.768777        20.9195 
 182   0.0000       0.775500        21.1024 
 183   0.0000       0.783118        21.3097 
 184   0.0000       0.790120        21.5003 
 185   0.0000       0.803531        21.8652 
 186   0.0000       0.813940        22.1484 
 187   0.0000       0.822365        22.3777 
 188   0.0000       0.826308        22.4850 
 189   0.0000       0.832425        22.6514 
 190   0.0000       0.838012        22.8035 
 191   0.0000       0.851391        23.1675 
 192   0.0000       0.854274        23.2460 
 193   0.0000       0.862293        23.4642 
 194   0.0000       0.872089        23.7307 
 195   0.0000       0.875493        23.8234 
 196   0.0000       0.886223        24.1154 
 197   0.0000       0.888401        24.1746 
 198   0.0000       0.899938        24.4886 
 199   0.0000       0.911898        24.8140 
 200   0.0000       0.914689        24.8900 
 201   0.0000       0.920602        25.0508 
 202   0.0000       0.924477        25.1563 
 203   0.0000       0.929213        25.2852 
 204   0.0000       0.942736        25.6532 
 205   0.0000       0.952896        25.9296 
 206   0.0000       0.955384        25.9973 
 207   0.0000       0.959923        26.1208 
 208   0.0000       0.970463        26.4076 
 209   0.0000       0.973225        26.4828 
 210   0.0000       0.982131        26.7251 
 211   0.0000       0.990318        26.9479 
 212   0.0000       1.000430        27.2231 
 213   0.0000       1.002674        27.2841 
 214   0.0000       1.017220        27.6800 
 215   0.0000       1.021002        27.7829 
 216   0.0000       1.025997        27.9188 
 217   0.0000       1.036935        28.2164 
 218   0.0000       1.038298        28.2535 
 219   0.0000       1.044390        28.4193 
 220   0.0000       1.049362        28.5546 
 221   0.0000       1.056387        28.7458 
 222   0.0000       1.068216        29.0676 
 223   0.0000       1.083008        29.4701 
 224   0.0000       1.086877        29.5754 
 225   0.0000       1.094604        29.7857 
 226   0.0000       1.104134        30.0450 
 227   0.0000       1.114316        30.3221 
 228   0.0000       1.116196        30.3732 
 229   0.0000       1.125543        30.6276 
 230   0.0000       1.130399        30.7597 
 231   0.0000       1.136046        30.9134 
 232   0.0000       1.143866        31.1262 
 233   0.0000       1.146270        31.1916 
 234   0.0000       1.156427        31.4680 
 235   0.0000       1.169237        31.8165 
 236   0.0000       1.171161        31.8689 
 237   0.0000       1.171663        31.8826 
 238   0.0000       1.180856        32.1327 
 239   0.0000       1.186212        32.2785 
 240   0.0000       1.193902        32.4877 
 241   0.0000       1.197231        32.5783 
 242   0.0000       1.207128        32.8476 
 243   0.0000       1.210627        32.9428 
 244   0.0000       1.217284        33.1240 
 245   0.0000       1.223963        33.3057 
 246   0.0000       1.232811        33.5465 
 247   0.0000       1.238985        33.7145 
 248   0.0000       1.255528        34.1647 
 249   0.0000       1.257694        34.2236 
 250   0.0000       1.260363        34.2962 
 251   0.0000       1.271186        34.5907 
 252   0.0000       1.273393        34.6508 
 253   0.0000       1.278970        34.8025 
 254   0.0000       1.290487        35.1159 
 255   0.0000       1.303450        35.4687 
 256   0.0000       1.308817        35.6147 
 257   0.0000       1.315147        35.7870 
 258   0.0000       1.323062        36.0024 
 259   0.0000       1.330945        36.2169 
 260   0.0000       1.336818        36.3767 
 261   0.0000       1.345399        36.6102 
 262   0.0000       1.355227        36.8776 
 263   0.0000       1.359983        37.0070 
 264   0.0000       1.370491        37.2930 
 265   0.0000       1.376323        37.4516 
 266   0.0000       1.380006        37.5519 
 267   0.0000       1.400914        38.1208 
 268   0.0000       1.405971        38.2584 
 269   0.0000       1.409485        38.3540 
 270   0.0000       1.421370        38.6774 
 271   0.0000       1.428133        38.8615 
 272   0.0000       1.431077        38.9416 
 273   0.0000       1.442545        39.2537 
 274   0.0000       1.447997        39.4020 
 275   0.0000       1.456642        39.6373 
 276   0.0000       1.472860        40.0786 
 277   0.0000       1.477331        40.2002 
 278   0.0000       1.480034        40.2738 
 279   0.0000       1.491178        40.5770 
 280   0.0000       1.496378        40.7185 
 281   0.0000       1.503983        40.9255 
 282   0.0000       1.506910        41.0051 
 283   0.0000       1.514828        41.2206 
 284   0.0000       1.521372        41.3986 
 285   0.0000       1.524441        41.4821 
 286   0.0000       1.527990        41.5787 
 287   0.0000       1.534915        41.7672 
 288   0.0000       1.539689        41.8971 
 289   0.0000       1.556462        42.3535 
 290   0.0000       1.559738        42.4426 
 291   0.0000       1.567957        42.6663 
 292   0.0000       1.576254        42.8920 
 293   0.0000       1.579440        42.9788 
 294   0.0000       1.581040        43.0223 
 295   0.0000       1.594141        43.3788 
 296   0.0000       1.600642        43.5557 
 297   0.0000       1.603143        43.6237 
 298   0.0000       1.620335        44.0916 
 299   0.0000       1.626690        44.2645 
 300   0.0000       1.636417        44.5292 
 301   0.0000       1.640333        44.6357 
 302   0.0000       1.648206        44.8500 
 303   0.0000       1.654059        45.0092 
 304   0.0000       1.660258        45.1779 
 305   0.0000       1.671585        45.4862 
 306   0.0000       1.674251        45.5587 
 307   0.0000       1.692295        46.0497 
 308   0.0000       1.695409        46.1344 
 309   0.0000       1.698664        46.2230 
 310   0.0000       1.706566        46.4380 
 311   0.0000       1.715177        46.6723 
 312   0.0000       1.734695        47.2034 
 313   0.0000       1.736209        47.2447 
 314   0.0000       1.756047        47.7845 
 315   0.0000       1.765014        48.0285 
 316   0.0000       1.771286        48.1991 
 317   0.0000       1.783479        48.5309 
 318   0.0000       1.790310        48.7168 
 319   0.0000       1.803740        49.0823 
 320   0.0000       1.811855        49.3031 
 321   0.0000       1.815947        49.4144 
 322   0.0000       1.823037        49.6074 
 323   0.0000       1.831394        49.8348 
 324   0.0000       1.842582        50.1392 
 325   0.0000       1.867694        50.8225 
 326   0.0000       1.870403        50.8963 
 327   0.0000       1.883465        51.2517 
 328   0.0000       1.903089        51.7857 
 329   0.0000       1.909604        51.9630 
 330   0.0000       1.920643        52.2634 
 331   0.0000       1.927654        52.4541 
 332   0.0000       1.940204        52.7956 
 333   0.0000       1.946871        52.9770 
 334   0.0000       1.949139        53.0388 
 335   0.0000       1.957917        53.2776 
 336   0.0000       1.984127        53.9908 
 337   0.0000       1.990349        54.1601 
 338   0.0000       1.999517        54.4096 
 339   0.0000       2.018506        54.9263 
 340   0.0000       2.028385        55.1952 
 341   0.0000       2.034806        55.3699 
 342   0.0000       2.045628        55.6644 
 343   0.0000       2.067415        56.2572 
 344   0.0000       2.108727        57.3814 
 345   0.0000       2.122175        57.7473 
 346   0.0000       2.124478        57.8100 
 347   0.0000       2.127157        57.8829 
 348   0.0000       2.131910        58.0122 
 349   0.0000       2.159195        58.7547 
 350   0.0000       2.180276        59.3283 
 351   0.0000       2.202327        59.9284 
 352   0.0000       2.216408        60.3115 
 353   0.0000       2.219847        60.4051 
 354   0.0000       2.240168        60.9581 
 355   0.0000       2.261556        61.5401 
 356   0.0000       2.280979        62.0686 
 357   0.0000       2.285294        62.1860 
 358   0.0000       2.293868        62.4193 
 359   0.0000       2.300042        62.5873 
 360   0.0000       2.308968        62.8302 
 361   0.0000       2.328070        63.3500 
 362   0.0000       2.331664        63.4478 
 363   0.0000       2.352635        64.0184 
 364   0.0000       2.363491        64.3139 
 365   0.0000       2.369762        64.4845 
 366   0.0000       2.376196        64.6596 
 367   0.0000       2.388976        65.0073 
 368   0.0000       2.410542        65.5942 
 369   0.0000       2.418253        65.8040 
 370   0.0000       2.441682        66.4416 
 371   0.0000       2.450995        66.6950 
 372   0.0000       2.467806        67.1524 
 373   0.0000       2.469679        67.2034 
 374   0.0000       2.486825        67.6700 
 375   0.0000       2.504405        68.1483 
 376   0.0000       2.510445        68.3127 
 377   0.0000       2.515430        68.4483 
 378   0.0000       2.531849        68.8951 
 379   0.0000       2.548493        69.3480 
 380   0.0000       2.559391        69.6446 
 381   0.0000       2.583743        70.3072 
 382   0.0000       2.588973        70.4495 
 383   0.0000       2.596209        70.6464 
 384   0.0000       2.611782        71.0702 
 385   0.0000       2.621947        71.3468 
 386   0.0000       2.631689        71.6119 
 387   0.0000       2.632238        71.6268 
 388   0.0000       2.657830        72.3232 
 389   0.0000       2.675070        72.7924 
 390   0.0000       2.679600        72.9156 
 391   0.0000       2.683783        73.0294 
 392   0.0000       2.705530        73.6212 
 393   0.0000       2.713409        73.8356 
 394   0.0000       2.726540        74.1929 
 395   0.0000       2.732788        74.3629 
 396   0.0000       2.746713        74.7419 
 397   0.0000       2.749949        74.8299 
 398   0.0000       2.753628        74.9300 
 399   0.0000       2.763451        75.1973 
 400   0.0000       2.768448        75.3333 
 401   0.0000       2.782762        75.7228 
 402   0.0000       2.788207        75.8710 
 403   0.0000       2.816642        76.6447 
 404   0.0000       2.822108        76.7935 
 405   0.0000       2.830519        77.0223 
 406   0.0000       2.838737        77.2460 
 407   0.0000       2.845146        77.4204 
 408   0.0000       2.864723        77.9531 
 409   0.0000       2.866554        78.0029 
 410   0.0000       2.878932        78.3397 
 411   0.0000       2.883797        78.4721 
 412   0.0000       2.887859        78.5826 
 413   0.0000       2.901063        78.9419 
 414   0.0000       2.908576        79.1464 
 415   0.0000       2.919616        79.4468 
 416   0.0000       2.929913        79.7270 
 417   0.0000       2.935357        79.8751 
 418   0.0000       2.939983        80.0010 
 419   0.0000       2.950353        80.2832 
 420   0.0000       2.955911        80.4344 
 421   0.0000       2.969958        80.8167 
 422   0.0000       2.981978        81.1437 
 423   0.0000       2.987057        81.2820 
 424   0.0000       3.001338        81.6706 
 425   0.0000       3.011988        81.9604 
 426   0.0000       3.027542        82.3836 
 427   0.0000       3.031230        82.4840 
 428   0.0000       3.040152        82.7267 
 429   0.0000       3.047850        82.9362 
 430   0.0000       3.053386        83.0869 
 431   0.0000       3.060760        83.2875 
 432   0.0000       3.073370        83.6306 
 433   0.0000       3.077495        83.7429 
 434   0.0000       3.087080        84.0037 
 435   0.0000       3.089347        84.0654 
 436   0.0000       3.092834        84.1603 
 437   0.0000       3.095266        84.2265 
 438   0.0000       3.100887        84.3794 
 439   0.0000       3.106781        84.5398 
 440   0.0000       3.118880        84.8690 
 441   0.0000       3.125847        85.0586 
 442   0.0000       3.130944        85.1973 
 443   0.0000       3.141303        85.4792 
 444   0.0000       3.147795        85.6559 
 445   0.0000       3.153215        85.8033 
 446   0.0000       3.156413        85.8904 
 447   0.0000       3.162113        86.0455 
 448   0.0000       3.178061        86.4794 
 449   0.0000       3.191850        86.8547 
 450   0.0000       3.200830        87.0990 
 451   0.0000       3.208005        87.2943 
 452   0.0000       3.208255        87.3011 
 453   0.0000       3.218081        87.5684 
 454   0.0000       3.224344        87.7389 
 455   0.0000       3.230913        87.9176 
 456   0.0000       3.238447        88.1226 
 457   0.0000       3.240739        88.1850 
 458   0.0000       3.257847        88.6505 
 459   0.0000       3.265546        88.8600 
 460   0.0000       3.270444        88.9933 
 461   0.0000       3.276799        89.1662 
 462   0.0000       3.282628        89.3249 
 463   0.0000       3.290174        89.5302 
 464   0.0000       3.296860        89.7121 
 465   0.0000       3.304668        89.9246 
 466   0.0000       3.309567        90.0579 
 467   0.0000       3.316324        90.2418 
 468   0.0000       3.321696        90.3880 
 469   0.0000       3.328394        90.5702 
 470   0.0000       3.336033        90.7781 
 471   0.0000       3.339223        90.8649 
 472   0.0000       3.346920        91.0743 
 473   0.0000       3.352055        91.2140 
 474   0.0000       3.360277        91.4378 
 475   0.0000       3.368135        91.6516 
 476   0.0000       3.374802        91.8330 
 477   0.0000       3.378948        91.9459 
 478   0.0000       3.381160        92.0060 
 479   0.0000       3.389682        92.2379 
 480   0.0000       3.395810        92.4047 
 481   0.0000       3.400693        92.5376 
 482   0.0000       3.404163        92.6320 
 483   0.0000       3.414665        92.9178 
 484   0.0000       3.415588        92.9429 
 485   0.0000       3.420035        93.0639 
 486   0.0000       3.421821        93.1125 
 487   0.0000       3.429068        93.3097 
 488   0.0000       3.433668        93.4349 
 489   0.0000       3.439831        93.6026 
 490   0.0000       3.445963        93.7694 
 491   0.0000       3.451757        93.9271 
 492   0.0000       3.454195        93.9934 
 493   0.0000       3.459314        94.1327 
 494   0.0000       3.462673        94.2241 
 495   0.0000       3.474924        94.5575 
 496   0.0000       3.476773        94.6078 
 497   0.0000       3.483345        94.7866 
 498   0.0000       3.490786        94.9891 
 499   0.0000       3.492736        95.0422 
 500   0.0000       3.512553        95.5814 
 501   0.0000       3.528431        96.0135 
 502   0.0000       3.530107        96.0591 
 503   0.0000       3.534753        96.1855 
 504   0.0000       3.544950        96.4630 
 505   0.0000       3.555057        96.7380 
 506   0.0000       3.557138        96.7947 
 507   0.0000       3.565911        97.0334 
 508   0.0000       3.568047        97.0915 
 509   0.0000       3.571997        97.1990 
 510   0.0000       3.579333        97.3986 
 511   0.0000       3.591702        97.7352 
 512   0.0000       3.598069        97.9084 
 513   0.0000       3.608955        98.2047 
 514   0.0000       3.616245        98.4030 
 515   0.0000       3.625344        98.6506 
 516   0.0000       3.627727        98.7155 
 517   0.0000       3.634873        98.9099 
 518   0.0000       3.638385        99.0055 
 519   0.0000       3.645185        99.1905 
 520   0.0000       3.656754        99.5053 
 521   0.0000       3.658627        99.5563 
 522   0.0000       3.661222        99.6269 
 523   0.0000       3.667411        99.7953 
 524   0.0000       3.677554       100.0713 
 525   0.0000       3.685452       100.2863 
 526   0.0000       3.690837       100.4328 
 527   0.0000       3.695747       100.5664 
 528   0.0000       3.698332       100.6367 
 529   0.0000       3.706289       100.8533 
 530   0.0000       3.714728       101.0829 
 531   0.0000       3.717645       101.1623 
 532   0.0000       3.725296       101.3705 
 533   0.0000       3.727829       101.4394 
 534   0.0000       3.746055       101.9353 
 535   0.0000       3.751544       102.0847 
 536   0.0000       3.758994       102.2874 
 537   0.0000       3.762125       102.3726 
 538   0.0000       3.767852       102.5285 
 539   0.0000       3.774117       102.6989 
 540   0.0000       3.779553       102.8469 
 541   0.0000       3.784221       102.9739 
 542   0.0000       3.787383       103.0599 
 543   0.0000       3.803893       103.5092 
 544   0.0000       3.805783       103.5606 
 545   0.0000       3.809400       103.6590 
 546   0.0000       3.810206       103.6810 
 547   0.0000       3.817358       103.8756 
 548   0.0000       3.827651       104.1557 
 549   0.0000       3.838919       104.4623 
 550   0.0000       3.843864       104.5969 
 551   0.0000       3.847372       104.6923 
 552   0.0000       3.856291       104.9350 
 553   0.0000       3.877107       105.5015 
 554   0.0000       3.892366       105.9167 
 555   0.0000       3.896021       106.0161 
 556   0.0000       3.910148       106.4005 
 557   0.0000       3.914923       106.5305 
 558   0.0000       3.927014       106.8595 
 559   0.0000       3.929113       106.9166 
 560   0.0000       3.938565       107.1738 
 561   0.0000       3.942970       107.2937 
 562   0.0000       3.952998       107.5665 
 563   0.0000       3.976369       108.2025 
 564   0.0000       3.979579       108.2899 
 565   0.0000       3.983277       108.3905 
 566   0.0000       3.992444       108.6399 
 567   0.0000       3.998139       108.7949 
 568   0.0000       4.008986       109.0901 
 569   0.0000       4.018525       109.3496 
 570   0.0000       4.035188       109.8030 
 571   0.0000       4.037054       109.8538 
 572   0.0000       4.041915       109.9861 
 573   0.0000       4.046643       110.1147 
 574   0.0000       4.057238       110.4031 
 575   0.0000       4.072502       110.8184 
 576   0.0000       4.079315       111.0038 
 577   0.0000       4.084532       111.1458 
 578   0.0000       4.099008       111.5397 
 579   0.0000       4.110743       111.8590 
 580   0.0000       4.121891       112.1624 
 581   0.0000       4.126478       112.2872 
 582   0.0000       4.128552       112.3436 
 583   0.0000       4.133316       112.4732 
 584   0.0000       4.138850       112.6238 
 585   0.0000       4.144537       112.7786 
 586   0.0000       4.152577       112.9974 
 587   0.0000       4.162366       113.2637 
 588   0.0000       4.166597       113.3789 
 589   0.0000       4.176507       113.6485 
 590   0.0000       4.179794       113.7380 
 591   0.0000       4.189476       114.0014 
 592   0.0000       4.192362       114.0800 
 593   0.0000       4.201432       114.3268 
 594   0.0000       4.202021       114.3428 
 595   0.0000       4.205968       114.4502 
 596   0.0000       4.218256       114.7846 
 597   0.0000       4.224769       114.9618 
 598   0.0000       4.227784       115.0438 
 599   0.0000       4.233016       115.1862 
 600   0.0000       4.240671       115.3945 
 601   0.0000       4.249249       115.6279 
 602   0.0000       4.265114       116.0597 
 603   0.0000       4.268681       116.1567 
 604   0.0000       4.274824       116.3239 
 605   0.0000       4.285881       116.6247 
 606   0.0000       4.308613       117.2433 
 607   0.0000       4.313964       117.3889 
 608   0.0000       4.326192       117.7217 
 609   0.0000       4.329140       117.8019 
 610   0.0000       4.336095       117.9912 
 611   0.0000       4.338406       118.0540 
 612   0.0000       4.351203       118.4023 
 613   0.0000       4.364194       118.7558 
 614   0.0000       4.366668       118.8231 
 615   0.0000       4.372649       118.9858 
 616   0.0000       4.377940       119.1298 
 617   0.0000       4.387153       119.3805 
 618   0.0000       4.392904       119.5370 
 619   0.0000       4.396276       119.6288 
 620   0.0000       4.406552       119.9084 
 621   0.0000       4.407555       119.9357 
 622   0.0000       4.419117       120.2503 
 623   0.0000       4.427471       120.4776 
 624   0.0000       4.432643       120.6183 
 625   0.0000       4.444572       120.9429 
 626   0.0000       4.455801       121.2485 
 627   0.0000       4.459454       121.3479 
 628   0.0000       4.466567       121.5415 
 629   0.0000       4.479340       121.8890 
 630   0.0000       4.495961       122.3413 
 631   0.0000       4.498157       122.4011 
 632   0.0000       4.512456       122.7902 
 633   0.0000       4.526116       123.1619 
 634   0.0000       4.531250       123.3016 
 635   0.0000       4.544214       123.6544 
 636   0.0000       4.549324       123.7934 
 637   0.0000       4.559941       124.0823 
 638   0.0000       4.565869       124.2436 
 639   0.0000       4.574744       124.4851 
 640   0.0000       4.578566       124.5891 
 641   0.0000       4.582009       124.6828 
 642   0.0000       4.587973       124.8451 
 643   0.0000       4.593506       124.9956 
 644   0.0000       4.604086       125.2835 
 645   0.0000       4.613203       125.5316 
 646   0.0000       4.621833       125.7665 
 647   0.0000       4.633613       126.0870 
 648   0.0000       4.642858       126.3386 
 649   0.0000       4.648028       126.4793 
 650   0.0000       4.652698       126.6063 
 651   0.0000       4.659937       126.8033 
 652   0.0000       4.667774       127.0166 
 653   0.0000       4.674949       127.2118 
 654   0.0000       4.683706       127.4501 
 655   0.0000       4.693901       127.7276 
 656   0.0000       4.704600       128.0187 
 657   0.0000       4.713780       128.2685 
 658   0.0000       4.729159       128.6870 
 659   0.0000       4.743184       129.0686 
 660   0.0000       4.747173       129.1771 
 661   0.0000       4.756043       129.4185 
 662   0.0000       4.760192       129.5314 
 663   0.0000       4.792510       130.4108 
 664   0.0000       4.792878       130.4208 
 665   0.0000       4.811986       130.9408 
 666   0.0000       4.835304       131.5753 
 667   0.0000       4.847231       131.8999 
 668   0.0000       4.855507       132.1251 
 669   0.0000       4.874178       132.6331 
 670   0.0000       4.901251       133.3698 
 671   0.0000       4.913994       133.7166 
 672   0.0000       4.932424       134.2181 
 673   0.0000       4.956437       134.8715 
 674   0.0000       4.984717       135.6410 
 675   0.0000       4.986809       135.6980 
 676   0.0000       5.004401       136.1767 
 677   0.0000       5.015448       136.4773 
 678   0.0000       5.030234       136.8796 
 679   0.0000       5.049347       137.3997 
 680   0.0000       5.052644       137.4894 
 681   0.0000       5.074302       138.0788 
 682   0.0000       5.082148       138.2923 
 683   0.0000       5.094625       138.6318 
 684   0.0000       5.101440       138.8172 
 685   0.0000       5.107338       138.9777 
 686   0.0000       5.126217       139.4914 
 687   0.0000       5.135697       139.7494 
 688   0.0000       5.146100       140.0325 
 689   0.0000       5.159625       140.4005 
 690   0.0000       5.162859       140.4885 
 691   0.0000       5.165165       140.5513 
 692   0.0000       5.184452       141.0761 
 693   0.0000       5.199602       141.4884 
 694   0.0000       5.209182       141.7491 
 695   0.0000       5.217449       141.9740 
 696   0.0000       5.226062       142.2084 
 697   0.0000       5.229130       142.2919 
 698   0.0000       5.239153       142.5646 
 699   0.0000       5.244102       142.6993 
 700   0.0000       5.254489       142.9819 
 701   0.0000       5.273574       143.5013 
 702   0.0000       5.289589       143.9370 
 703   0.0000       5.310382       144.5028 
 704   0.0000       5.317226       144.6891 
 705   0.0000       5.337141       145.2310 
 706   0.0000       5.348034       145.5274 
 707   0.0000       5.362342       145.9167 
 708   0.0000       5.371241       146.1589 
 709   0.0000       5.379527       146.3844 
 710   0.0000       5.388622       146.6319 
 711   0.0000       5.410905       147.2382 
 712   0.0000       5.425721       147.6414 
 713   0.0000       5.454763       148.4316 
 714   0.0000       5.466336       148.7466 
 715   0.0000       5.492714       149.4643 
 716   0.0000       5.505617       149.8155 
 717   0.0000       5.510685       149.9534 
 718   0.0000       5.523850       150.3116 
 719   0.0000       5.535354       150.6246 
 720   0.0000       5.539842       150.7468 
 721   0.0000       5.549054       150.9974 
 722   0.0000       5.555708       151.1785 
 723   0.0000       5.559905       151.2927 
 724   0.0000       5.577604       151.7743 
 725   0.0000       5.587199       152.0354 
 726   0.0000       5.599646       152.3741 
 727   0.0000       5.619035       152.9017 
 728   0.0000       5.635878       153.3600 
 729   0.0000       5.641174       153.5042 
 730   0.0000       5.643586       153.5698 
 731   0.0000       5.663737       154.1181 
 732   0.0000       5.667715       154.2264 
 733   0.0000       5.676808       154.4738 
 734   0.0000       5.705025       155.2416 
 735   0.0000       5.710940       155.4026 
 736   0.0000       5.724866       155.7815 
 737   0.0000       5.726927       155.8376 
 738   0.0000       5.738508       156.1527 
 739   0.0000       5.752806       156.5418 
 740   0.0000       5.769301       156.9906 
 741   0.0000       5.780116       157.2850 
 742   0.0000       5.792406       157.6194 
 743   0.0000       5.807917       158.0414 
 744   0.0000       5.822288       158.4325 
 745   0.0000       5.835136       158.7821 
 746   0.0000       5.863017       159.5408 
 747   0.0000       5.900985       160.5740 
 748   0.0000       5.907323       160.7464 
 749   0.0000       5.924508       161.2141 
 750   0.0000       5.938951       161.6071 
 751   0.0000       5.971334       162.4883 
 752   0.0000       5.977019       162.6430 
 753   0.0000       5.992621       163.0675 
 754   0.0000       5.996246       163.1661 
 755   0.0000       6.013519       163.6362 
 756   0.0000       6.061777       164.9493 
 757   0.0000       6.067421       165.1029 
 758   0.0000       6.075984       165.3359 
 759   0.0000       6.106570       166.1682 
 760   0.0000       6.126416       166.7083 
 761   0.0000       6.185193       168.3077 
 762   0.0000       6.201561       168.7531 
 763   0.0000       6.221815       169.3042 
 764   0.0000       6.238305       169.7529 
 765   0.0000       6.270052       170.6168 
 766   0.0000       6.290203       171.1651 
 767   0.0000       6.300443       171.4438 
 768   0.0000       6.340990       172.5471 
 769   0.0000       6.352490       172.8600 
 770   0.0000       6.353140       172.8777 
 771   0.0000       6.368979       173.3087 
 772   0.0000       6.386019       173.7724 
 773   0.0000       6.442303       175.3040 
 774   0.0000       6.487113       176.5233 
 775   0.0000       6.497881       176.8163 
 776   0.0000       6.528133       177.6395 
 777   0.0000       6.552898       178.3134 
 778   0.0000       6.561929       178.5592 
 779   0.0000       6.603677       179.6952 
 780   0.0000       6.655863       181.1152 
 781   0.0000       6.711540       182.6303 
 782   0.0000       6.714358       182.7070 
 783   0.0000       6.755052       183.8143 
 784   0.0000       6.816229       185.4790 
 785   0.0000       6.882497       187.2823 
 786   0.0000       6.889013       187.4596 
 787   0.0000       6.906446       187.9339 
 788   0.0000       6.923942       188.4100 
 789   0.0000       7.025152       191.1641 
 790   0.0000       7.067542       192.3176 
 791   0.0000       7.085287       192.8005 
 792   0.0000       7.091138       192.9597 
 793   0.0000       7.132990       194.0985 
 794   0.0000       7.172795       195.1817 
 795   0.0000       7.253537       197.3788 
 796   0.0000       7.283809       198.2025 
 797   0.0000       7.285426       198.2465 
 798   0.0000       7.341292       199.7667 
 799   0.0000       7.356892       200.1912 
 800   0.0000       7.450508       202.7386 
 801   0.0000       7.515062       204.4952 
 802   0.0000       7.576957       206.1795 
 803   0.0000       7.584212       206.3769 
 804   0.0000       7.698426       209.4848 
 805   0.0000       7.817943       212.7370 
 806   0.0000       7.834546       213.1888 
 807   0.0000       7.938927       216.0292 
 808   0.0000       7.977035       217.0662 
 809   0.0000       9.394865       255.6473 
 810   0.0000       9.508616       258.7426 
 811   0.0000      10.853739       295.3453 
 812   0.0000      11.320819       308.0551 
 813   0.0000      11.903374       323.9073 
 814   0.0000      12.475343       339.4713 
 815   0.0000      12.822092       348.9069 
 816   0.0000      13.028857       354.5332 
 817   0.0000      13.130119       357.2887 
 818   0.0000      13.218047       359.6813 
 819   0.0000      13.307627       362.1189 
 820   0.0000      13.630508       370.9050 
 821   0.0000      13.689797       372.5183 
 822   0.0000      13.814508       375.9119 
 823   0.0000      13.883995       377.8027 
 824   0.0000      13.995640       380.8407 
 825   0.0000      14.435790       392.8178 
 826   0.0000      14.699767       400.0010 
 827   0.0000      15.815729       430.3679 

                    ********************************
                    * MULLIKEN POPULATION ANALYSIS *
                    ********************************

-----------------------
MULLIKEN ATOMIC CHARGES
-----------------------
   0 C :   -0.277225
   1 C :    0.021413
   2 O :   -0.345774
   3 C :    0.453413
   4 O :   -0.438120
   5 C :   -0.244035
   6 C :    0.179365
   7 C :   -0.271965
   8 N :   -0.128801
   9 C :    0.199195
  10 S :   -0.436829
  11 N :   -0.178600
  12 C :    0.088284
  13 C :    0.015747
  14 C :   -0.186546
  15 C :   -0.131207
  16 C :   -0.278567
  17 C :    0.312250
  18 O :   -0.357516
  19 C :   -0.260540
  20 H :    0.083989
  21 H :    0.100863
  22 H :    0.110663
  23 H :    0.099364
  24 H :    0.115334
  25 H :    0.131759
  26 H :    0.096744
  27 H :    0.135516
  28 H :    0.197220
  29 H :    0.195452
  30 H :    0.166423
  31 H :    0.143428
  32 H :    0.159359
  33 H :    0.128399
  34 H :    0.240230
  35 H :    0.161314
Sum of atomic charges:   -0.0000000

--------------------------------
MULLIKEN REDUCED ORBITAL CHARGES
--------------------------------
  0 C s       :     3.252448  s :     3.252448
      pz      :     0.984382  p :     2.946727
      px      :     1.008816
      py      :     0.953529
      dz2     :     0.007791  d :     0.073573
      dxz     :     0.021304
      dyz     :     0.019792
      dx2y2   :     0.008005
      dxy     :     0.016681
      f0      :     0.000294  f :     0.004477
      f+1     :     0.000483
      f-1     :     0.000424
      f+2     :     0.000942
      f-2     :     0.001426
      f+3     :     0.000441
      f-3     :     0.000468
  1 C s       :     3.182057  s :     3.182057
      pz      :     0.894927  p :     2.636568
      px      :     0.921729
      py      :     0.819912
      dz2     :     0.028068  d :     0.148413
      dxz     :     0.028839
      dyz     :     0.032668
      dx2y2   :     0.024335
      dxy     :     0.034502
      f0      :     0.000961  f :     0.011549
      f+1     :     0.001391
      f-1     :     0.002130
      f+2     :     0.002146
      f-2     :     0.002323
      f+3     :     0.001253
      f-3     :     0.001345
  2 O s       :     3.713176  s :     3.713176
      pz      :     1.663667  p :     4.596480
      px      :     1.694566
      py      :     1.238247
      dz2     :     0.004931  d :     0.033846
      dxz     :     0.004701
      dyz     :     0.006939
      dx2y2   :     0.008225
      dxy     :     0.009051
      f0      :     0.000231  f :     0.002272
      f+1     :     0.000128
      f-1     :     0.000407
      f+2     :     0.000268
      f-2     :     0.000335
      f+3     :     0.000468
      f-3     :     0.000434
  3 C s       :     3.065894  s :     3.065894
      pz      :     0.717925  p :     2.157345
      px      :     0.743649
      py      :     0.695771
      dz2     :     0.051768  d :     0.296934
      dxz     :     0.037959
      dyz     :     0.054112
      dx2y2   :     0.078895
      dxy     :     0.074200
      f0      :     0.002082  f :     0.026414
      f+1     :     0.004044
      f-1     :     0.002163
      f+2     :     0.004388
      f-2     :     0.003158
      f+3     :     0.005779
      f-3     :     0.004801
  4 O s       :     3.768052  s :     3.768052
      pz      :     1.498498  p :     4.632659
      px      :     1.393343
      py      :     1.740818
      dz2     :     0.006256  d :     0.035008
      dxz     :     0.009070
      dyz     :     0.004217
      dx2y2   :     0.008325
      dxy     :     0.007140
      f0      :     0.000207  f :     0.002401
      f+1     :     0.000423
      f-1     :     0.000127
      f+2     :     0.000371
      f-2     :     0.000481
      f+3     :     0.000357
      f-3     :     0.000434
  5 C s       :     3.211379  s :     3.211379
      pz      :     1.108416  p :     2.936465
      px      :     0.969845
      py      :     0.858204
      dz2     :     0.010620  d :     0.085935
      dxz     :     0.007857
      dyz     :     0.025977
      dx2y2   :     0.013414
      dxy     :     0.028067
      f0      :     0.001117  f :     0.010255
      f+1     :     0.000999
      f-1     :     0.001065
      f+2     :     0.001857
      f-2     :     0.001690
      f+3     :     0.001830
      f-3     :     0.001696
  6 C s       :     3.175996  s :     3.175996
      pz      :     0.773867  p :     2.456188
      px      :     0.838347
      py      :     0.843974
      dz2     :     0.026233  d :     0.174199
      dxz     :     0.020602
      dyz     :     0.043637
      dx2y2   :     0.031707
      dxy     :     0.052018
      f0      :     0.001623  f :     0.014252
      f+1     :     0.001955
      f-1     :     0.001504
      f+2     :     0.002238
      f-2     :     0.001928
      f+3     :     0.002748
      f-3     :     0.002255
  7 C s       :     3.272758  s :     3.272758
      pz      :     1.013803  p :     2.925090
      px      :     0.966954
      py      :     0.944333
      dz2     :     0.019278  d :     0.069435
      dxz     :     0.009107
      dyz     :     0.009747
      dx2y2   :     0.019103
      dxy     :     0.012200
      f0      :     0.001323  f :     0.004682
      f+1     :     0.000265
      f-1     :     0.000327
      f+2     :     0.000228
      f-2     :     0.000765
      f+3     :     0.000694
      f-3     :     0.001079
  8 N s       :     3.345183  s :     3.345183
      pz      :     1.440103  p :     3.719566
      px      :     1.191334
      py      :     1.088129
      dz2     :     0.008644  d :     0.059123
      dxz     :     0.010583
      dyz     :     0.007466
      dx2y2   :     0.018715
      dxy     :     0.013715
      f0      :     0.000621  f :     0.004930
      f+1     :     0.000918
      f-1     :     0.000369
      f+2     :     0.000823
      f-2     :     0.000921
      f+3     :     0.000602
      f-3     :     0.000676
  9 C s       :     3.159286  s :     3.159286
      pz      :     0.735369  p :     2.359274
      px      :     0.807144
      py      :     0.816761
      dz2     :     0.040066  d :     0.264407
      dxz     :     0.033584
      dyz     :     0.058858
      dx2y2   :     0.076296
      dxy     :     0.055603
      f0      :     0.001747  f :     0.017838
      f+1     :     0.002748
      f-1     :     0.001750
      f+2     :     0.003222
      f-2     :     0.001771
      f+3     :     0.003543
      f-3     :     0.003056
 10 S s       :     5.856350  s :     5.856350
      pz      :     3.481561  p :    10.485560
      px      :     3.395533
      py      :     3.608466
      dz2     :     0.011970  d :     0.084780
      dxz     :     0.019216
      dyz     :     0.016900
      dx2y2   :     0.007212
      dxy     :     0.029482
      f0      :     0.001053  f :     0.010139
      f+1     :     0.001195
      f-1     :     0.000898
      f+2     :     0.000671
      f-2     :     0.003186
      f+3     :     0.001036
      f-3     :     0.002099
 11 N s       :     3.364437  s :     3.364437
      pz      :     1.475749  p :     3.749017
      px      :     1.259916
      py      :     1.013352
      dz2     :     0.005107  d :     0.060421
      dxz     :     0.007603
      dyz     :     0.013906
      dx2y2   :     0.015473
      dxy     :     0.018331
      f0      :     0.000690  f :     0.004726
      f+1     :     0.000383
      f-1     :     0.000634
      f+2     :     0.000722
      f-2     :     0.000681
      f+3     :     0.000771
      f-3     :     0.000844
 12 C s       :     3.098762  s :     3.098762
      pz      :     0.903854  p :     2.622089
      px      :     0.831028
      py      :     0.887208
      dz2     :     0.027437  d :     0.179722
      dxz     :     0.030811
      dyz     :     0.051308
      dx2y2   :     0.029045
      dxy     :     0.041120
      f0      :     0.001019  f :     0.011143
      f+1     :     0.001735
      f-1     :     0.001466
      f+2     :     0.001358
      f-2     :     0.002725
      f+3     :     0.001389
      f-3     :     0.001451
 13 C s       :     3.130452  s :     3.130452
      pz      :     0.886661  p :     2.734184
      px      :     0.902939
      py      :     0.944584
      dz2     :     0.020922  d :     0.109250
      dxz     :     0.010592
      dyz     :     0.033868
      dx2y2   :     0.016805
      dxy     :     0.027063
      f0      :     0.001278  f :     0.010366
      f+1     :     0.001400
[...]
      f+2     :     0.007151
      f-2     :     0.004608
      f+3     :     0.005874
      f-3     :     0.006051
 15 C s       :     2.706935  s :     2.706935
      pz      :     0.946871  p :     2.798785
      px      :     0.880495
      py      :     0.971419
      dz2     :     0.120322  d :     0.416937
      dxz     :     0.070480
      dyz     :     0.082957
      dx2y2   :     0.090175
      dxy     :     0.053002
      f0      :     0.005318  f :     0.040867
      f+1     :     0.005401
      f-1     :     0.007911
      f+2     :     0.007280
      f-2     :     0.006774
      f+3     :     0.003645
      f-3     :     0.004537
 16 C s       :     2.701964  s :     2.701964
      pz      :     0.957102  p :     2.872778
      px      :     0.938024
      py      :     0.977652
      dz2     :     0.067425  d :     0.391588
      dxz     :     0.047440
      dyz     :     0.115051
      dx2y2   :     0.078128
      dxy     :     0.083544
      f0      :     0.006183  f :     0.040377
      f+1     :     0.004635
      f-1     :     0.005509
      f+2     :     0.006718
      f-2     :     0.004925
      f+3     :     0.007199
      f-3     :     0.005208
 17 C s       :     2.702754  s :     2.702754
      pz      :     0.851176  p :     2.682393
      px      :     0.815574
      py      :     1.015643
      dz2     :     0.155373  d :     0.706803
      dxz     :     0.104587
      dyz     :     0.182797
      dx2y2   :     0.125350
      dxy     :     0.138695
      f0      :     0.016769  f :     0.098782
      f+1     :     0.012545
      f-1     :     0.014619
      f+2     :     0.018352
      f-2     :     0.014884
      f+3     :     0.011591
      f-3     :     0.010023
 18 O s       :     3.177443  s :     3.177443
      pz      :     1.334747  p :     4.348540
      px      :     1.514538
      py      :     1.499256
      dz2     :     0.012834  d :     0.075465
      dxz     :     0.015924
      dyz     :     0.025868
      dx2y2   :     0.009565
      dxy     :     0.011275
      f0      :     0.000766  f :     0.005053
      f+1     :     0.000588
      f-1     :     0.000787
      f+2     :     0.001004
      f-2     :     0.001022
      f+3     :     0.000439
      f-3     :     0.000447
 19 C s       :     2.698521  s :     2.698521
      pz      :     0.958593  p :     2.852847
      px      :     0.926100
      py      :     0.968154
      dz2     :     0.099087  d :     0.386461
      dxz     :     0.066973
      dyz     :     0.085971
      dx2y2   :     0.079589
      dxy     :     0.054840
      f0      :     0.005047  f :     0.040084
      f+1     :     0.006179
      f-1     :     0.007390
      f+2     :     0.006990
      f-2     :     0.006936
      f+3     :     0.003536
      f-3     :     0.004006
 20 H s       :     0.852953  s :     0.852953
      pz      :     0.042612  p :     0.150378
      px      :     0.062713
      py      :     0.045054
      dz2     :     0.003042  d :     0.027226
      dxz     :     0.007129
      dyz     :     0.002883
      dx2y2   :     0.006908
      dxy     :     0.007264
 21 H s       :     0.849126  s :     0.849126
      pz      :     0.046621  p :     0.151185
      px      :     0.049089
      py      :     0.055475
      dz2     :     0.004936  d :     0.027354
      dxz     :     0.004213
      dyz     :     0.005759
      dx2y2   :     0.006816
      dxy     :     0.005630
 22 H s       :     0.845858  s :     0.845858
      pz      :     0.062535  p :     0.150234
      px      :     0.048279
      py      :     0.039420
      dz2     :     0.008230  d :     0.027635
      dxz     :     0.007027
      dyz     :     0.006381
      dx2y2   :     0.003034
      dxy     :     0.002963
 23 H s       :     0.859919  s :     0.859919
      pz      :     0.065187  p :     0.149643
      px      :     0.046048
      py      :     0.038408
      dz2     :     0.008881  d :     0.027858
      dxz     :     0.006830
      dyz     :     0.006291
      dx2y2   :     0.002289
      dxy     :     0.003567
 24 H s       :     0.848065  s :     0.848065
      pz      :     0.038438  p :     0.150451
      px      :     0.069406
      py      :     0.042608
      dz2     :     0.002950  d :     0.026834
      dxz     :     0.007346
      dyz     :     0.002771
      dx2y2   :     0.007621
      dxy     :     0.006146
 25 H s       :     0.824213  s :     0.824213
      pz      :     0.074895  p :     0.151986
      px      :     0.039113
      py      :     0.037979
      dz2     :     0.009596  d :     0.028077
      dxz     :     0.009327
      dyz     :     0.008732
      dx2y2   :     0.000342
      dxy     :     0.000080
 26 H s       :     0.843728  s :     0.843728
      pz      :     0.041704  p :     0.150513
      px      :     0.038733
      py      :     0.070076
      dz2     :     0.003365  d :     0.027834
      dxz     :     0.000385
      dyz     :     0.008495
      dx2y2   :     0.006971
      dxy     :     0.008619
 27 H s       :     0.822314  s :     0.822314
      pz      :     0.041857  p :     0.151194
      px      :     0.069407
      py      :     0.039929
      dz2     :     0.004030  d :     0.027895
      dxz     :     0.007944
      dyz     :     0.000941
      dx2y2   :     0.007331
      dxy     :     0.007649
 28 H s       :     0.741543  s :     0.741543
      pz      :     0.075010  p :     0.250845
      px      :     0.055014
      py      :     0.120820
      dz2     :     0.005276  d :     0.060668
      dxz     :     0.000558
      dyz     :     0.020979
      dx2y2   :     0.016104
      dxy     :     0.017751
 29 H s       :     0.745356  s :     0.745356
      pz      :     0.094469  p :     0.253882
      px      :     0.108130
      py      :     0.051282
      dz2     :     0.012569  d :     0.062110
      dxz     :     0.014766
      dyz     :     0.007239
      dx2y2   :     0.014841
      dxy     :     0.012695
 30 H s       :     0.834027  s :     0.834027
      pz      :     0.059389  p :     0.162060
      px      :     0.040104
      py      :     0.062568
      dz2     :     0.007031  d :     0.030768
      dxz     :     0.004818
      dyz     :     0.007617
      dx2y2   :     0.005226
      dxy     :     0.006076
 31 H s       :     0.850554  s :     0.850554
      pz      :     0.061263  p :     0.158465
      px      :     0.057196
      py      :     0.040005
      dz2     :     0.007228  d :     0.027574
      dxz     :     0.006439
      dyz     :     0.005858
      dx2y2   :     0.004054
      dxy     :     0.003995
 32 H s       :     0.844493  s :     0.844493
      pz      :     0.035082  p :     0.151433
      px      :     0.039274
      py      :     0.077078
      dz2     :     0.002689  d :     0.026402
      dxz     :     0.000315
      dyz     :     0.007990
      dx2y2   :     0.007678
      dxy     :     0.007730
 33 H s       :     0.849595  s :     0.849595
      pz      :     0.060138  p :     0.159336
      px      :     0.050207
      py      :     0.048991
      dz2     :     0.007260  d :     0.027766
      dxz     :     0.005300
      dyz     :     0.006710
      dx2y2   :     0.004353
      dxy     :     0.004143
 34 H s       :     0.707013  s :     0.707013
      pz      :     0.106616  p :     0.348130
      px      :     0.096467
      py      :     0.145047
      dz2     :     0.023489  d :     0.099635
      dxz     :     0.013563
      dyz     :     0.024170
      dx2y2   :     0.018336
      dxy     :     0.020077
 35 H s       :     0.841396  s :     0.841396
      pz      :     0.036716  p :     0.158832
      px      :     0.043059
      py      :     0.079057
      dz2     :     0.002779  d :     0.028379
      dxz     :     0.000352
      dyz     :     0.008687
      dx2y2   :     0.007914
      dxy     :     0.008647


                      *****************************
                      * MAYER POPULATION ANALYSIS *
                      *****************************

  NA   - Mulliken gross atomic population
  ZA   - Total nuclear charge
  QA   - Mulliken gross atomic charge
  VA   - Mayer's total valence
  BVA  - Mayer's bonded valence
  FA   - Mayer's free valence

  ATOM       NA         ZA         QA         VA         BVA        FA
  0 C      6.2772     6.0000    -0.2772     3.8824     3.8824     0.0000
  1 C      5.9786     6.0000     0.0214     3.8582     3.8582    -0.0000
  2 O      8.3458     8.0000    -0.3458     2.0732     2.0732    -0.0000
  3 C      5.5466     6.0000     0.4534     4.2452     4.2452     0.0000
  4 O      8.4381     8.0000    -0.4381     2.0784     2.0784    -0.0000
  5 C      6.2440     6.0000    -0.2440     3.6459     3.6459    -0.0000
  6 C      5.8206     6.0000     0.1794     3.8503     3.8503    -0.0000
  7 C      6.2720     6.0000    -0.2720     3.9049     3.9049    -0.0000
  8 N      7.1288     7.0000    -0.1288     3.3007     3.3007    -0.0000
  9 C      5.8008     6.0000     0.1992     4.1600     4.1600    -0.0000
 10 S     16.4368    16.0000    -0.4368     1.7586     1.7586     0.0000
 11 N      7.1786     7.0000    -0.1786     3.2806     3.2806     0.0000
 12 C      5.9117     6.0000     0.0883     3.9214     3.9214     0.0000
 13 C      5.9843     6.0000     0.0157     3.7491     3.7491     0.0000
 14 C      6.1865     6.0000    -0.1865     3.8549     3.8549     0.0000
 15 C      6.1312     6.0000    -0.1312     3.8032     3.8032    -0.0000
 16 C      6.2786     6.0000    -0.2786     3.7939     3.7939    -0.0000
 17 C      5.6878     6.0000     0.3122     3.8693     3.8693    -0.0000
 18 O      8.3575     8.0000    -0.3575     2.1157     2.1157     0.0000
 19 C      6.2605     6.0000    -0.2605     3.8530     3.8530     0.0000
 20 H      0.9160     1.0000     0.0840     0.9860     0.9860    -0.0000
 21 H      0.8991     1.0000     0.1009     0.9829     0.9829    -0.0000
 22 H      0.8893     1.0000     0.1107     0.9814     0.9814     0.0000
 23 H      0.9006     1.0000     0.0994     0.9783     0.9783     0.0000
 24 H      0.8847     1.0000     0.1153     0.9867     0.9867    -0.0000
 25 H      0.8682     1.0000     0.1318     0.9813     0.9813    -0.0000
 26 H      0.9033     1.0000     0.0967     0.9859     0.9859     0.0000
 27 H      0.8645     1.0000     0.1355     0.9800     0.9800     0.0000
 28 H      0.8028     1.0000     0.1972     1.0213     1.0213    -0.0000
 29 H      0.8045     1.0000     0.1955     1.0198     1.0198     0.0000
 30 H      0.8336     1.0000     0.1664     0.9933     0.9933    -0.0000
 31 H      0.8566     1.0000     0.1434     0.9856     0.9856    -0.0000
 32 H      0.8406     1.0000     0.1594     0.9773     0.9773    -0.0000
 33 H      0.8716     1.0000     0.1284     0.9921     0.9921    -0.0000
 34 H      0.7598     1.0000     0.2402     1.0109     1.0109     0.0000
 35 H      0.8387     1.0000     0.1613     0.9890     0.9890     0.0000

  Mayer bond orders larger than 0.100000
B(  0-C ,  1-C ) :   0.9731 B(  0-C , 20-H ) :   0.9786 B(  0-C , 21-H ) :   0.9775 
B(  0-C , 22-H ) :   0.9746 B(  1-C ,  2-O ) :   0.8933 B(  1-C , 23-H ) :   0.9817 
B(  1-C , 24-H ) :   0.9759 B(  2-O ,  3-C ) :   1.1799 B(  3-C ,  4-O ) :   1.9612 
B(  3-C ,  5-C ) :   1.0654 B(  5-C ,  6-C ) :   1.6427 B(  5-C , 12-C ) :   0.9529 
B(  6-C ,  7-C ) :   0.9702 B(  6-C ,  8-N ) :   1.1413 B(  7-C , 25-H ) :   0.9600 
B(  7-C , 26-H ) :   0.9891 B(  7-C , 27-H ) :   0.9579 B(  8-N ,  9-C ) :   1.1933 
B(  8-N , 28-H ) :   0.9477 B(  9-C , 10-S ) :   1.6127 B(  9-C , 11-N ) :   1.3009 
B( 11-N , 12-C ) :   1.0188 B( 11-N , 29-H ) :   0.9504 B( 12-C , 13-C ) :   0.9254 
B( 12-C , 30-H ) :   0.9889 B( 13-C , 14-C ) :   1.3655 B( 13-C , 19-C ) :   1.3892 
B( 14-C , 15-C ) :   1.3904 B( 14-C , 31-H ) :   0.9715 B( 15-C , 16-C ) :   1.3615 
B( 15-C , 32-H ) :   0.9696 B( 16-C , 17-C ) :   1.3303 B( 16-C , 33-H ) :   0.9855 
B( 17-C , 18-O ) :   1.1036 B( 17-C , 19-C ) :   1.3718 B( 18-O , 34-H ) :   0.9804 
B( 19-C , 35-H ) :   0.9572 

-------
TIMINGS
-------

Total SCF time: 0 days 1 hours 33 min 59 sec 

Total time                  ....    5639.360 sec
Sum of individual times     ....    5633.463 sec  ( 99.9%)

Fock matrix formation       ....    5620.403 sec  ( 99.7%)
Diagonalization             ....       1.284 sec  (  0.0%)
Density matrix formation    ....       0.216 sec  (  0.0%)
Population analysis         ....       0.194 sec  (  0.0%)
Initial guess               ....       5.114 sec  (  0.1%)
Orbital Transformation      ....       0.000 sec  (  0.0%)
Orbital Orthonormalization  ....       0.000 sec  (  0.0%)
DIIS solution               ....       2.752 sec  (  0.0%)
SOSCF solution              ....       2.216 sec  (  0.0%)

------------------------------------------------------------------------------
                                ORCA  MP2 
------------------------------------------------------------------------------

Freezing NCore=48 chemical core electrons

-------------
RI-MP2 ENERGY
-------------
Dimension of the basis                    ...  828
Memory devoted to MP2                     ...  256 MB   
Data format for buffers                   ... DOUBLE
Compression type for matrix containers    ... UNCOMPRESSED
Overall scaling of the MP2 energy         ...   1.000e+00
Calculating two index integrals           ... done (    0.040 sec)
Cholesky decomposition of V**-1           ... done (    0.348 sec)

-----------------
RI-TRANSFORMATION (AUX index driven)
-----------------

Dimension of the orbital-basis         ... 828
Dimension of the aux-basis             ... 2141
Transformation of internal/external MOs...   24-  76 to   77- 827
Number Format for Storage              ... Double (8 Byte)
Integral mode                          ... Direct

First Phase: integral generation and transformation of MO indices
  Aux angular momentum 0               ... done (    4.640 sec)
  Aux angular momentum 1               ... done (    7.464 sec)
  Aux angular momentum 2               ... done (   10.025 sec)
  Aux angular momentum 3               ... done (    7.852 sec)
  Aux angular momentum 4               ... done (    2.812 sec)
Closing buffer VIA ( 0.63 GB; CompressionRatio= 1.00)
  Phase 1 completed in    32.937 sec
Second Phase: sorting and transformation of aux index

IA-Transformation
Memory available                       ... 167 MB 
Max. # MO pairs treated in a batch     ... 12    
# of internal orbitals                 ... 53
# batches for internal orbitals        ... 5
Closing buffer IAV ( 0.63 GB; CompressionRatio= 1.00)
(ia|v) transformation done in    19.826 sec

  Phase 2 completed in    19.836 sec
RI-Integral transformation completed in    52.778 sec
Opening buffers                              ... done

Starting loop over batches of integrals:

Operator 0  - window                       ... ( 24- 76)x( 77-827)
Operator 0  - Memory available             ...   256 MB
Operator 0  - Memory needed per MO         ...  12.3 MB
Operator 0  - Number of orbitals per batch ... 13
Operator 0  - Number of batches            ... 5

OPERATOR  0   PASS   0:  MOs    24 ...   36
  Reading integrals       ... ok
  Internal MO  26
  Internal MO  29
  Internal MO  32
  Internal MO  35
OPERATOR  0   PASS   1:  MOs    37 ...   49
  Reading integrals       ... ok
  Internal MO  38
  Internal MO  41
  Internal MO  44
  Internal MO  47
OPERATOR  0   PASS   2:  MOs    50 ...   62
  Reading integrals       ... ok
  Internal MO  50
  Internal MO  53
  Internal MO  56
  Internal MO  59
  Internal MO  62
OPERATOR  0   PASS   3:  MOs    63 ...   75
  Reading integrals       ... ok
  Internal MO  65
  Internal MO  68
  Internal MO  71
  Internal MO  74
OPERATOR  0   PASS   4:  MOs    76 ...   76
  Reading integrals       ... ok
Time spent in pair loops =    94.440 sec
Deleting buffer (Ka|jb)[aa] ...done

-----------------------------------------------
 RI-MP2 CORRELATION ENERGY:     -3.535859421 Eh
-----------------------------------------------


-------
TIMINGS
-------

Total time                :  147.696 sec
Integral trafo            :   52.783 sec ( 35.7%)
I/O of integrals          :    1.145 sec (  0.8%)
K(i,j) Operators          :   58.095 sec ( 39.3%)
T(i,j) pair energies      :    9.254 sec (  6.3%)
V-calculation             :    0.040 sec (  0.0%)
V**(-1/2)                 :    0.348 sec (  0.2%)
Gamma(ia|P)               :    0.000 sec (  0.0%)
Gamma-Trafo               :    0.000 sec (  0.0%)
D(virtual)                :    0.000 sec (  0.0%)
D(internal)               :    0.000 sec (  0.0%)
W(virtual)                :    0.000 sec (  0.0%)
W(internal)               :    0.000 sec (  0.0%)
L(virtual)                :    0.000 sec (  0.0%)
L(internal)               :    0.000 sec (  0.0%)
G(D)                      :    0.000 sec (  0.0%)
G(Z)                      :    0.000 sec (  0.0%)
Z-Vector Solution         :    0.000 sec (  0.0%)
3-Index Derivative        :    0.000 sec (  0.0%)
2-Index Derivative        :    0.000 sec (  0.0%)
Separable Gradient        :    0.000 sec (  0.0%)


---------------------------------------
MP2 TOTAL ENERGY:    -1274.334186488 Eh
---------------------------------------

-------------------------   --------------------
FINAL SINGLE POINT ENERGY     -1274.334186487875
-------------------------   --------------------


                            ***************************************
                            *     ORCA property calculations      *
                            ***************************************


  WARNING: The energy has been calculated at the MP2 level but the densities
           used in the property calculations are still SCF densities
           MP2 response densities have not been calculated 
           use %mp2 Density relaxed end
           or  %mp2 Density unrelaxed end

                                    ---------------------
                                    Active property flags
                                    ---------------------
   (+) Dipole Moment


------------------------------------------------------------------------------
                       ORCA ELECTRIC PROPERTIES CALCULATION
------------------------------------------------------------------------------

Dipole Moment Calculation                       ... on
Quadrupole Moment Calculation                   ... off
Polarizability Calculation                      ... off
GBWName                                         ... G2_CONFS/Conf169.orca.gbw
Electron density file                           ... G2_CONFS/Conf169.orca.scfp
The origin for moment calculation is the CENTER OF MASS  = (32.854761, 31.609805 35.233283)

-------------
DIPOLE MOMENT
-------------
                                X             Y             Z
Electronic contribution:      9.38782      12.04300       6.51300
Nuclear contribution   :    -10.26433     -13.60861      -7.13535
                        -----------------------------------------
Total Dipole Moment    :     -0.87651      -1.56561      -0.62234
                        -----------------------------------------
Magnitude (a.u.)       :      1.89914
Magnitude (Debye)      :      4.82722



--------------------
Rotational spectrum 
--------------------
 
Rotational constants in cm-1:     0.011841     0.008541     0.006142 
Rotational constants in MHz :   354.973673   256.059176   184.132620 

 Dipole components along the rotational axes: 
x,y,z [a.u.] :    -1.848402     0.412098    -0.142505 
x,y,z [Debye]:    -4.698265     1.047471    -0.362218 

 

Timings for individual modules:

Sum of individual times         ...     5788.745 sec (=  96.479 min)
GTO integral calculation        ...        1.334 sec (=   0.022 min)   0.0 %
SCF iterations                  ...     5639.398 sec (=  93.990 min)  97.4 %
MP2 module                      ...      148.013 sec (=   2.467 min)   2.6 %
                             ****ORCA TERMINATED NORMALLY****
TOTAL RUN TIME: 0 days 1 hours 36 minutes 29 seconds 534 msec
