
                                 *****************
                                 * O   R   C   A *
                                 *****************

           --- An Ab Initio, DFT and Semiempirical electronic structure package ---

                  #######################################################
                  #                        -***-                        #
                  #          Department of theory and spectroscopy      #
                  #               Directorship: Frank Neese             #
                  #        Max Planck Institute fuer Kohlenforschung    #
                  #                Kaiser Wilhelm Platz 1               #
                  #                 D-45470 Muelheim/Ruhr               #
                  #                      Germany                        #
                  #                                                     #
                  #                  All rights reserved                #
                  #                        -***-                        #
                  #######################################################


                         Program Version 4.2.0 -  RELEASE  -


 With contributions from (in alphabetic order):
   Daniel Aravena         : Magnetic Suceptibility
   Michael Atanasov       : Ab Initio Ligand Field Theory (pilot matlab implementation)
   Alexander A. Auer      : GIAO ZORA, VPT2
   Ute Becker             : Parallelization
   Giovanni Bistoni       : ED, misc. LED, open-shell LED, HFLED
   Martin Brehm           : Molecular dynamics
   Dmytro Bykov           : SCF Hessian
   Vijay G. Chilkuri      : MRCI spin determinant printing, contributions to CSF-ICE
   Dipayan Datta          : RHF DLPNO-CCSD density
   Achintya Kumar Dutta   : EOM-CC, STEOM-CC
   Dmitry Ganyushin       : Spin-Orbit,Spin-Spin,Magnetic field MRCI
   Miquel Garcia          : C-PCM Hessian, Gaussian charge scheme
   Yang Guo               : DLPNO-NEVPT2, CIM, IAO-localization
   Andreas Hansen         : Spin unrestricted coupled pair/coupled cluster methods
   Benjamin Helmich-Paris : CASSCF linear response (MC-RPA)
   Lee Huntington         : MR-EOM, pCC
   Robert Izsak           : Overlap fitted RIJCOSX, COSX-SCS-MP3, EOM
   Christian Kollmar      : KDIIS, OOCD, Brueckner-CCSD(T), CCSD density
   Simone Kossmann        : Meta GGA functionals, TD-DFT gradient, OOMP2, MP2 Hessian
   Martin Krupicka        : AUTO-CI
   Lucas Lang             : DCDCAS
   Dagmar Lenk            : GEPOL surface, SMD
   Dimitrios Liakos       : Extrapolation schemes; Compound Job, initial MDCI parallelization
   Dimitrios Manganas     : Further ROCIS development; embedding schemes
   Dimitrios Pantazis     : SARC Basis sets
   Taras Petrenko         : DFT Hessian,TD-DFT gradient, ASA, ECA, R-Raman, ABS, FL, XAS/XES, NRVS
   Peter Pinski           : DLPNO-MP2, DLPNO-MP2 Gradient
   Christoph Reimann      : Effective Core Potentials
   Marius Retegan         : Local ZFS, SOC
   Christoph Riplinger    : Optimizer, TS searches, QM/MM, DLPNO-CCSD(T), (RO)-DLPNO pert. Triples
   Tobias Risthaus        : Range-separated hybrids, TD-DFT gradient, RPA, STAB
   Michael Roemelt        : Original ROCIS implementation
   Masaaki Saitow         : Open-shell DLPNO-CCSD energy and density
   Barbara Sandhoefer     : DKH picture change effects
   Avijit Sen             : IP-ROCIS
   Kantharuban Sivalingam : CASSCF convergence, NEVPT2, FIC-MRCI
   Bernardo de Souza      : ESD, SOC TD-DFT
   Georgi Stoychev        : AutoAux, RI-MP2 NMR
   Willem Van den Heuvel  : Paramagnetic NMR
   Boris Wezisla          : Elementary symmetry handling
   Frank Wennmohs         : Technical directorship


 We gratefully acknowledge several colleagues who have allowed us to
 interface, adapt or use parts of their codes:
   Stefan Grimme, W. Hujo, H. Kruse,             : VdW corrections, initial TS optimization,
                  C. Bannwarth                     DFT functionals, gCP, sTDA/sTD-DF
   Ed Valeev, F. Pavosevic, A. Kumar             : LibInt (2-el integral package), F12 methods
   Garnet Chan, S. Sharma, J. Yang, R. Olivares  : DMRG
   Ulf Ekstrom                                   : XCFun DFT Library
   Mihaly Kallay                                 : mrcc  (arbitrary order and MRCC methods)
   Andreas Klamt, Michael Diedenhofen            : otool_cosmo (COSMO solvation model)
   Jiri Pittner, Ondrej Demel                    : Mk-CCSD
   Frank Weinhold                                : gennbo (NPA and NBO analysis)
   Christopher J. Cramer and Donald G. Truhlar   : smd solvation model
   Lars Goerigk                                  : TD-DFT with DH, B97 family of functionals
   V. Asgeirsson, H. Jonsson                     : NEB implementation
   FAccTs GmbH                                   : IRC, NEB, NEB-TS, Multilevel, MM, QM/MM, CI optimization
   S Lehtola, MJT Oliveira, MAL Marques          : LibXC Library


 Your calculation uses the libint2 library for the computation of 2-el integrals
 For citations please refer to: http://libint.valeyev.net

 Your ORCA version has been built with support for libXC version: 4.2.3
 For citations please refer to: https://tddft.org/programs/libxc/

 This ORCA versions uses:
   CBLAS   interface :  Fast vector & matrix operations
   LAPACKE interface :  Fast linear algebra routines
   SCALAPACK package :  Parallel linear algebra routines


----- Orbital basis set information -----
Your calculation utilizes the basis: cc-pVTZ 
       H, B-Ne : Obtained from the ccRepo (grant-hill.group.shef.ac.uk/ccrepo) Feb. 2017
                 T. H. Dunning, Jr., J. Chem. Phys. 90, 1007 (1989)
            He : Obtained from the ccRepo (grant-hill.group.shef.ac.uk/ccrepo) Feb. 2017
                 D. E. Woon, T. H. Dunning, Jr., J. Chem. Phys. 100, 2975 (1994)
  Li-Be, Na-Mg : Obtained from the ccRepo (grant-hill.group.shef.ac.uk/ccrepo) Feb. 2017
                 B. P. Prascher, D. E. Woon, K. A. Peterson, T. H. Dunning, Jr., A. K. Wilson, Theor. Chem. Acc. 128, 69 (2011)
         Al-Ar : Obtained from the ccRepo (grant-hill.group.shef.ac.uk/ccrepo) Feb. 2017
                 D. E. Woon, T. H. Dunning, Jr., J. Chem. Phys. 98, 1358 (1993)
            Ca : Obtained from the Peterson Research Group Website (tyr0.chem.wsu.edu/~kipeters) Feb. 2017
                 J. Koput, K. A. Peterson, J. Phys. Chem. 106, 9595 (2002)
         Sc-Zn : Obtained from the ccRepo (grant-hill.group.shef.ac.uk/ccrepo) Feb. 2017
                 N. B. Balabanov, K. A. Peterson, J. Chem. Phys. 123, 064107 (2005)
                 N. B. Balabanov, K. A. Peterson, J. Chem. Phys. 125, 074110 (2006)
         Ga-Kr : Obtained from the ccRepo (grant-hill.group.shef.ac.uk/ccrepo) Feb. 2017
                 A. K. Wilson, D. E. Woon, K. A. Peterson, T. H. Dunning, Jr., J. Chem. Phys. 110, 7667 (1999)
             Y : Obtained from the ccRepo (grant-hill.group.shef.ac.uk/ccrepo) Feb. 2017
                 K. A. Peterson, D. Figgen, M. Dolg, H. Stoll, J. Chem. Phys. 126, 124101 (2007)
        Ag, Au : Obtained from the Peterson Research Group Website (tyr0.chem.wsu.edu/~kipeters) Feb. 2017
                 K. A. Peterson, C. Puzzarini, Theor. Chem. Acc. 114, 283 (2005)

----- AuxC basis set information -----
Your calculation utilizes the auxiliary basis: cc-pVTZ/C 
  Obtained from the EMSL Basis Set Exchange (bse.pnl.gov) Feb. 2017
  H-He, B-F, Al-Ar, Ga-Kr : F. Weigend, A. Kohn, C. Hattig, J. Chem. Phys. 116, 3175 (2002)
             Li-Be, Na-Mg : C. Haettig, Phys. Chem. Chem. Phys. 7, 59 (2005)
                       Ne : C. Haettig, Phys. Chem. Chem. Phys. 7, 59 (2005)
                            F. Weigend, A. Kohn, C. Hattig, J. Chem. Phys. 116, 3175 (2002)
                    Sc-Zn : J. G. Hill, J. A. Platts, J. Chem. Phys. 128, 044104 (2008)

================================================================================
                                        WARNINGS
                       Please study these warnings very carefully!
================================================================================


WARNING: No MP2 level density has been requested!
         To caclulate MP2 level properties use
         %mp2 Density relaxed end
         or
         %mp2 Density unrelaxed end

WARNING: Post HF methods need fully converged wavefunctions
  ===> : Setting SCFConvForced true
         You can overwrite this default with %scf ConvForced false 


INFO   : the flag for use of LIBINT has been found!

================================================================================
                                       INPUT FILE
================================================================================
NAME = G2_CONFS/Conf5.orca
|  1> ! ri-mp2 cc-pvtz cc-pvtz/c TightSCF NoKeepInts
|  2> 
|  3> %scf
|  4>   MaxCore 4096
|  5> end
|  6> *xyz  0  1
|  7>     C       14.9639675   14.0119943   15.4262575
|  8>     C       15.8358325   15.1011562   14.7696478
|  9>     O       16.1894695   16.0841091   15.7616393
| 10>     C       17.1597578   15.8171647   16.6867084
| 11>     O       17.7999113   14.7773929   16.6673392
| 12>     C       17.3487172   16.8596231   17.7605436
| 13>     C       17.0886550   18.1719557   17.4925163
| 14>     C       16.2367120   18.7796434   16.3938707
| 15>     N       17.6649658   19.1688281   18.2864210
| 16>     C       18.7436644   18.9859994   19.1064118
| 17>     S       19.4887369   20.2506239   19.8685665
| 18>     N       19.1842837   17.6967265   19.2434063
| 19>     C       18.4664099   16.5034315   18.7556878
| 20>     C       17.8831510   15.7410706   19.9408167
| 21>     C       18.0801971   14.3517465   20.0414093
| 22>     C       17.5427965   13.6275383   21.1186900
| 23>     C       16.7969821   14.2974842   22.1033580
| 24>     C       16.5900157   15.6800108   22.0023768
| 25>     O       15.8623294   16.3276238   22.9470513
| 26>     C       17.1260604   16.3983140   20.9287974
| 27>     H       15.5298263   13.4551030   16.1836331
| 28>     H       14.6153235   13.2956428   14.6726330
| 29>     H       14.0850319   14.4571264   15.9086321
| 30>     H       16.7339313   14.6565009   14.3191399
| 31>     H       15.2586875   15.5849857   13.9713409
| 32>     H       15.2269754   18.3502839   16.4022053
| 33>     H       16.6801340   18.5941336   15.4076495
| 34>     H       16.1210954   19.8654777   16.4965744
| 35>     H       17.3692744   20.1255049   18.1765709
| 36>     H       19.9706947   17.5812061   19.8697566
| 37>     H       19.2241747   15.8885767   18.2488660
| 38>     H       18.6440242   13.8298526   19.2713688
| 39>     H       17.7011879   12.5525582   21.1836540
| 40>     H       16.3784439   13.7420861   22.9360084
| 41>     H       15.6047499   15.6734243   23.6135837
| 42>     H       16.9508288   17.4670990   20.8708652
| 43> *
| 44> 
| 45>                          ****END OF INPUT****
================================================================================

                       ****************************
                       * Single Point Calculation *
                       ****************************

---------------------------------
CARTESIAN COORDINATES (ANGSTROEM)
---------------------------------
  C     14.963967   14.011994   15.426258
  C     15.835833   15.101156   14.769648
  O     16.189470   16.084109   15.761639
  C     17.159758   15.817165   16.686708
  O     17.799911   14.777393   16.667339
  C     17.348717   16.859623   17.760544
  C     17.088655   18.171956   17.492516
  C     16.236712   18.779643   16.393871
  N     17.664966   19.168828   18.286421
  C     18.743664   18.985999   19.106412
  S     19.488737   20.250624   19.868566
  N     19.184284   17.696727   19.243406
  C     18.466410   16.503432   18.755688
  C     17.883151   15.741071   19.940817
  C     18.080197   14.351747   20.041409
  C     17.542796   13.627538   21.118690
  C     16.796982   14.297484   22.103358
  C     16.590016   15.680011   22.002377
  O     15.862329   16.327624   22.947051
  C     17.126060   16.398314   20.928797
  H     15.529826   13.455103   16.183633
  H     14.615324   13.295643   14.672633
  H     14.085032   14.457126   15.908632
  H     16.733931   14.656501   14.319140
  H     15.258688   15.584986   13.971341
  H     15.226975   18.350284   16.402205
  H     16.680134   18.594134   15.407649
  H     16.121095   19.865478   16.496574
  H     17.369274   20.125505   18.176571
  H     19.970695   17.581206   19.869757
  H     19.224175   15.888577   18.248866
  H     18.644024   13.829853   19.271369
  H     17.701188   12.552558   21.183654
  H     16.378444   13.742086   22.936008
  H     15.604750   15.673424   23.613584
  H     16.950829   17.467099   20.870865

----------------------------
CARTESIAN COORDINATES (A.U.)
----------------------------
  NO LB      ZA    FRAG     MASS         X           Y           Z
   0 C     6.0000    0    12.011   28.277800   26.478832   29.151402
   1 C     6.0000    0    12.011   29.925387   28.537050   27.910589
   2 O     8.0000    0    15.999   30.593664   30.394561   29.785182
   3 C     6.0000    0    12.011   32.427243   29.890109   31.533309
   4 O     8.0000    0    15.999   33.636958   27.925226   31.496706
   5 C     6.0000    0    12.011   32.784324   31.860070   33.562563
   6 C     6.0000    0    12.011   32.292878   34.340020   33.056065
   7 C     6.0000    0    12.011   30.682939   35.488383   30.979926
   8 N     7.0000    0    14.007   33.381948   36.223835   34.556328
   9 C     6.0000    0    12.011   35.420392   35.878339   36.105886
  10 S    16.0000    0    32.060   36.828375   38.268133   37.546149
  11 N     7.0000    0    14.007   36.253042   33.441967   36.364768
  12 C     6.0000    0    12.011   34.896457   31.186966   35.443113
  13 C     6.0000    0    12.011   33.794258   29.746312   37.682682
  14 C     6.0000    0    12.011   34.166621   27.120870   37.872775
  15 C     6.0000    0    12.011   33.151081   25.752315   39.908540
  16 C     6.0000    0    12.011   31.741696   27.018330   41.769293
  17 C     6.0000    0    12.011   31.350586   29.630926   41.578466
  18 O     8.0000    0    15.999   29.975458   30.854737   43.363643
  19 C     6.0000    0    12.011   32.363564   30.988323   39.549695
  20 H     1.0000    0     1.008   29.347119   25.426460   30.582634
  21 H     1.0000    0     1.008   27.618959   25.125124   27.727258
  22 H     1.0000    0     1.008   26.616853   27.320010   30.062958
  23 H     1.0000    0     1.008   31.622547   27.696773   27.059253
  24 H     1.0000    0     1.008   28.834741   29.451355   26.402008
  25 H     1.0000    0     1.008   28.774813   34.677011   30.995676
  26 H     1.0000    0     1.008   31.520885   35.137820   29.116238
  27 H     1.0000    0     1.008   30.464455   37.540312   31.174008
  28 H     1.0000    0     1.008   32.823172   38.031693   34.348741
  29 H     1.0000    0     1.008   37.739144   33.223665   37.548398
  30 H     1.0000    0     1.008   36.328425   30.025059   34.485359
  31 H     1.0000    0     1.008   35.232100   26.134634   36.417609
  32 H     1.0000    0     1.008   33.450397   23.720897   40.031305
  33 H     1.0000    0     1.008   30.950773   25.968779   43.342774
  34 H     1.0000    0     1.008   29.488704   29.618480   44.623206
  35 H     1.0000    0     1.008   32.032424   33.008033   39.440219

--------------------------------
INTERNAL COORDINATES (ANGSTROEM)
--------------------------------
 C      0   0   0     0.000000000000     0.00000000     0.00000000
 C      1   0   0     1.541933371054     0.00000000     0.00000000
 O      2   1   0     1.440591082667   109.11964637     0.00000000
 C      3   2   1     1.366920457665   120.46507900    76.44818797
 O      4   3   2     1.221186744747   121.84637180     3.62297367
 C      4   3   2     1.508491699459   115.83077607   186.01083718
 C      6   4   3     1.364436819511   120.06343938   329.95733492
 C      7   6   4     1.517271686409   129.38141049    20.43533493
 N      7   6   4     1.398632686863   119.70196415   201.38141352
 C      9   7   6     1.367260734195   124.76462554    17.82141307
 S     10   9   7     1.653870594390   121.97511769   172.10582903
 N     10   9   7     1.369356590241   116.08848011   353.08944230
 C     12  10   9     1.475521970353   124.87681577   349.90568109
 C     13  12  10     1.525095274366   109.47971639   252.33921048
 C     14  13  12     1.406828877846   119.71298324   228.58949124
 C     15  14  13     1.404923709110   120.68490136   180.52057778
 C     16  15  14     1.405218025218   119.64115258     0.21535197
 C     17  16  15     1.401574861786   119.87862209     0.23754742
 O     18  17  16     1.356959785671   119.98657638   179.54266454
 C     18  17  16     1.398526415779   120.35407723   359.76749798
 H      1   2   3     1.097242863284   111.15165262   295.09945245
 H      1   2   3     1.096659471891   110.39744041   175.44307274
 H      1   2   3     1.096975674353   110.71210745    55.63710736
 H      2   1   3     1.098752546455   110.54350150   122.29926748
 H      2   1   3     1.097488607086   108.89289784   240.86489082
 H      8   7   6     1.097263435633   110.76194238    53.74992817
 H      8   7   6     1.097118594916   110.86940773   293.59708038
 H      8   7   6     1.096791400060   112.82373352   173.46285963
 H      9   7   6     1.007338546945   119.60706332   188.94671081
 H     12  10   9     1.011979210284   114.79961949   181.24663350
 H     13  12  10     1.099600952236   105.62169012   133.92693838
 H     15  14  13     1.087766800924   119.72233263   359.77072668
 H     16  15  14     1.088526698012   119.94488952   179.89265793
 H     17  16  15     1.084872325651   119.90059313   179.88086708
 H     19  18  17     0.968808353014   107.41351738     1.95661924
 H     20  18  17     1.084602982506   119.02561516   179.87174202

---------------------------
INTERNAL COORDINATES (A.U.)
---------------------------
 C      0   0   0     0.000000000000     0.00000000     0.00000000
 C      1   0   0     2.913831788046     0.00000000     0.00000000
 O      2   1   0     2.722322617210   109.11964637     0.00000000
 C      3   2   1     2.583105311841   120.46507900    76.44818797
 O      4   3   2     2.307708505947   121.84637180     3.62297367
 C      4   3   2     2.850636187272   115.83077607   186.01083718
 C      6   4   3     2.578411915914   120.06343938   329.95733492
 C      7   6   4     2.867227958067   129.38141049    20.43533493
 N      7   6   4     2.643032740121   119.70196415   201.38141352
 C      9   7   6     2.583748341292   124.76462554    17.82141307
 S     10   9   7     3.125362484343   121.97511769   172.10582903
 N     10   9   7     2.587708935236   116.08848011   353.08944230
 C     12  10   9     2.788332428551   124.87681577   349.90568109
 C     13  12  10     2.882012396689   109.47971639   252.33921048
 C     14  13  12     2.658521296420   119.71298324   228.58949124
 C     15  14  13     2.654921049271   120.68490136   180.52057778
 C     16  15  14     2.655477226112   119.64115258     0.21535197
 C     17  16  15     2.648592644964   119.87862209     0.23754742
 O     18  17  16     2.564282369662   119.98657638   179.54266454
 C     18  17  16     2.642831916877   120.35407723   359.76749798
 H      1   2   3     2.073488514007   111.15165262   295.09945245
 H      1   2   3     2.072386064045   110.39744041   175.44307274
 H      1   2   3     2.072983600101   110.71210745    55.63710736
 H      2   1   3     2.076341401749   110.54350150   122.29926748
 H      2   1   3     2.073952902491   108.89289784   240.86489082
 H      8   7   6     2.073527390112   110.76194238    53.74992817
 H      8   7   6     2.073253680823   110.86940773   293.59708038
 H      8   7   6     2.072635372154   112.82373352   173.46285963
 H      9   7   6     1.903593977869   119.60706332   188.94671081
 H     12  10   9     1.912363560659   114.79961949   181.24663350
 H     13  12  10     2.077944656324   105.62169012   133.92693838
 H     15  14  13     2.055581351318   119.72233263   359.77072668
 H     16  15  14     2.057017348705   119.94488952   179.89265793
 H     17  16  15     2.050111585750   119.90059313   179.88086708
 H     19  18  17     1.830782463452   107.41351738     1.95661924
 H     20  18  17     2.049602600970   119.02561516   179.87174202

---------------------
BASIS SET INFORMATION
---------------------
There are 5 groups of distinct atoms

 Group   1 Type C   : 18s5p2d1f contracted to 4s3p2d1f pattern {8811/311/11/1}
 Group   2 Type O   : 18s5p2d1f contracted to 4s3p2d1f pattern {8811/311/11/1}
 Group   3 Type N   : 18s5p2d1f contracted to 4s3p2d1f pattern {8811/311/11/1}
 Group   4 Type S   : 41s16p2d1f contracted to 5s4p2d1f pattern {13131311/7711/11/1}
 Group   5 Type H   : 5s2p1d contracted to 3s2p1d pattern {311/11/1}

Atom   0C    basis set group =>   1
Atom   1C    basis set group =>   1
Atom   2O    basis set group =>   2
Atom   3C    basis set group =>   1
Atom   4O    basis set group =>   2
Atom   5C    basis set group =>   1
Atom   6C    basis set group =>   1
Atom   7C    basis set group =>   1
Atom   8N    basis set group =>   3
Atom   9C    basis set group =>   1
Atom  10S    basis set group =>   4
Atom  11N    basis set group =>   3
Atom  12C    basis set group =>   1
Atom  13C    basis set group =>   1
Atom  14C    basis set group =>   1
Atom  15C    basis set group =>   1
Atom  16C    basis set group =>   1
Atom  17C    basis set group =>   1
Atom  18O    basis set group =>   2
Atom  19C    basis set group =>   1
Atom  20H    basis set group =>   5
Atom  21H    basis set group =>   5
Atom  22H    basis set group =>   5
Atom  23H    basis set group =>   5
Atom  24H    basis set group =>   5
Atom  25H    basis set group =>   5
Atom  26H    basis set group =>   5
Atom  27H    basis set group =>   5
Atom  28H    basis set group =>   5
Atom  29H    basis set group =>   5
Atom  30H    basis set group =>   5
Atom  31H    basis set group =>   5
Atom  32H    basis set group =>   5
Atom  33H    basis set group =>   5
Atom  34H    basis set group =>   5
Atom  35H    basis set group =>   5
---------------------------------
AUXILIARY/C BASIS SET INFORMATION
---------------------------------
There are 5 groups of distinct atoms

 Group   1 Type C   : 8s6p5d3f1g contracted to 8s6p5d3f1g pattern {11111111/111111/11111/111/1}
 Group   2 Type O   : 8s6p5d3f1g contracted to 8s6p5d3f1g pattern {11111111/111111/11111/111/1}
 Group   3 Type N   : 8s6p5d3f1g contracted to 8s6p5d3f1g pattern {11111111/111111/11111/111/1}
 Group   4 Type S   : 10s8p7d5f2g contracted to 10s8p7d5f2g pattern {1111111111/11111111/1111111/11111/11}
 Group   5 Type H   : 4s3p2d1f contracted to 4s3p2d1f pattern {1111/111/11/1}

Atom   0C    basis set group =>   1
Atom   1C    basis set group =>   1
Atom   2O    basis set group =>   2
Atom   3C    basis set group =>   1
Atom   4O    basis set group =>   2
Atom   5C    basis set group =>   1
Atom   6C    basis set group =>   1
Atom   7C    basis set group =>   1
Atom   8N    basis set group =>   3
Atom   9C    basis set group =>   1
Atom  10S    basis set group =>   4
Atom  11N    basis set group =>   3
Atom  12C    basis set group =>   1
Atom  13C    basis set group =>   1
Atom  14C    basis set group =>   1
Atom  15C    basis set group =>   1
Atom  16C    basis set group =>   1
Atom  17C    basis set group =>   1
Atom  18O    basis set group =>   2
Atom  19C    basis set group =>   1
Atom  20H    basis set group =>   5
Atom  21H    basis set group =>   5
Atom  22H    basis set group =>   5
Atom  23H    basis set group =>   5
Atom  24H    basis set group =>   5
Atom  25H    basis set group =>   5
Atom  26H    basis set group =>   5
Atom  27H    basis set group =>   5
Atom  28H    basis set group =>   5
Atom  29H    basis set group =>   5
Atom  30H    basis set group =>   5
Atom  31H    basis set group =>   5
Atom  32H    basis set group =>   5
Atom  33H    basis set group =>   5
Atom  34H    basis set group =>   5
Atom  35H    basis set group =>   5
------------------------------------------------------------------------------
                           ORCA GTO INTEGRAL CALCULATION
------------------------------------------------------------------------------

                         BASIS SET STATISTICS AND STARTUP INFO

 # of primitive gaussian shells          ...  682
 # of primitive gaussian functions       ... 1312
 # of contracted shells                  ...  298
 # of contracted basis functions         ...  828
 Highest angular momentum                ...    3
 Maximum contraction depth               ...   13
 Integral package used                   ... LIBINT
 Integral threshhold            Thresh   ...  2.500e-11
 Primitive cut-off              TCut     ...  2.500e-12


------------------------------ INTEGRAL EVALUATION ----------------------------


 * One electron integrals 
 Pre-screening matrix                    ... done
 Shell pair data                         ... done (   0.019 sec)

-------------------------------------------------------------------------------
                                 ORCA SCF
-------------------------------------------------------------------------------

------------
SCF SETTINGS
------------
Hamiltonian:
 Ab initio Hamiltonian  Method          .... Hartree-Fock(GTOs)


General Settings:
 Integral files         IntName         .... G2_CONFS/Conf5.orca
 Hartree-Fock type      HFTyp           .... RHF
 Total Charge           Charge          ....    0
 Multiplicity           Mult            ....    1
 Number of Electrons    NEL             ....  154
 Basis Dimension        Dim             ....  828
 Nuclear Repulsion      ENuc            ....   1679.5114060274 Eh

Convergence Acceleration:
 DIIS                   CNVDIIS         .... on
   Start iteration      DIISMaxIt       ....    12
   Startup error        DIISStart       ....  0.200000
   # of expansion vecs  DIISMaxEq       ....     5
   Bias factor          DIISBfac        ....   1.050
   Max. coefficient     DIISMaxC        ....  10.000
 Newton-Raphson         CNVNR           .... off
 SOSCF                  CNVSOSCF        .... on
   Start iteration      SOSCFMaxIt      ....   150
   Startup grad/error   SOSCFStart      ....  0.003300
 Level Shifting         CNVShift        .... on
   Level shift para.    LevelShift      ....    0.2500
   Turn off err/grad.   ShiftErr        ....    0.0010
 Zerner damping         CNVZerner       .... off
 Static damping         CNVDamp         .... on
   Fraction old density DampFac         ....    0.7000
   Max. Damping (<1)    DampMax         ....    0.9800
   Min. Damping (>=0)   DampMin         ....    0.0000
   Turn off err/grad.   DampErr         ....    0.1000
 Fernandez-Rico         CNVRico         .... off

SCF Procedure:
 Maximum # iterations   MaxIter         ....   125
 SCF integral mode      SCFMode         .... Direct
   Integral package                     .... LIBINT
 Reset frequency        DirectResetFreq ....    20
 Integral Threshold     Thresh          ....  2.500e-11 Eh
 Primitive CutOff       TCut            ....  2.500e-12 Eh

Convergence Tolerance:
 Convergence Check Mode ConvCheckMode   .... Total+1el-Energy
 Convergence forced     ConvForced      .... 1
 Energy Change          TolE            ....  1.000e-08 Eh
 1-El. energy change                    ....  1.000e-05 Eh
 Orbital Gradient       TolG            ....  1.000e-05
 Orbital Rotation angle TolX            ....  1.000e-05
 DIIS Error             TolErr          ....  5.000e-07


Diagonalization of the overlap matrix:
Smallest eigenvalue                        ... 3.538e-05
Time for diagonalization                   ...    0.185 sec
Threshold for overlap eigenvalues          ... 1.000e-08
Number of eigenvalues below threshold      ... 0
Time for construction of square roots      ...    0.247 sec
Total time needed                          ...    0.434 sec

-------------------
DFT GRID GENERATION
-------------------

General Integration Accuracy     IntAcc      ...  4.340
Radial Grid Type                 RadialGrid  ... Gauss-Chebyshev
Angular Grid (max. acc.)         AngularGrid ... Lebedev-110
Angular grid pruning method      GridPruning ... 3 (G Style)
Weight generation scheme         WeightScheme... Becke
Basis function cutoff            BFCut       ...    1.0000e-11
Integration weight cutoff        WCut        ...    1.0000e-14
Grids for H and He will be reduced by one unit

# of grid points (after initial pruning)     ...  46246 (   0.0 sec)
# of grid points (after weights+screening)   ...  41458 (   0.9 sec)
nearest neighbour list constructed           ...    0.0 sec
Grid point re-assignment to atoms done       ...    0.0 sec
Grid point division into batches done        ...    0.0 sec
Reduced shell lists constructed in    1.6 sec

Total number of grid points                  ...    41458
Total number of batches                      ...      664
Average number of points per batch           ...       62
Average number of grid points per atom       ...     1152
Average number of shells per batch           ...   142.94 (47.97%)
Average number of basis functions per batch  ...   363.11 (43.85%)
Average number of large shells per batch     ...    91.54 (64.04%)
Average number of large basis fcns per batch ...   236.83 (65.22%)
Maximum spatial batch extension              ...  22.36, 21.66, 19.37 au
Average spatial batch extension              ...   3.73,  3.37,  3.36 au

Time for grid setup =    2.521 sec

------------------------------
INITIAL GUESS: MODEL POTENTIAL
------------------------------
Loading Hartree-Fock densities                     ... done
Calculating cut-offs                               ... done
Setting up the integral package                    ... done
Initializing the effective Hamiltonian             ... done
Starting the Coulomb interaction                   ... done (   4.7 sec)
Reading the grid                                   ... done
Mapping shells                                     ... done
Starting the XC term evaluation                    ... done (   1.4 sec)
Transforming the Hamiltonian                       ... done (   0.1 sec)
Diagonalizing the Hamiltonian                      ... done (   0.2 sec)
Back transforming the eigenvectors                 ... done (   0.0 sec)
Now organizing SCF variables                       ... done
                      ------------------
                      INITIAL GUESS DONE (   9.8 sec)
                      ------------------
--------------
SCF ITERATIONS
--------------
ITER       Energy         Delta-E        Max-DP      RMS-DP      [F,P]     Damp
               ***  Starting incremental Fock matrix formation  ***
  0  -1270.0137790110   0.000000000000 0.04936197  0.00042687  0.3027111 0.7000
  1  -1270.2813852880  -0.267606276970 0.03611232  0.00034389  0.1756240 0.7000
                               ***Turning on DIIS***
  2  -1270.4482520947  -0.166866806708 0.02585939  0.00023278  0.1096766 0.7000
  3  -1272.5855298665  -2.137277771860 0.06318893  0.00051102  0.0828941 0.0000
  4  -1270.7567115067   1.828818359807 0.00849832  0.00009158  0.0068911 0.0000
  5  -1270.8187281775  -0.062016670771 0.00384039  0.00004775  0.0040431 0.0000
                      *** Initiating the SOSCF procedure ***
                           *** Shutting down DIIS ***
                      *** Re-Reading the Fockian *** 
                      *** Removing any level shift *** 
ITER      Energy       Delta-E        Grad      Rot      Max-DP    RMS-DP
  6  -1270.79657669   0.0221514851  0.001768  0.001768  0.001675  0.000025
               *** Restarting incremental Fock matrix formation ***
  7  -1270.81073818  -0.0141614891  0.000764  0.001652  0.001263  0.000014
  8  -1270.81078073  -0.0000425534  0.000410  0.001880  0.001358  0.000015
  9  -1270.81079628  -0.0000155425  0.000142  0.000293  0.000341  0.000004
 10  -1270.81079808  -0.0000018062  0.000035  0.000093  0.000101  0.000001
 11  -1270.81079825  -0.0000001646  0.000018  0.000089  0.000051  0.000001
 12  -1270.81079829  -0.0000000442  0.000007  0.000025  0.000025  0.000000
 13  -1270.81079829   0.0000000006  0.000003  0.000008  0.000005  0.000000
                  ***Gradient check signals convergence***
              ***Rediagonalizing the Fockian in SOSCF/NRSCF***

               *****************************************************
               *                     SUCCESS                       *
               *           SCF CONVERGED AFTER  14 CYCLES          *
               *****************************************************


----------------
TOTAL SCF ENERGY
----------------

Total Energy       :        -1270.81079828 Eh          -34580.51986 eV

Components:
Nuclear Repulsion  :         1679.51140603 Eh           45701.82879 eV
Electronic Energy  :        -2950.32220431 Eh          -80282.34865 eV
One Electron Energy:        -5080.47148676 Eh         -138246.65748 eV
Two Electron Energy:         2130.14928245 Eh           57964.30882 eV

Virial components:
Potential Energy   :        -2539.74624109 Eh          -69110.00870 eV
Kinetic Energy     :         1268.93544281 Eh           34529.48884 eV
Virial Ratio       :            2.00147790


---------------
SCF CONVERGENCE
---------------

  Last Energy change         ...    1.1009e-08  Tolerance :   1.0000e-08
  Last MAX-Density change    ...    2.0808e-06  Tolerance :   1.0000e-07
  Last RMS-Density change    ...    2.5487e-08  Tolerance :   5.0000e-09
  Last Orbital Gradient      ...    1.1105e-06  Tolerance :   1.0000e-05
  Last Orbital Rotation      ...    3.1122e-06  Tolerance :   1.0000e-05

             **** THE GBW FILE WAS UPDATED (G2_CONFS/Conf5.orca.gbw) ****
             **** DENSITY FILE WAS UPDATED (G2_CONFS/Conf5.orca.scfp) ****
             **** ENERGY FILE WAS UPDATED (G2_CONFS/Conf5.orca.en.tmp) ****
             **** THE GBW FILE WAS UPDATED (G2_CONFS/Conf5.orca.gbw) ****
             **** DENSITY FILE WAS UPDATED (G2_CONFS/Conf5.orca.scfp) ****
----------------
ORBITAL ENERGIES
----------------

  NO   OCC          E(Eh)            E(eV) 
   0   2.0000     -91.888755     -2500.4201 
   1   2.0000     -20.604460      -560.6759 
   2   2.0000     -20.590711      -560.3017 
   3   2.0000     -20.544033      -559.0316 
   4   2.0000     -15.629704      -425.3059 
   5   2.0000     -15.605532      -424.6481 
   6   2.0000     -11.397074      -310.1302 
   7   2.0000     -11.382550      -309.7349 
   8   2.0000     -11.342222      -308.6376 
   9   2.0000     -11.307047      -307.6804 
  10   2.0000     -11.304384      -307.6079 
  11   2.0000     -11.301488      -307.5291 
  12   2.0000     -11.262171      -306.4592 
  13   2.0000     -11.260611      -306.4168 
  14   2.0000     -11.253122      -306.2130 
  15   2.0000     -11.247290      -306.0543 
  16   2.0000     -11.236025      -305.7478 
  17   2.0000     -11.232078      -305.6404 
  18   2.0000     -11.228745      -305.5497 
  19   2.0000     -11.226315      -305.4836 
  20   2.0000      -8.893812      -242.0129 
  21   2.0000      -6.575389      -178.9254 
  22   2.0000      -6.573382      -178.8708 
  23   2.0000      -6.572793      -178.8548 
  24   2.0000      -1.454100       -39.5681 
  25   2.0000      -1.410391       -38.3787 
  26   2.0000      -1.356554       -36.9137 
  27   2.0000      -1.341954       -36.5164 
  28   2.0000      -1.238149       -33.6917 
  29   2.0000      -1.151479       -31.3333 
  30   2.0000      -1.120689       -30.4955 
  31   2.0000      -1.042326       -28.3631 
  32   2.0000      -1.033945       -28.1351 
  33   2.0000      -1.009093       -27.4588 
  34   2.0000      -0.998584       -27.1729 
  35   2.0000      -0.983181       -26.7537 
  36   2.0000      -0.921552       -25.0767 
  37   2.0000      -0.893342       -24.3091 
  38   2.0000      -0.849017       -23.1029 
  39   2.0000      -0.834986       -22.7211 
  40   2.0000      -0.827046       -22.5051 
  41   2.0000      -0.813872       -22.1466 
  42   2.0000      -0.754492       -20.5308 
  43   2.0000      -0.734470       -19.9859 
  44   2.0000      -0.724148       -19.7051 
  45   2.0000      -0.693022       -18.8581 
  46   2.0000      -0.685723       -18.6595 
  47   2.0000      -0.679335       -18.4856 
  48   2.0000      -0.668764       -18.1980 
  49   2.0000      -0.653332       -17.7781 
  50   2.0000      -0.652030       -17.7426 
  51   2.0000      -0.644785       -17.5455 
  52   2.0000      -0.631407       -17.1814 
  53   2.0000      -0.611186       -16.6312 
  54   2.0000      -0.602498       -16.3948 
  55   2.0000      -0.597102       -16.2480 
  56   2.0000      -0.593872       -16.1601 
  57   2.0000      -0.581877       -15.8337 
  58   2.0000      -0.574833       -15.6420 
  59   2.0000      -0.563854       -15.3433 
  60   2.0000      -0.557233       -15.1631 
  61   2.0000      -0.548533       -14.9263 
  62   2.0000      -0.537233       -14.6188 
  63   2.0000      -0.529525       -14.4091 
  64   2.0000      -0.514684       -14.0053 
  65   2.0000      -0.509574       -13.8662 
  66   2.0000      -0.498387       -13.5618 
  67   2.0000      -0.493840       -13.4381 
  68   2.0000      -0.479893       -13.0585 
  69   2.0000      -0.462284       -12.5794 
  70   2.0000      -0.458701       -12.4819 
  71   2.0000      -0.450933       -12.2705 
  72   2.0000      -0.357864        -9.7380 
  73   2.0000      -0.342556        -9.3214 
  74   2.0000      -0.327778        -8.9193 
  75   2.0000      -0.317448        -8.6382 
  76   2.0000      -0.313303        -8.5254 
  77   0.0000       0.075937         2.0663 
  78   0.0000       0.114552         3.1171 
  79   0.0000       0.121287         3.3004 
  80   0.0000       0.137136         3.7317 
  81   0.0000       0.140734         3.8296 
  82   0.0000       0.144742         3.9386 
  83   0.0000       0.153875         4.1872 
  84   0.0000       0.164118         4.4659 
  85   0.0000       0.165839         4.5127 
  86   0.0000       0.167831         4.5669 
  87   0.0000       0.176682         4.8078 
  88   0.0000       0.189326         5.1518 
  89   0.0000       0.195803         5.3281 
  90   0.0000       0.203767         5.5448 
  91   0.0000       0.209540         5.7019 
  92   0.0000       0.215415         5.8617 
  93   0.0000       0.218459         5.9446 
  94   0.0000       0.226422         6.1613 
  95   0.0000       0.239371         6.5136 
  96   0.0000       0.242617         6.6019 
  97   0.0000       0.246424         6.7056 
  98   0.0000       0.254334         6.9208 
  99   0.0000       0.267137         7.2692 
 100   0.0000       0.282994         7.7007 
 101   0.0000       0.304395         8.2830 
 102   0.0000       0.307105         8.3568 
 103   0.0000       0.318175         8.6580 
 104   0.0000       0.324402         8.8274 
 105   0.0000       0.326125         8.8743 
 106   0.0000       0.345124         9.3913 
 107   0.0000       0.354340         9.6421 
 108   0.0000       0.356620         9.7041 
 109   0.0000       0.366264         9.9666 
 110   0.0000       0.369762        10.0617 
 111   0.0000       0.375328        10.2132 
 112   0.0000       0.384998        10.4763 
 113   0.0000       0.389856        10.6085 
 114   0.0000       0.398546        10.8450 
 115   0.0000       0.411041        11.1850 
 116   0.0000       0.419179        11.4064 
 117   0.0000       0.426174        11.5968 
 118   0.0000       0.433249        11.7893 
 119   0.0000       0.437901        11.9159 
 120   0.0000       0.446015        12.1367 
 121   0.0000       0.448553        12.2057 
 122   0.0000       0.451558        12.2875 
 123   0.0000       0.462982        12.5984 
 124   0.0000       0.464352        12.6357 
 125   0.0000       0.466189        12.6856 
 126   0.0000       0.468361        12.7447 
 127   0.0000       0.484475        13.1832 
 128   0.0000       0.495997        13.4968 
 129   0.0000       0.497987        13.5509 
 130   0.0000       0.500710        13.6250 
 131   0.0000       0.503674        13.7057 
 132   0.0000       0.510816        13.9000 
 133   0.0000       0.521792        14.1987 
 134   0.0000       0.524665        14.2769 
 135   0.0000       0.528645        14.3852 
 136   0.0000       0.536350        14.5948 
 137   0.0000       0.541798        14.7431 
 138   0.0000       0.543648        14.7934 
 139   0.0000       0.545092        14.8327 
 140   0.0000       0.555847        15.1254 
 141   0.0000       0.561960        15.2917 
 142   0.0000       0.566669        15.4198 
 143   0.0000       0.571120        15.5410 
 144   0.0000       0.578516        15.7422 
 145   0.0000       0.581150        15.8139 
 146   0.0000       0.584765        15.9123 
 147   0.0000       0.590226        16.0609 
 148   0.0000       0.591146        16.0859 
 149   0.0000       0.594261        16.1707 
 150   0.0000       0.599736        16.3197 
 151   0.0000       0.603282        16.4161 
 152   0.0000       0.608071        16.5465 
 153   0.0000       0.613169        16.6852 
 154   0.0000       0.618581        16.8325 
 155   0.0000       0.623595        16.9689 
 156   0.0000       0.624023        16.9805 
 157   0.0000       0.628191        17.0940 
 158   0.0000       0.632731        17.2175 
 159   0.0000       0.640729        17.4351 
 160   0.0000       0.645036        17.5523 
 161   0.0000       0.647941        17.6314 
 162   0.0000       0.653215        17.7749 
 163   0.0000       0.657687        17.8966 
 164   0.0000       0.658851        17.9282 
 165   0.0000       0.665508        18.1094 
 166   0.0000       0.669990        18.2314 
 167   0.0000       0.684922        18.6377 
 168   0.0000       0.686934        18.6924 
 169   0.0000       0.695054        18.9134 
 170   0.0000       0.699488        19.0340 
 171   0.0000       0.702615        19.1191 
 172   0.0000       0.713121        19.4050 
 173   0.0000       0.720507        19.6060 
 174   0.0000       0.726158        19.7598 
 175   0.0000       0.732731        19.9386 
 176   0.0000       0.737386        20.0653 
 177   0.0000       0.741827        20.1861 
 178   0.0000       0.751817        20.4580 
 179   0.0000       0.756483        20.5849 
 180   0.0000       0.762792        20.7566 
 181   0.0000       0.765019        20.8172 
 182   0.0000       0.773226        21.0406 
 183   0.0000       0.783016        21.3070 
 184   0.0000       0.801649        21.8140 
 185   0.0000       0.802355        21.8332 
 186   0.0000       0.812536        22.1102 
 187   0.0000       0.817467        22.2444 
 188   0.0000       0.829597        22.5745 
 189   0.0000       0.833641        22.6845 
 190   0.0000       0.841493        22.8982 
 191   0.0000       0.845652        23.0114 
 192   0.0000       0.849647        23.1201 
 193   0.0000       0.853568        23.2268 
 194   0.0000       0.868296        23.6275 
 195   0.0000       0.877122        23.8677 
 196   0.0000       0.882249        24.0072 
 197   0.0000       0.887823        24.1589 
 198   0.0000       0.890133        24.2218 
 199   0.0000       0.899435        24.4749 
 200   0.0000       0.909859        24.7585 
 201   0.0000       0.918153        24.9842 
 202   0.0000       0.926562        25.2130 
 203   0.0000       0.932246        25.3677 
 204   0.0000       0.938423        25.5358 
 205   0.0000       0.942503        25.6468 
 206   0.0000       0.949109        25.8266 
 207   0.0000       0.956983        26.0408 
 208   0.0000       0.969312        26.3763 
 209   0.0000       0.979063        26.6416 
 210   0.0000       0.983610        26.7654 
 211   0.0000       0.989146        26.9160 
 212   0.0000       1.004238        27.3267 
 213   0.0000       1.011968        27.5370 
 214   0.0000       1.012319        27.5466 
 215   0.0000       1.018147        27.7052 
 216   0.0000       1.025833        27.9143 
 217   0.0000       1.027347        27.9555 
 218   0.0000       1.036421        28.2024 
 219   0.0000       1.041475        28.3400 
 220   0.0000       1.052747        28.6467 
 221   0.0000       1.060538        28.8587 
 222   0.0000       1.070061        29.1178 
 223   0.0000       1.075137        29.2560 
 224   0.0000       1.083806        29.4919 
 225   0.0000       1.091301        29.6958 
 226   0.0000       1.097658        29.8688 
 227   0.0000       1.105493        30.0820 
 228   0.0000       1.120163        30.4812 
 229   0.0000       1.125661        30.6308 
 230   0.0000       1.129665        30.7398 
 231   0.0000       1.131009        30.7763 
 232   0.0000       1.139579        31.0095 
 233   0.0000       1.142440        31.0874 
 234   0.0000       1.151196        31.3256 
 235   0.0000       1.159858        31.5613 
 236   0.0000       1.162505        31.6334 
 237   0.0000       1.172306        31.9001 
 238   0.0000       1.174972        31.9726 
 239   0.0000       1.184942        32.2439 
 240   0.0000       1.191144        32.4127 
 241   0.0000       1.199086        32.6288 
 242   0.0000       1.202381        32.7184 
 243   0.0000       1.212778        33.0014 
 244   0.0000       1.214489        33.0479 
 245   0.0000       1.218874        33.1672 
 246   0.0000       1.227773        33.4094 
 247   0.0000       1.234381        33.5892 
 248   0.0000       1.237559        33.6757 
 249   0.0000       1.246965        33.9316 
 250   0.0000       1.264590        34.4112 
 251   0.0000       1.271387        34.5962 
 252   0.0000       1.272302        34.6211 
 253   0.0000       1.284992        34.9664 
 254   0.0000       1.290567        35.1181 
 255   0.0000       1.294924        35.2367 
 256   0.0000       1.303079        35.4586 
 257   0.0000       1.312574        35.7170 
 258   0.0000       1.315185        35.7880 
 259   0.0000       1.332973        36.2720 
 260   0.0000       1.336799        36.3762 
 261   0.0000       1.340466        36.4759 
 262   0.0000       1.351843        36.7855 
 263   0.0000       1.355480        36.8845 
 264   0.0000       1.369515        37.2664 
 265   0.0000       1.371956        37.3328 
 266   0.0000       1.382740        37.6263 
 267   0.0000       1.394020        37.9332 
 268   0.0000       1.399643        38.0862 
 269   0.0000       1.409234        38.3472 
 270   0.0000       1.415140        38.5079 
 271   0.0000       1.423659        38.7397 
 272   0.0000       1.433242        39.0005 
 273   0.0000       1.440574        39.2000 
 274   0.0000       1.443755        39.2866 
 275   0.0000       1.462824        39.8055 
 276   0.0000       1.465268        39.8720 
 277   0.0000       1.471012        40.0283 
 278   0.0000       1.473747        40.1027 
 279   0.0000       1.489035        40.5187 
 280   0.0000       1.493238        40.6331 
 281   0.0000       1.495861        40.7044 
 282   0.0000       1.504248        40.9327 
 283   0.0000       1.509749        41.0824 
 284   0.0000       1.512467        41.1563 
 285   0.0000       1.522615        41.4324 
 286   0.0000       1.531025        41.6613 
 287   0.0000       1.539874        41.9021 
 288   0.0000       1.547760        42.1167 
 289   0.0000       1.556546        42.3558 
 290   0.0000       1.560750        42.4702 
 291   0.0000       1.566184        42.6180 
 292   0.0000       1.579120        42.9700 
 293   0.0000       1.591170        43.2979 
 294   0.0000       1.593651        43.3654 
 295   0.0000       1.595528        43.4165 
 296   0.0000       1.600998        43.5654 
 297   0.0000       1.611839        43.8604 
 298   0.0000       1.617855        44.0241 
 299   0.0000       1.627546        44.2878 
 300   0.0000       1.630891        44.3788 
 301   0.0000       1.643983        44.7350 
 302   0.0000       1.647200        44.8226 
 303   0.0000       1.655125        45.0382 
 304   0.0000       1.661389        45.2087 
 305   0.0000       1.673484        45.5378 
 306   0.0000       1.684150        45.8280 
 307   0.0000       1.690471        46.0001 
 308   0.0000       1.700026        46.2601 
 309   0.0000       1.705375        46.4056 
 310   0.0000       1.713605        46.6296 
 311   0.0000       1.723606        46.9017 
 312   0.0000       1.732908        47.1548 
 313   0.0000       1.737791        47.2877 
 314   0.0000       1.752194        47.6796 
 315   0.0000       1.757406        47.8214 
 316   0.0000       1.769931        48.1623 
 317   0.0000       1.784185        48.5501 
 318   0.0000       1.789927        48.7064 
 319   0.0000       1.804049        49.0907 
 320   0.0000       1.812121        49.3103 
 321   0.0000       1.814152        49.3656 
 322   0.0000       1.832128        49.8547 
 323   0.0000       1.835978        49.9595 
 324   0.0000       1.850380        50.3514 
 325   0.0000       1.863988        50.7217 
 326   0.0000       1.876926        51.0738 
 327   0.0000       1.898297        51.6553 
 328   0.0000       1.904670        51.8287 
 329   0.0000       1.911963        52.0272 
 330   0.0000       1.924131        52.3583 
 331   0.0000       1.928717        52.4831 
 332   0.0000       1.945812        52.9482 
 333   0.0000       1.952005        53.1168 
 334   0.0000       1.956060        53.2271 
 335   0.0000       1.960332        53.3433 
 336   0.0000       1.965479        53.4834 
 337   0.0000       1.999767        54.4164 
 338   0.0000       2.012124        54.7527 
 339   0.0000       2.018072        54.9145 
 340   0.0000       2.028609        55.2012 
 341   0.0000       2.034467        55.3607 
 342   0.0000       2.042452        55.5779 
 343   0.0000       2.066616        56.2355 
 344   0.0000       2.085665        56.7538 
 345   0.0000       2.121118        57.7186 
 346   0.0000       2.125530        57.8386 
 347   0.0000       2.130018        57.9607 
 348   0.0000       2.136920        58.1485 
 349   0.0000       2.158411        58.7333 
 350   0.0000       2.174934        59.1830 
 351   0.0000       2.188168        59.5431 
 352   0.0000       2.204757        59.9945 
 353   0.0000       2.217237        60.3341 
 354   0.0000       2.237187        60.8769 
 355   0.0000       2.250814        61.2478 
 356   0.0000       2.274280        61.8863 
 357   0.0000       2.279673        62.0331 
 358   0.0000       2.286676        62.2236 
 359   0.0000       2.308006        62.8040 
 360   0.0000       2.313644        62.9575 
 361   0.0000       2.329972        63.4018 
 362   0.0000       2.334374        63.5215 
 363   0.0000       2.345205        63.8163 
 364   0.0000       2.362232        64.2796 
 365   0.0000       2.376486        64.6675 
 366   0.0000       2.389249        65.0148 
 367   0.0000       2.401338        65.3437 
 368   0.0000       2.415605        65.7319 
 369   0.0000       2.425786        66.0090 
 370   0.0000       2.442176        66.4550 
 371   0.0000       2.445451        66.5441 
 372   0.0000       2.457228        66.8646 
 373   0.0000       2.474128        67.3245 
 374   0.0000       2.492493        67.8242 
 375   0.0000       2.496746        67.9399 
 376   0.0000       2.510930        68.3259 
 377   0.0000       2.526307        68.7443 
 378   0.0000       2.538379        69.0728 
 379   0.0000       2.543633        69.2158 
 380   0.0000       2.552982        69.4702 
 381   0.0000       2.574982        70.0688 
 382   0.0000       2.587602        70.4122 
 383   0.0000       2.588541        70.4378 
 384   0.0000       2.599341        70.7317 
 385   0.0000       2.613117        71.1065 
 386   0.0000       2.636577        71.7449 
 387   0.0000       2.644218        71.9528 
 388   0.0000       2.651648        72.1550 
 389   0.0000       2.667130        72.5763 
 390   0.0000       2.678230        72.8784 
 391   0.0000       2.691985        73.2526 
 392   0.0000       2.699705        73.4627 
 393   0.0000       2.708464        73.7010 
 394   0.0000       2.724700        74.1429 
 395   0.0000       2.731322        74.3231 
 396   0.0000       2.736349        74.4598 
 397   0.0000       2.740348        74.5687 
 398   0.0000       2.754674        74.9585 
 399   0.0000       2.767802        75.3157 
 400   0.0000       2.770188        75.3806 
 401   0.0000       2.784460        75.7690 
 402   0.0000       2.792250        75.9810 
 403   0.0000       2.795963        76.0820 
 404   0.0000       2.809809        76.4588 
 405   0.0000       2.823710        76.8371 
 406   0.0000       2.834988        77.1440 
 407   0.0000       2.839250        77.2599 
 408   0.0000       2.846386        77.4541 
 409   0.0000       2.850494        77.5659 
 410   0.0000       2.859455        77.8097 
 411   0.0000       2.874911        78.2303 
 412   0.0000       2.886083        78.5343 
 413   0.0000       2.897304        78.8397 
 414   0.0000       2.907896        79.1279 
 415   0.0000       2.913073        79.2687 
 416   0.0000       2.923125        79.5423 
 417   0.0000       2.933255        79.8179 
 418   0.0000       2.943292        80.0911 
 419   0.0000       2.948720        80.2388 
 420   0.0000       2.959887        80.5426 
 421   0.0000       2.961971        80.5993 
 422   0.0000       2.974645        80.9442 
 423   0.0000       2.981467        81.1298 
 424   0.0000       2.997004        81.5526 
 425   0.0000       3.002941        81.7142 
 426   0.0000       3.019958        82.1772 
 427   0.0000       3.027168        82.3734 
 428   0.0000       3.033271        82.5395 
 429   0.0000       3.039486        82.7086 
 430   0.0000       3.046121        82.8892 
 431   0.0000       3.052279        83.0567 
 432   0.0000       3.058057        83.2140 
 433   0.0000       3.071617        83.5830 
 434   0.0000       3.078598        83.7729 
 435   0.0000       3.085753        83.9676 
 436   0.0000       3.092727        84.1574 
 437   0.0000       3.097976        84.3002 
 438   0.0000       3.107663        84.5638 
 439   0.0000       3.113162        84.7135 
 440   0.0000       3.120738        84.9196 
 441   0.0000       3.122904        84.9785 
 442   0.0000       3.128163        85.1216 
 443   0.0000       3.134151        85.2846 
 444   0.0000       3.143387        85.5359 
 445   0.0000       3.149330        85.6976 
 446   0.0000       3.151750        85.7635 
 447   0.0000       3.159412        85.9720 
 448   0.0000       3.167718        86.1980 
 449   0.0000       3.185704        86.6874 
 450   0.0000       3.196197        86.9729 
 451   0.0000       3.203924        87.1832 
 452   0.0000       3.210450        87.3608 
 453   0.0000       3.213652        87.4479 
 454   0.0000       3.221179        87.6527 
 455   0.0000       3.229790        87.8871 
 456   0.0000       3.241568        88.2076 
 457   0.0000       3.245646        88.3185 
 458   0.0000       3.253411        88.5298 
 459   0.0000       3.263908        88.8155 
 460   0.0000       3.269887        88.9782 
 461   0.0000       3.274225        89.0962 
 462   0.0000       3.278822        89.2213 
 463   0.0000       3.284917        89.3871 
 464   0.0000       3.291618        89.5695 
 465   0.0000       3.303096        89.8818 
 466   0.0000       3.310714        90.0891 
 467   0.0000       3.314551        90.1935 
 468   0.0000       3.326091        90.5075 
 469   0.0000       3.331790        90.6626 
 470   0.0000       3.334874        90.7465 
 471   0.0000       3.343404        90.9787 
 472   0.0000       3.347874        91.1003 
 473   0.0000       3.352797        91.2342 
 474   0.0000       3.356396        91.3322 
 475   0.0000       3.370401        91.7133 
 476   0.0000       3.372968        91.7831 
 477   0.0000       3.379981        91.9740 
 478   0.0000       3.384412        92.0945 
 479   0.0000       3.390046        92.2478 
 480   0.0000       3.397426        92.4487 
 481   0.0000       3.404740        92.6477 
 482   0.0000       3.405698        92.6738 
 483   0.0000       3.411787        92.8394 
 484   0.0000       3.416569        92.9696 
 485   0.0000       3.419676        93.0541 
 486   0.0000       3.422781        93.1386 
 487   0.0000       3.425076        93.2011 
 488   0.0000       3.436788        93.5198 
 489   0.0000       3.445601        93.7596 
 490   0.0000       3.450291        93.8872 
 491   0.0000       3.454979        94.0147 
 492   0.0000       3.459228        94.1304 
 493   0.0000       3.465100        94.2902 
 494   0.0000       3.470109        94.4265 
 495   0.0000       3.474139        94.5361 
 496   0.0000       3.480621        94.7125 
 497   0.0000       3.494204        95.0821 
 498   0.0000       3.501441        95.2791 
 499   0.0000       3.508587        95.4735 
 500   0.0000       3.513536        95.6082 
 501   0.0000       3.523133        95.8693 
 502   0.0000       3.534191        96.1702 
 503   0.0000       3.535571        96.2078 
 504   0.0000       3.540689        96.3471 
 505   0.0000       3.546786        96.5130 
 506   0.0000       3.563542        96.9689 
 507   0.0000       3.570180        97.1495 
 508   0.0000       3.572436        97.2109 
 509   0.0000       3.582238        97.4777 
 510   0.0000       3.587958        97.6333 
 511   0.0000       3.597383        97.8898 
 512   0.0000       3.608916        98.2036 
 513   0.0000       3.618914        98.4757 
 514   0.0000       3.619661        98.4960 
 515   0.0000       3.625824        98.6637 
 516   0.0000       3.631338        98.8137 
 517   0.0000       3.634818        98.9084 
 518   0.0000       3.642067        99.1057 
 519   0.0000       3.645677        99.2039 
 520   0.0000       3.652378        99.3863 
 521   0.0000       3.656313        99.4933 
 522   0.0000       3.660701        99.6127 
 523   0.0000       3.667391        99.7948 
 524   0.0000       3.670604        99.8822 
 525   0.0000       3.679156       100.1149 
 526   0.0000       3.686842       100.3241 
 527   0.0000       3.695783       100.5674 
 528   0.0000       3.699379       100.6652 
 529   0.0000       3.703191       100.7689 
 530   0.0000       3.714029       101.0639 
 531   0.0000       3.718878       101.1958 
 532   0.0000       3.730192       101.5037 
 533   0.0000       3.739733       101.7633 
 534   0.0000       3.746982       101.9606 
 535   0.0000       3.747808       101.9830 
 536   0.0000       3.755354       102.1884 
 537   0.0000       3.761263       102.3492 
 538   0.0000       3.765419       102.4623 
 539   0.0000       3.770593       102.6031 
 540   0.0000       3.783991       102.9676 
 541   0.0000       3.792448       103.1978 
 542   0.0000       3.797421       103.3331 
 543   0.0000       3.807275       103.6012 
 544   0.0000       3.808061       103.6226 
 545   0.0000       3.819323       103.9291 
 546   0.0000       3.824316       104.0649 
 547   0.0000       3.830144       104.2235 
 548   0.0000       3.834135       104.3321 
 549   0.0000       3.843226       104.5795 
 550   0.0000       3.845045       104.6290 
 551   0.0000       3.861491       105.0765 
 552   0.0000       3.869303       105.2891 
 553   0.0000       3.877599       105.5148 
 554   0.0000       3.894781       105.9824 
 555   0.0000       3.906096       106.2903 
 556   0.0000       3.912155       106.4552 
 557   0.0000       3.917701       106.6061 
 558   0.0000       3.920874       106.6924 
 559   0.0000       3.931790       106.9894 
 560   0.0000       3.934101       107.0523 
 561   0.0000       3.939781       107.2069 
 562   0.0000       3.963896       107.8631 
 563   0.0000       3.973102       108.1136 
 564   0.0000       3.975583       108.1811 
 565   0.0000       3.984198       108.4155 
 566   0.0000       3.992167       108.6324 
 567   0.0000       4.002029       108.9008 
 568   0.0000       4.006686       109.0275 
 569   0.0000       4.014830       109.2491 
 570   0.0000       4.027520       109.5944 
 571   0.0000       4.032136       109.7200 
 572   0.0000       4.042023       109.9890 
 573   0.0000       4.053502       110.3014 
 574   0.0000       4.058017       110.4243 
 575   0.0000       4.062750       110.5531 
 576   0.0000       4.076123       110.9170 
 577   0.0000       4.086442       111.1977 
 578   0.0000       4.095332       111.4397 
 579   0.0000       4.098623       111.5292 
 580   0.0000       4.114983       111.9744 
 581   0.0000       4.115629       111.9920 
 582   0.0000       4.124176       112.2245 
 583   0.0000       4.130147       112.3870 
 584   0.0000       4.134318       112.5005 
 585   0.0000       4.141737       112.7024 
 586   0.0000       4.153685       113.0275 
 587   0.0000       4.154687       113.0548 
 588   0.0000       4.163306       113.2893 
 589   0.0000       4.165669       113.3536 
 590   0.0000       4.178185       113.6942 
 591   0.0000       4.186023       113.9075 
 592   0.0000       4.189641       114.0059 
 593   0.0000       4.196037       114.1800 
 594   0.0000       4.202577       114.3579 
 595   0.0000       4.204420       114.4081 
 596   0.0000       4.211731       114.6070 
 597   0.0000       4.226287       115.0031 
 598   0.0000       4.234630       115.2301 
 599   0.0000       4.238610       115.3384 
 600   0.0000       4.250791       115.6699 
 601   0.0000       4.257280       115.8465 
 602   0.0000       4.263253       116.0090 
 603   0.0000       4.268441       116.1502 
 604   0.0000       4.283816       116.5686 
 605   0.0000       4.300525       117.0232 
 606   0.0000       4.304497       117.1313 
 607   0.0000       4.309613       117.2705 
 608   0.0000       4.318063       117.5005 
 609   0.0000       4.327275       117.7511 
 610   0.0000       4.340288       118.1052 
 611   0.0000       4.345761       118.2542 
 612   0.0000       4.349898       118.3667 
 613   0.0000       4.353370       118.4612 
 614   0.0000       4.356977       118.5594 
 615   0.0000       4.359659       118.6323 
 616   0.0000       4.373186       119.0004 
 617   0.0000       4.378160       119.1358 
 618   0.0000       4.384456       119.3071 
 619   0.0000       4.391778       119.5064 
 620   0.0000       4.408763       119.9685 
 621   0.0000       4.417590       120.2087 
 622   0.0000       4.423927       120.3812 
 623   0.0000       4.429345       120.5286 
 624   0.0000       4.440214       120.8244 
 625   0.0000       4.445206       120.9602 
 626   0.0000       4.457945       121.3068 
 627   0.0000       4.459075       121.3376 
 628   0.0000       4.466977       121.5526 
 629   0.0000       4.486244       122.0769 
 630   0.0000       4.498024       122.3974 
 631   0.0000       4.508913       122.6938 
 632   0.0000       4.510034       122.7243 
 633   0.0000       4.521713       123.0421 
 634   0.0000       4.529779       123.2616 
 635   0.0000       4.546819       123.7252 
 636   0.0000       4.551710       123.8583 
 637   0.0000       4.562126       124.1418 
 638   0.0000       4.572091       124.4129 
 639   0.0000       4.576884       124.5433 
 640   0.0000       4.583733       124.7297 
 641   0.0000       4.591479       124.9405 
 642   0.0000       4.600940       125.1979 
 643   0.0000       4.601482       125.2127 
 644   0.0000       4.621533       125.7583 
 645   0.0000       4.631009       126.0162 
 646   0.0000       4.638362       126.2163 
 647   0.0000       4.641674       126.3064 
 648   0.0000       4.645563       126.4122 
 649   0.0000       4.649823       126.5281 
 650   0.0000       4.655624       126.6860 
 651   0.0000       4.659490       126.7912 
 652   0.0000       4.677326       127.2765 
 653   0.0000       4.690436       127.6332 
 654   0.0000       4.692654       127.6936 
 655   0.0000       4.693977       127.7296 
 656   0.0000       4.712932       128.2454 
 657   0.0000       4.715936       128.3271 
 658   0.0000       4.728318       128.6641 
 659   0.0000       4.732628       128.7814 
 660   0.0000       4.748753       129.2201 
 661   0.0000       4.755635       129.4074 
 662   0.0000       4.761716       129.5729 
 663   0.0000       4.768265       129.7511 
 664   0.0000       4.800066       130.6164 
 665   0.0000       4.820529       131.1733 
 666   0.0000       4.842450       131.7698 
 667   0.0000       4.861414       132.2858 
 668   0.0000       4.876398       132.6935 
 669   0.0000       4.888418       133.0206 
 670   0.0000       4.900296       133.3438 
 671   0.0000       4.906489       133.5123 
 672   0.0000       4.932902       134.2311 
 673   0.0000       4.947833       134.6374 
 674   0.0000       4.971093       135.2703 
 675   0.0000       4.977863       135.4545 
 676   0.0000       5.009994       136.3289 
 677   0.0000       5.018527       136.5610 
 678   0.0000       5.020148       136.6052 
 679   0.0000       5.037714       137.0832 
 680   0.0000       5.057064       137.6097 
 681   0.0000       5.060414       137.7009 
 682   0.0000       5.068183       137.9123 
 683   0.0000       5.084077       138.3448 
 684   0.0000       5.097577       138.7121 
 685   0.0000       5.114313       139.1675 
 686   0.0000       5.119322       139.3038 
 687   0.0000       5.134735       139.7233 
 688   0.0000       5.142217       139.9268 
 689   0.0000       5.148715       140.1037 
 690   0.0000       5.154518       140.2616 
 691   0.0000       5.174588       140.8077 
 692   0.0000       5.182441       141.0214 
 693   0.0000       5.197644       141.4351 
 694   0.0000       5.200143       141.5031 
 695   0.0000       5.212664       141.8438 
 696   0.0000       5.225247       142.1862 
 697   0.0000       5.226814       142.2288 
 698   0.0000       5.234235       142.4308 
 699   0.0000       5.239143       142.5643 
 700   0.0000       5.270576       143.4197 
 701   0.0000       5.276038       143.5683 
 702   0.0000       5.288902       143.9183 
 703   0.0000       5.308608       144.4546 
 704   0.0000       5.317681       144.7015 
 705   0.0000       5.327444       144.9671 
 706   0.0000       5.337774       145.2482 
 707   0.0000       5.349925       145.5789 
 708   0.0000       5.356912       145.7690 
 709   0.0000       5.377070       146.3175 
 710   0.0000       5.393164       146.7555 
 711   0.0000       5.424002       147.5946 
 712   0.0000       5.432736       147.8323 
 713   0.0000       5.458795       148.5414 
 714   0.0000       5.470371       148.8564 
 715   0.0000       5.486244       149.2883 
 716   0.0000       5.493745       149.4924 
 717   0.0000       5.500129       149.6661 
 718   0.0000       5.521831       150.2567 
 719   0.0000       5.523785       150.3098 
 720   0.0000       5.526028       150.3709 
 721   0.0000       5.531401       150.5171 
 722   0.0000       5.550662       151.0412 
 723   0.0000       5.569235       151.5466 
 724   0.0000       5.576561       151.7460 
 725   0.0000       5.601457       152.4234 
 726   0.0000       5.603374       152.4756 
 727   0.0000       5.622111       152.9854 
 728   0.0000       5.641090       153.5019 
 729   0.0000       5.648659       153.7078 
 730   0.0000       5.654115       153.8563 
 731   0.0000       5.667177       154.2117 
 732   0.0000       5.676233       154.4582 
 733   0.0000       5.678796       154.5279 
 734   0.0000       5.697562       155.0385 
 735   0.0000       5.701543       155.1469 
 736   0.0000       5.711770       155.4252 
 737   0.0000       5.725408       155.7963 
 738   0.0000       5.745633       156.3466 
 739   0.0000       5.749227       156.4444 
 740   0.0000       5.756560       156.6440 
 741   0.0000       5.772971       157.0905 
 742   0.0000       5.812358       158.1623 
 743   0.0000       5.821301       158.4057 
 744   0.0000       5.828435       158.5998 
 745   0.0000       5.841115       158.9448 
 746   0.0000       5.855581       159.3385 
 747   0.0000       5.877737       159.9414 
 748   0.0000       5.891829       160.3248 
 749   0.0000       5.932785       161.4393 
 750   0.0000       5.955213       162.0496 
 751   0.0000       5.970099       162.4547 
 752   0.0000       5.979730       162.7167 
 753   0.0000       5.991674       163.0417 
 754   0.0000       6.003398       163.3608 
 755   0.0000       6.018593       163.7742 
 756   0.0000       6.054126       164.7412 
 757   0.0000       6.055050       164.7663 
 758   0.0000       6.087105       165.6386 
 759   0.0000       6.097298       165.9159 
 760   0.0000       6.105739       166.1456 
 761   0.0000       6.166192       167.7906 
 762   0.0000       6.180145       168.1703 
 763   0.0000       6.221509       169.2959 
 764   0.0000       6.232758       169.6020 
 765   0.0000       6.266053       170.5080 
 766   0.0000       6.277884       170.8299 
 767   0.0000       6.314545       171.8275 
 768   0.0000       6.355133       172.9320 
 769   0.0000       6.356085       172.9579 
 770   0.0000       6.371757       173.3843 
 771   0.0000       6.382718       173.6826 
 772   0.0000       6.410269       174.4323 
 773   0.0000       6.443420       175.3344 
 774   0.0000       6.460588       175.8015 
 775   0.0000       6.474375       176.1767 
 776   0.0000       6.501024       176.9019 
 777   0.0000       6.516644       177.3269 
 778   0.0000       6.562008       178.5613 
 779   0.0000       6.579407       179.0348 
 780   0.0000       6.670971       181.5263 
 781   0.0000       6.676441       181.6752 
 782   0.0000       6.689575       182.0326 
 783   0.0000       6.724929       182.9946 
 784   0.0000       6.762068       184.0052 
 785   0.0000       6.882411       187.2799 
 786   0.0000       6.915459       188.1792 
 787   0.0000       6.925712       188.4582 
 788   0.0000       6.938586       188.8085 
 789   0.0000       7.028856       191.2649 
 790   0.0000       7.055838       191.9991 
 791   0.0000       7.059826       192.1076 
 792   0.0000       7.087879       192.8710 
 793   0.0000       7.094902       193.0621 
 794   0.0000       7.229267       196.7183 
 795   0.0000       7.253315       197.3727 
 796   0.0000       7.268157       197.7766 
 797   0.0000       7.286817       198.2844 
 798   0.0000       7.347170       199.9267 
 799   0.0000       7.368669       200.5117 
 800   0.0000       7.428788       202.1476 
 801   0.0000       7.482993       203.6226 
 802   0.0000       7.589056       206.5087 
 803   0.0000       7.592348       206.5983 
 804   0.0000       7.673776       208.8141 
 805   0.0000       7.822258       212.8545 
 806   0.0000       7.832870       213.1432 
 807   0.0000       7.940536       216.0730 
 808   0.0000       7.952884       216.4090 
 809   0.0000       9.391977       255.5687 
 810   0.0000       9.585031       260.8219 
 811   0.0000      10.722858       291.7838 
 812   0.0000      11.061479       300.9981 
 813   0.0000      11.906388       323.9893 
 814   0.0000      12.600607       342.8799 
 815   0.0000      12.941350       352.1520 
 816   0.0000      12.992218       353.5362 
 817   0.0000      13.062544       355.4499 
 818   0.0000      13.141672       357.6031 
 819   0.0000      13.410861       364.9281 
 820   0.0000      13.486644       366.9902 
 821   0.0000      13.712503       373.1362 
 822   0.0000      13.771146       374.7319 
 823   0.0000      13.935661       379.2086 
 824   0.0000      13.960128       379.8744 
 825   0.0000      14.401335       391.8803 
 826   0.0000      14.550064       395.9274 
 827   0.0000      15.939820       433.7445 

                    ********************************
                    * MULLIKEN POPULATION ANALYSIS *
                    ********************************

-----------------------
MULLIKEN ATOMIC CHARGES
-----------------------
   0 C :   -0.292307
   1 C :    0.030663
   2 O :   -0.349499
   3 C :    0.426012
   4 O :   -0.435271
   5 C :   -0.142308
   6 C :    0.149373
   7 C :   -0.275481
   8 N :   -0.125764
   9 C :    0.188660
  10 S :   -0.437409
  11 N :   -0.201871
  12 C :    0.030711
  13 C :    0.061289
  14 C :   -0.198844
  15 C :   -0.128618
  16 C :   -0.280974
  17 C :    0.308021
  18 O :   -0.357586
  19 C :   -0.253860
  20 H :    0.118766
  21 H :    0.094754
  22 H :    0.094136
  23 H :    0.105282
  24 H :    0.105924
  25 H :    0.130205
  26 H :    0.125386
  27 H :    0.102109
  28 H :    0.199374
  29 H :    0.194256
  30 H :    0.162799
  31 H :    0.160885
  32 H :    0.159475
  33 H :    0.127550
  34 H :    0.239780
  35 H :    0.164382
Sum of atomic charges:   -0.0000000

--------------------------------
MULLIKEN REDUCED ORBITAL CHARGES
--------------------------------
  0 C s       :     3.264070  s :     3.264070
      pz      :     1.006089  p :     2.952323
      px      :     0.979975
      py      :     0.966259
      dz2     :     0.004514  d :     0.071474
      dxz     :     0.018497
      dyz     :     0.022309
      dx2y2   :     0.010180
      dxy     :     0.015974
      f0      :     0.000355  f :     0.004440
      f+1     :     0.000108
      f-1     :     0.000491
      f+2     :     0.000585
      f-2     :     0.001862
      f+3     :     0.000559
      f-3     :     0.000480
  1 C s       :     3.166825  s :     3.166825
      pz      :     0.848452  p :     2.641656
      px      :     0.984084
      py      :     0.809120
      dz2     :     0.026403  d :     0.149442
      dxz     :     0.028860
      dyz     :     0.039529
      dx2y2   :     0.023228
      dxy     :     0.031421
      f0      :     0.001317  f :     0.011414
      f+1     :     0.000844
      f-1     :     0.002417
      f+2     :     0.001770
      f-2     :     0.002906
      f+3     :     0.001147
      f-3     :     0.001014
  2 O s       :     3.716994  s :     3.716994
      pz      :     1.406597  p :     4.596637
      px      :     1.562379
      py      :     1.627660
      dz2     :     0.004958  d :     0.033612
      dxz     :     0.007395
      dyz     :     0.009505
      dx2y2   :     0.007199
      dxy     :     0.004554
      f0      :     0.000280  f :     0.002256
      f+1     :     0.000516
      f-1     :     0.000285
      f+2     :     0.000512
      f-2     :     0.000420
      f+3     :     0.000129
      f-3     :     0.000115
  3 C s       :     3.090732  s :     3.090732
      pz      :     0.720725  p :     2.151400
      px      :     0.653384
      py      :     0.777291
      dz2     :     0.043280  d :     0.305287
      dxz     :     0.052446
      dyz     :     0.075166
      dx2y2   :     0.083242
      dxy     :     0.051154
      f0      :     0.003671  f :     0.026569
      f+1     :     0.003422
      f-1     :     0.002726
      f+2     :     0.003276
      f-2     :     0.004978
      f+3     :     0.002968
      f-3     :     0.005529
  4 O s       :     3.769591  s :     3.769591
      pz      :     1.705620  p :     4.628299
      px      :     1.523073
      py      :     1.399606
      dz2     :     0.004216  d :     0.034984
      dxz     :     0.002435
      dyz     :     0.006309
      dx2y2   :     0.010563
      dxy     :     0.011462
      f0      :     0.000249  f :     0.002397
      f+1     :     0.000164
      f-1     :     0.000342
      f+2     :     0.000081
      f-2     :     0.000284
      f+3     :     0.000670
      f-3     :     0.000608
  5 C s       :     3.175780  s :     3.175780
      pz      :     0.932146  p :     2.870123
      px      :     1.093868
      py      :     0.844109
      dz2     :     0.014611  d :     0.086590
      dxz     :     0.011007
      dyz     :     0.028613
      dx2y2   :     0.012598
      dxy     :     0.019760
      f0      :     0.000733  f :     0.009816
      f+1     :     0.000984
      f-1     :     0.001618
      f+2     :     0.002366
      f-2     :     0.001134
      f+3     :     0.001520
      f-3     :     0.001461
  6 C s       :     3.193273  s :     3.193273
      pz      :     0.806190  p :     2.465171
      px      :     0.848861
      py      :     0.810120
      dz2     :     0.031774  d :     0.177828
      dxz     :     0.016359
      dyz     :     0.050386
      dx2y2   :     0.024241
      dxy     :     0.055068
      f0      :     0.001626  f :     0.014354
      f+1     :     0.001248
      f-1     :     0.002530
      f+2     :     0.002557
      f-2     :     0.002196
      f+3     :     0.002391
      f-3     :     0.001807
  7 C s       :     3.273693  s :     3.273693
      pz      :     0.943359  p :     2.928315
      px      :     0.991531
      py      :     0.993426
      dz2     :     0.019948  d :     0.068829
      dxz     :     0.013334
      dyz     :     0.007507
      dx2y2   :     0.018714
      dxy     :     0.009326
      f0      :     0.000438  f :     0.004645
      f+1     :     0.001353
      f-1     :     0.000562
      f+2     :     0.000421
      f-2     :     0.000667
      f+3     :     0.000169
      f-3     :     0.001036
  8 N s       :     3.345392  s :     3.345392
      pz      :     1.362506  p :     3.715748
      px      :     1.268977
      py      :     1.084266
      dz2     :     0.010165  d :     0.059662
      dxz     :     0.010322
      dyz     :     0.010744
      dx2y2   :     0.015241
      dxy     :     0.013189
      f0      :     0.000580  f :     0.004962
      f+1     :     0.000911
      f-1     :     0.000462
      f+2     :     0.000981
      f-2     :     0.001002
      f+3     :     0.000503
      f-3     :     0.000523
  9 C s       :     3.172820  s :     3.172820
      pz      :     0.731056  p :     2.357747
      px      :     0.756562
      py      :     0.870129
      dz2     :     0.046631  d :     0.263104
      dxz     :     0.032823
      dyz     :     0.057359
      dx2y2   :     0.071261
      dxy     :     0.055030
      f0      :     0.001887  f :     0.017669
      f+1     :     0.002968
      f-1     :     0.001889
      f+2     :     0.003124
      f-2     :     0.001966
      f+3     :     0.002871
      f-3     :     0.002965
 10 S s       :     5.855865  s :     5.855865
      pz      :     3.528351  p :    10.486916
      px      :     3.604656
      py      :     3.353910
      dz2     :     0.010613  d :     0.084510
      dxz     :     0.007557
      dyz     :     0.028277
      dx2y2   :     0.010517
      dxy     :     0.027547
      f0      :     0.001128  f :     0.010118
      f+1     :     0.000467
      f-1     :     0.001418
      f+2     :     0.001430
      f-2     :     0.002426
      f+3     :     0.002281
      f-3     :     0.000969
 11 N s       :     3.375275  s :     3.375275
      pz      :     1.468278  p :     3.763949
      px      :     1.280361
      py      :     1.015310
      dz2     :     0.004757  d :     0.058189
      dxz     :     0.008031
      dyz     :     0.012770
      dx2y2   :     0.015495
      dxy     :     0.017136
      f0      :     0.000584  f :     0.004459
      f+1     :     0.000402
      f-1     :     0.000648
      f+2     :     0.000595
      f-2     :     0.000621
      f+3     :     0.000870
      f-3     :     0.000739
 12 C s       :     3.123317  s :     3.123317
      pz      :     0.890155  p :     2.654374
      px      :     0.924321
      py      :     0.839898
      dz2     :     0.031652  d :     0.180335
      dxz     :     0.032836
      dyz     :     0.043410
      dx2y2   :     0.029062
      dxy     :     0.043374
      f0      :     0.001194  f :     0.011263
      f+1     :     0.001468
      f-1     :     0.001648
      f+2     :     0.001779
      f-2     :     0.002386
      f+3     :     0.001503
      f-3     :     0.001285
 13 C s       :     3.100712  s :     3.100712
      pz      :     0.888839  p :     2.718872
      px      :     0.900670
      py      :     0.929363
      dz2     :     0.022087  d :     0.107873
      dxz     :     0.011434
      dyz     :     0.031490
      dx2y2   :     0.016496
      dxy     :     0.026365
      f0      :     0.001318  f :     0.011254
      f+1     :     0.001485
      f-1     :     0.001835
[...]
      f-1     :     0.006093
      f+2     :     0.007569
      f-2     :     0.004362
      f+3     :     0.006054
      f-3     :     0.005433
 15 C s       :     2.705953  s :     2.705953
      pz      :     0.954338  p :     2.795354
      px      :     0.871434
      py      :     0.969583
      dz2     :     0.121326  d :     0.416564
      dxz     :     0.073261
      dyz     :     0.087003
      dx2y2   :     0.087703
      dxy     :     0.047271
      f0      :     0.005859  f :     0.041042
      f+1     :     0.005611
      f-1     :     0.007879
      f+2     :     0.007532
      f-2     :     0.006598
      f+3     :     0.003269
      f-3     :     0.004295
 16 C s       :     2.701781  s :     2.701781
      pz      :     0.956980  p :     2.870599
      px      :     0.933779
      py      :     0.979840
      dz2     :     0.071685  d :     0.390482
      dxz     :     0.046147
      dyz     :     0.113076
      dx2y2   :     0.078269
      dxy     :     0.081305
      f0      :     0.005783  f :     0.040291
      f+1     :     0.004564
      f-1     :     0.006248
      f+2     :     0.006916
      f-2     :     0.004582
      f+3     :     0.007115
      f-3     :     0.005084
 17 C s       :     2.701701  s :     2.701701
      pz      :     0.867917  p :     2.681958
      px      :     0.814718
      py      :     0.999322
      dz2     :     0.155425  d :     0.708241
      dxz     :     0.103959
      dyz     :     0.187265
      dx2y2   :     0.123709
      dxy     :     0.137883
      f0      :     0.016537  f :     0.099209
      f+1     :     0.012115
      f-1     :     0.015087
      f+2     :     0.019706
      f-2     :     0.014280
      f+3     :     0.011847
      f-3     :     0.009637
 18 O s       :     3.177243  s :     3.177243
      pz      :     1.315427  p :     4.348085
      px      :     1.523323
      py      :     1.509335
      dz2     :     0.013055  d :     0.075529
      dxz     :     0.014847
      dyz     :     0.027335
      dx2y2   :     0.008684
      dxy     :     0.011609
      f0      :     0.000746  f :     0.005072
      f+1     :     0.000515
      f-1     :     0.000895
      f+2     :     0.001022
      f-2     :     0.001031
      f+3     :     0.000449
      f-3     :     0.000415
 19 C s       :     2.695327  s :     2.695327
      pz      :     0.960697  p :     2.848448
      px      :     0.920705
      py      :     0.967045
      dz2     :     0.103239  d :     0.386409
      dxz     :     0.068229
      dyz     :     0.087164
      dx2y2   :     0.077617
      dxy     :     0.050161
      f0      :     0.005605  f :     0.040698
      f+1     :     0.006381
      f-1     :     0.007648
      f+2     :     0.007141
      f-2     :     0.006767
      f+3     :     0.003290
      f-3     :     0.003866
 20 H s       :     0.843047  s :     0.843047
      pz      :     0.056320  p :     0.153318
      px      :     0.048984
      py      :     0.048014
      dz2     :     0.006993  d :     0.027531
      dxz     :     0.005535
      dyz     :     0.006229
      dx2y2   :     0.004223
      dxy     :     0.004551
 21 H s       :     0.847457  s :     0.847457
      pz      :     0.054003  p :     0.151805
      px      :     0.043441
      py      :     0.054361
      dz2     :     0.006595  d :     0.027467
      dxz     :     0.005280
      dyz     :     0.006533
      dx2y2   :     0.004204
      dxy     :     0.004854
 22 H s       :     0.850327  s :     0.850327
      pz      :     0.047067  p :     0.151285
      px      :     0.061227
      py      :     0.042992
      dz2     :     0.004281  d :     0.027575
      dxz     :     0.006865
      dyz     :     0.003521
      dx2y2   :     0.006599
      dxy     :     0.006309
 23 H s       :     0.854041  s :     0.854041
      pz      :     0.039618  p :     0.147184
      px      :     0.066348
      py      :     0.041218
      dz2     :     0.003494  d :     0.026977
      dxz     :     0.007710
      dyz     :     0.002965
      dx2y2   :     0.005539
      dxy     :     0.007269
 24 H s       :     0.855243  s :     0.855243
      pz      :     0.055111  p :     0.144262
      px      :     0.051017
      py      :     0.038134
      dz2     :     0.006920  d :     0.026882
      dxz     :     0.006343
      dyz     :     0.006086
      dx2y2   :     0.003726
      dxy     :     0.003806
 25 H s       :     0.829591  s :     0.829591
      pz      :     0.037982  p :     0.151447
      px      :     0.068262
      py      :     0.045203
      dz2     :     0.002361  d :     0.027798
      dxz     :     0.008023
      dyz     :     0.001106
      dx2y2   :     0.008808
      dxy     :     0.007500
 26 H s       :     0.829392  s :     0.829392
      pz      :     0.067633  p :     0.151987
      px      :     0.043975
      py      :     0.040379
      dz2     :     0.009206  d :     0.027808
      dxz     :     0.007670
      dyz     :     0.007281
      dx2y2   :     0.002210
      dxy     :     0.001441
 27 H s       :     0.842942  s :     0.842942
      pz      :     0.037433  p :     0.150237
      px      :     0.040133
      py      :     0.072672
      dz2     :     0.002535  d :     0.027760
      dxz     :     0.000353
      dyz     :     0.008594
      dx2y2   :     0.006801
      dxy     :     0.009477
 28 H s       :     0.742877  s :     0.742877
      pz      :     0.069404  p :     0.254240
      px      :     0.068756
      py      :     0.116080
      dz2     :     0.005638  d :     0.061956
      dxz     :     0.001997
      dyz     :     0.019026
      dx2y2   :     0.016500
      dxy     :     0.018795
 29 H s       :     0.748109  s :     0.748109
      pz      :     0.105636  p :     0.253621
      px      :     0.105689
      py      :     0.042295
      dz2     :     0.017563  d :     0.061361
      dxz     :     0.015547
      dyz     :     0.006335
      dx2y2   :     0.012247
      dxy     :     0.009668
 30 H s       :     0.826706  s :     0.826706
      pz      :     0.047188  p :     0.150488
      px      :     0.053568
      py      :     0.049732
      dz2     :     0.004645  d :     0.028503
      dxz     :     0.006291
      dyz     :     0.004573
      dx2y2   :     0.006078
      dxy     :     0.006915
 31 H s       :     0.840545  s :     0.840545
      pz      :     0.060642  p :     0.156801
      px      :     0.054181
      py      :     0.041978
      dz2     :     0.006966  d :     0.027430
      dxz     :     0.006024
      dyz     :     0.006166
      dx2y2   :     0.004161
      dxy     :     0.004114
 32 H s       :     0.843590  s :     0.843590
      pz      :     0.034866  p :     0.151213
      px      :     0.038744
      py      :     0.077603
      dz2     :     0.002744  d :     0.026459
      dxz     :     0.000247
      dyz     :     0.008169
      dx2y2   :     0.007632
      dxy     :     0.007666
 33 H s       :     0.849491  s :     0.849491
      pz      :     0.063379  p :     0.159354
      px      :     0.050573
      py      :     0.045403
      dz2     :     0.007840  d :     0.027790
      dxz     :     0.005950
      dyz     :     0.006868
      dx2y2   :     0.003651
      dxy     :     0.003482
 34 H s       :     0.707072  s :     0.707072
      pz      :     0.113957  p :     0.348197
      px      :     0.097582
      py      :     0.136659
      dz2     :     0.025583  d :     0.099652
      dxz     :     0.016389
      dyz     :     0.024542
      dx2y2   :     0.015695
      dxy     :     0.017443
 35 H s       :     0.839229  s :     0.839229
      pz      :     0.036440  p :     0.157676
      px      :     0.042411
      py      :     0.078826
      dz2     :     0.002700  d :     0.028041
      dxz     :     0.000324
      dyz     :     0.008592
      dx2y2   :     0.007786
      dxy     :     0.008641


                      *****************************
                      * MAYER POPULATION ANALYSIS *
                      *****************************

  NA   - Mulliken gross atomic population
  ZA   - Total nuclear charge
  QA   - Mulliken gross atomic charge
  VA   - Mayer's total valence
  BVA  - Mayer's bonded valence
  FA   - Mayer's free valence

  ATOM       NA         ZA         QA         VA         BVA        FA
  0 C      6.2923     6.0000    -0.2923     3.8759     3.8759    -0.0000
  1 C      5.9693     6.0000     0.0307     3.8598     3.8598     0.0000
  2 O      8.3495     8.0000    -0.3495     2.0666     2.0666    -0.0000
  3 C      5.5740     6.0000     0.4260     4.2053     4.2053     0.0000
  4 O      8.4353     8.0000    -0.4353     2.0670     2.0670     0.0000
  5 C      6.1423     6.0000    -0.1423     3.6546     3.6546    -0.0000
  6 C      5.8506     6.0000     0.1494     3.8241     3.8241    -0.0000
  7 C      6.2755     6.0000    -0.2755     3.8906     3.8906    -0.0000
  8 N      7.1258     7.0000    -0.1258     3.2798     3.2798    -0.0000
  9 C      5.8113     6.0000     0.1887     4.1578     4.1578     0.0000
 10 S     16.4374    16.0000    -0.4374     1.7599     1.7599     0.0000
 11 N      7.2019     7.0000    -0.2019     3.2523     3.2523    -0.0000
 12 C      5.9693     6.0000     0.0307     3.9449     3.9449    -0.0000
 13 C      5.9387     6.0000     0.0613     3.7456     3.7456    -0.0000
 14 C      6.1988     6.0000    -0.1988     3.8608     3.8608     0.0000
 15 C      6.1286     6.0000    -0.1286     3.7999     3.7999    -0.0000
 16 C      6.2810     6.0000    -0.2810     3.7958     3.7958     0.0000
 17 C      5.6920     6.0000     0.3080     3.8738     3.8738     0.0000
 18 O      8.3576     8.0000    -0.3576     2.1173     2.1173     0.0000
 19 C      6.2539     6.0000    -0.2539     3.8473     3.8473     0.0000
 20 H      0.8812     1.0000     0.1188     0.9894     0.9894    -0.0000
 21 H      0.9052     1.0000     0.0948     0.9840     0.9840    -0.0000
 22 H      0.9059     1.0000     0.0941     0.9837     0.9837     0.0000
 23 H      0.8947     1.0000     0.1053     0.9850     0.9850     0.0000
 24 H      0.8941     1.0000     0.1059     0.9760     0.9760     0.0000
 25 H      0.8698     1.0000     0.1302     0.9806     0.9806    -0.0000
 26 H      0.8746     1.0000     0.1254     0.9819     0.9819    -0.0000
 27 H      0.8979     1.0000     0.1021     0.9859     0.9859    -0.0000
 28 H      0.8006     1.0000     0.1994     1.0214     1.0214    -0.0000
 29 H      0.8057     1.0000     0.1943     1.0178     1.0178    -0.0000
 30 H      0.8372     1.0000     0.1628     1.0015     1.0015     0.0000
 31 H      0.8391     1.0000     0.1609     0.9885     0.9885     0.0000
 32 H      0.8405     1.0000     0.1595     0.9773     0.9773    -0.0000
 33 H      0.8725     1.0000     0.1275     0.9924     0.9924    -0.0000
 34 H      0.7602     1.0000     0.2398     1.0114     1.0114     0.0000
 35 H      0.8356     1.0000     0.1644     0.9899     0.9899    -0.0000

  Mayer bond orders larger than 0.100000
B(  0-C ,  1-C ) :   0.9654 B(  0-C , 20-H ) :   0.9742 B(  0-C , 21-H ) :   0.9761 
B(  0-C , 22-H ) :   0.9767 B(  1-C ,  2-O ) :   0.8939 B(  1-C , 23-H ) :   0.9768 
B(  1-C , 24-H ) :   0.9840 B(  2-O ,  3-C ) :   1.1458 B(  3-C ,  4-O ) :   1.9535 
B(  3-C ,  5-C ) :   1.0509 B(  5-C ,  6-C ) :   1.6367 B(  5-C , 12-C ) :   0.9620 
B(  6-C ,  7-C ) :   0.9588 B(  6-C ,  8-N ) :   1.1174 B(  7-C , 25-H ) :   0.9640 
B(  7-C , 26-H ) :   0.9623 B(  7-C , 27-H ) :   0.9910 B(  8-N ,  9-C ) :   1.1809 
B(  8-N , 28-H ) :   0.9477 B(  9-C , 10-S ) :   1.6156 B(  9-C , 11-N ) :   1.3038 
B( 11-N , 12-C ) :   0.9803 B( 11-N , 29-H ) :   0.9524 B( 12-C , 13-C ) :   0.9642 
B( 12-C , 30-H ) :   0.9933 B( 13-C , 14-C ) :   1.3784 B( 13-C , 19-C ) :   1.3668 
B( 14-C , 15-C ) :   1.3872 B( 14-C , 31-H ) :   0.9642 B( 15-C , 16-C ) :   1.3661 
B( 15-C , 32-H ) :   0.9715 B( 16-C , 17-C ) :   1.3299 B( 16-C , 33-H ) :   0.9862 
B( 17-C , 18-O ) :   1.1092 B( 17-C , 19-C ) :   1.3746 B( 18-O , 34-H ) :   0.9808 
B( 19-C , 35-H ) :   0.9572 

-------
TIMINGS
-------

Total SCF time: 0 days 2 hours 30 min 10 sec 

Total time                  ....    9010.497 sec
Sum of individual times     ....    9001.024 sec  ( 99.9%)

Fock matrix formation       ....    8976.244 sec  ( 99.6%)
Diagonalization             ....       2.005 sec  (  0.0%)
Density matrix formation    ....       0.307 sec  (  0.0%)
Population analysis         ....       0.520 sec  (  0.0%)
Initial guess               ....       7.281 sec  (  0.1%)
Orbital Transformation      ....       0.000 sec  (  0.0%)
Orbital Orthonormalization  ....       0.000 sec  (  0.0%)
DIIS solution               ....       9.112 sec  (  0.1%)
SOSCF solution              ....       3.034 sec  (  0.0%)

------------------------------------------------------------------------------
                                ORCA  MP2 
------------------------------------------------------------------------------

Freezing NCore=48 chemical core electrons

-------------
RI-MP2 ENERGY
-------------
Dimension of the basis                    ...  828
Memory devoted to MP2                     ...  256 MB   
Data format for buffers                   ... DOUBLE
Compression type for matrix containers    ... UNCOMPRESSED
Overall scaling of the MP2 energy         ...   1.000e+00
Calculating two index integrals           ... done (    0.062 sec)
Cholesky decomposition of V**-1           ... done (    0.852 sec)

-----------------
RI-TRANSFORMATION (AUX index driven)
-----------------

Dimension of the orbital-basis         ... 828
Dimension of the aux-basis             ... 2141
Transformation of internal/external MOs...   24-  76 to   77- 827
Number Format for Storage              ... Double (8 Byte)
Integral mode                          ... Direct

First Phase: integral generation and transformation of MO indices
  Aux angular momentum 0               ... done (    7.904 sec)
  Aux angular momentum 1               ... done (   12.512 sec)
  Aux angular momentum 2               ... done (   15.927 sec)
  Aux angular momentum 3               ... done (   12.947 sec)
  Aux angular momentum 4               ... done (    4.540 sec)
Closing buffer VIA ( 0.63 GB; CompressionRatio= 1.00)
  Phase 1 completed in    55.184 sec
Second Phase: sorting and transformation of aux index

IA-Transformation
Memory available                       ... 167 MB 
Max. # MO pairs treated in a batch     ... 12    
# of internal orbitals                 ... 53
# batches for internal orbitals        ... 5
Closing buffer IAV ( 0.63 GB; CompressionRatio= 1.00)
(ia|v) transformation done in    70.544 sec

  Phase 2 completed in    70.607 sec
RI-Integral transformation completed in   125.908 sec
Opening buffers                              ... done

Starting loop over batches of integrals:

Operator 0  - window                       ... ( 24- 76)x( 77-827)
Operator 0  - Memory available             ...   256 MB
Operator 0  - Memory needed per MO         ...  12.3 MB
Operator 0  - Number of orbitals per batch ... 13
Operator 0  - Number of batches            ... 5

OPERATOR  0   PASS   0:  MOs    24 ...   36
  Reading integrals       ... ok
  Internal MO  26
  Internal MO  29
  Internal MO  32
  Internal MO  35
OPERATOR  0   PASS   1:  MOs    37 ...   49
  Reading integrals       ... ok
  Internal MO  38
  Internal MO  41
  Internal MO  44
  Internal MO  47
OPERATOR  0   PASS   2:  MOs    50 ...   62
  Reading integrals       ... ok
  Internal MO  50
  Internal MO  53
  Internal MO  56
  Internal MO  59
  Internal MO  62
OPERATOR  0   PASS   3:  MOs    63 ...   75
  Reading integrals       ... ok
  Internal MO  65
  Internal MO  68
  Internal MO  71
  Internal MO  74
OPERATOR  0   PASS   4:  MOs    76 ...   76
  Reading integrals       ... ok
Time spent in pair loops =   334.202 sec
Deleting buffer (Ka|jb)[aa] ...done

-----------------------------------------------
 RI-MP2 CORRELATION ENERGY:     -3.531074320 Eh
-----------------------------------------------


-------
TIMINGS
-------

Total time                :  462.133 sec
Integral trafo            :  125.927 sec ( 27.2%)
I/O of integrals          :   13.274 sec (  2.9%)
K(i,j) Operators          :  104.757 sec ( 22.7%)
T(i,j) pair energies      :    6.292 sec (  1.4%)
V-calculation             :    0.062 sec (  0.0%)
V**(-1/2)                 :    0.852 sec (  0.2%)
Gamma(ia|P)               :    0.000 sec (  0.0%)
Gamma-Trafo               :    0.000 sec (  0.0%)
D(virtual)                :    0.000 sec (  0.0%)
D(internal)               :    0.000 sec (  0.0%)
W(virtual)                :    0.000 sec (  0.0%)
W(internal)               :    0.000 sec (  0.0%)
L(virtual)                :    0.000 sec (  0.0%)
L(internal)               :    0.000 sec (  0.0%)
G(D)                      :    0.000 sec (  0.0%)
G(Z)                      :    0.000 sec (  0.0%)
Z-Vector Solution         :    0.000 sec (  0.0%)
3-Index Derivative        :    0.000 sec (  0.0%)
2-Index Derivative        :    0.000 sec (  0.0%)
Separable Gradient        :    0.000 sec (  0.0%)


---------------------------------------
MP2 TOTAL ENERGY:    -1274.341872601 Eh
---------------------------------------

-------------------------   --------------------
FINAL SINGLE POINT ENERGY     -1274.341872600590
-------------------------   --------------------


                            ***************************************
                            *     ORCA property calculations      *
                            ***************************************


  WARNING: The energy has been calculated at the MP2 level but the densities
           used in the property calculations are still SCF densities
           MP2 response densities have not been calculated 
           use %mp2 Density relaxed end
           or  %mp2 Density unrelaxed end

                                    ---------------------
                                    Active property flags
                                    ---------------------
   (+) Dipole Moment


------------------------------------------------------------------------------
                       ORCA ELECTRIC PROPERTIES CALCULATION
------------------------------------------------------------------------------

Dipole Moment Calculation                       ... on
Quadrupole Moment Calculation                   ... off
Polarizability Calculation                      ... off
GBWName                                         ... G2_CONFS/Conf5.orca.gbw
Electron density file                           ... G2_CONFS/Conf5.orca.scfp
The origin for moment calculation is the CENTER OF MASS  = (32.886460, 31.492807 35.497356)

-------------
DIPOLE MOMENT
-------------
                                X             Y             Z
Electronic contribution:     10.14524       9.85409      11.15715
Nuclear contribution   :    -11.67033     -10.93818     -12.25903
                        -----------------------------------------
Total Dipole Moment    :     -1.52509      -1.08409      -1.10188
                        -----------------------------------------
Magnitude (a.u.)       :      2.17147
Magnitude (Debye)      :      5.51944



--------------------
Rotational spectrum 
--------------------
 
Rotational constants in cm-1:     0.010575     0.008688     0.005593 
Rotational constants in MHz :   317.018186   260.448161   167.678193 

 Dipole components along the rotational axes: 
x,y,z [a.u.] :    -1.788572    -0.939981     0.795443 
x,y,z [Debye]:    -4.546190    -2.389242     2.021855 

 

Timings for individual modules:

Sum of individual times         ...     9479.889 sec (= 157.998 min)
GTO integral calculation        ...        4.570 sec (=   0.076 min)   0.0 %
SCF iterations                  ...     9012.423 sec (= 150.207 min)  95.1 %
MP2 module                      ...      462.896 sec (=   7.715 min)   4.9 %
                             ****ORCA TERMINATED NORMALLY****
TOTAL RUN TIME: 0 days 2 hours 38 minutes 1 seconds 759 msec
