
                                 *****************
                                 * O   R   C   A *
                                 *****************

           --- An Ab Initio, DFT and Semiempirical electronic structure package ---

                  #######################################################
                  #                        -***-                        #
                  #          Department of theory and spectroscopy      #
                  #               Directorship: Frank Neese             #
                  #        Max Planck Institute fuer Kohlenforschung    #
                  #                Kaiser Wilhelm Platz 1               #
                  #                 D-45470 Muelheim/Ruhr               #
                  #                      Germany                        #
                  #                                                     #
                  #                  All rights reserved                #
                  #                        -***-                        #
                  #######################################################


                         Program Version 4.2.0 -  RELEASE  -


 With contributions from (in alphabetic order):
   Daniel Aravena         : Magnetic Suceptibility
   Michael Atanasov       : Ab Initio Ligand Field Theory (pilot matlab implementation)
   Alexander A. Auer      : GIAO ZORA, VPT2
   Ute Becker             : Parallelization
   Giovanni Bistoni       : ED, misc. LED, open-shell LED, HFLED
   Martin Brehm           : Molecular dynamics
   Dmytro Bykov           : SCF Hessian
   Vijay G. Chilkuri      : MRCI spin determinant printing, contributions to CSF-ICE
   Dipayan Datta          : RHF DLPNO-CCSD density
   Achintya Kumar Dutta   : EOM-CC, STEOM-CC
   Dmitry Ganyushin       : Spin-Orbit,Spin-Spin,Magnetic field MRCI
   Miquel Garcia          : C-PCM Hessian, Gaussian charge scheme
   Yang Guo               : DLPNO-NEVPT2, CIM, IAO-localization
   Andreas Hansen         : Spin unrestricted coupled pair/coupled cluster methods
   Benjamin Helmich-Paris : CASSCF linear response (MC-RPA)
   Lee Huntington         : MR-EOM, pCC
   Robert Izsak           : Overlap fitted RIJCOSX, COSX-SCS-MP3, EOM
   Christian Kollmar      : KDIIS, OOCD, Brueckner-CCSD(T), CCSD density
   Simone Kossmann        : Meta GGA functionals, TD-DFT gradient, OOMP2, MP2 Hessian
   Martin Krupicka        : AUTO-CI
   Lucas Lang             : DCDCAS
   Dagmar Lenk            : GEPOL surface, SMD
   Dimitrios Liakos       : Extrapolation schemes; Compound Job, initial MDCI parallelization
   Dimitrios Manganas     : Further ROCIS development; embedding schemes
   Dimitrios Pantazis     : SARC Basis sets
   Taras Petrenko         : DFT Hessian,TD-DFT gradient, ASA, ECA, R-Raman, ABS, FL, XAS/XES, NRVS
   Peter Pinski           : DLPNO-MP2, DLPNO-MP2 Gradient
   Christoph Reimann      : Effective Core Potentials
   Marius Retegan         : Local ZFS, SOC
   Christoph Riplinger    : Optimizer, TS searches, QM/MM, DLPNO-CCSD(T), (RO)-DLPNO pert. Triples
   Tobias Risthaus        : Range-separated hybrids, TD-DFT gradient, RPA, STAB
   Michael Roemelt        : Original ROCIS implementation
   Masaaki Saitow         : Open-shell DLPNO-CCSD energy and density
   Barbara Sandhoefer     : DKH picture change effects
   Avijit Sen             : IP-ROCIS
   Kantharuban Sivalingam : CASSCF convergence, NEVPT2, FIC-MRCI
   Bernardo de Souza      : ESD, SOC TD-DFT
   Georgi Stoychev        : AutoAux, RI-MP2 NMR
   Willem Van den Heuvel  : Paramagnetic NMR
   Boris Wezisla          : Elementary symmetry handling
   Frank Wennmohs         : Technical directorship


 We gratefully acknowledge several colleagues who have allowed us to
 interface, adapt or use parts of their codes:
   Stefan Grimme, W. Hujo, H. Kruse,             : VdW corrections, initial TS optimization,
                  C. Bannwarth                     DFT functionals, gCP, sTDA/sTD-DF
   Ed Valeev, F. Pavosevic, A. Kumar             : LibInt (2-el integral package), F12 methods
   Garnet Chan, S. Sharma, J. Yang, R. Olivares  : DMRG
   Ulf Ekstrom                                   : XCFun DFT Library
   Mihaly Kallay                                 : mrcc  (arbitrary order and MRCC methods)
   Andreas Klamt, Michael Diedenhofen            : otool_cosmo (COSMO solvation model)
   Jiri Pittner, Ondrej Demel                    : Mk-CCSD
   Frank Weinhold                                : gennbo (NPA and NBO analysis)
   Christopher J. Cramer and Donald G. Truhlar   : smd solvation model
   Lars Goerigk                                  : TD-DFT with DH, B97 family of functionals
   V. Asgeirsson, H. Jonsson                     : NEB implementation
   FAccTs GmbH                                   : IRC, NEB, NEB-TS, Multilevel, MM, QM/MM, CI optimization
   S Lehtola, MJT Oliveira, MAL Marques          : LibXC Library


 Your calculation uses the libint2 library for the computation of 2-el integrals
 For citations please refer to: http://libint.valeyev.net

 Your ORCA version has been built with support for libXC version: 4.2.3
 For citations please refer to: https://tddft.org/programs/libxc/

 This ORCA versions uses:
   CBLAS   interface :  Fast vector & matrix operations
   LAPACKE interface :  Fast linear algebra routines
   SCALAPACK package :  Parallel linear algebra routines


----- Orbital basis set information -----
Your calculation utilizes the basis: cc-pVTZ 
       H, B-Ne : Obtained from the ccRepo (grant-hill.group.shef.ac.uk/ccrepo) Feb. 2017
                 T. H. Dunning, Jr., J. Chem. Phys. 90, 1007 (1989)
            He : Obtained from the ccRepo (grant-hill.group.shef.ac.uk/ccrepo) Feb. 2017
                 D. E. Woon, T. H. Dunning, Jr., J. Chem. Phys. 100, 2975 (1994)
  Li-Be, Na-Mg : Obtained from the ccRepo (grant-hill.group.shef.ac.uk/ccrepo) Feb. 2017
                 B. P. Prascher, D. E. Woon, K. A. Peterson, T. H. Dunning, Jr., A. K. Wilson, Theor. Chem. Acc. 128, 69 (2011)
         Al-Ar : Obtained from the ccRepo (grant-hill.group.shef.ac.uk/ccrepo) Feb. 2017
                 D. E. Woon, T. H. Dunning, Jr., J. Chem. Phys. 98, 1358 (1993)
            Ca : Obtained from the Peterson Research Group Website (tyr0.chem.wsu.edu/~kipeters) Feb. 2017
                 J. Koput, K. A. Peterson, J. Phys. Chem. 106, 9595 (2002)
         Sc-Zn : Obtained from the ccRepo (grant-hill.group.shef.ac.uk/ccrepo) Feb. 2017
                 N. B. Balabanov, K. A. Peterson, J. Chem. Phys. 123, 064107 (2005)
                 N. B. Balabanov, K. A. Peterson, J. Chem. Phys. 125, 074110 (2006)
         Ga-Kr : Obtained from the ccRepo (grant-hill.group.shef.ac.uk/ccrepo) Feb. 2017
                 A. K. Wilson, D. E. Woon, K. A. Peterson, T. H. Dunning, Jr., J. Chem. Phys. 110, 7667 (1999)
             Y : Obtained from the ccRepo (grant-hill.group.shef.ac.uk/ccrepo) Feb. 2017
                 K. A. Peterson, D. Figgen, M. Dolg, H. Stoll, J. Chem. Phys. 126, 124101 (2007)
        Ag, Au : Obtained from the Peterson Research Group Website (tyr0.chem.wsu.edu/~kipeters) Feb. 2017
                 K. A. Peterson, C. Puzzarini, Theor. Chem. Acc. 114, 283 (2005)

----- AuxC basis set information -----
Your calculation utilizes the auxiliary basis: cc-pVTZ/C 
  Obtained from the EMSL Basis Set Exchange (bse.pnl.gov) Feb. 2017
  H-He, B-F, Al-Ar, Ga-Kr : F. Weigend, A. Kohn, C. Hattig, J. Chem. Phys. 116, 3175 (2002)
             Li-Be, Na-Mg : C. Haettig, Phys. Chem. Chem. Phys. 7, 59 (2005)
                       Ne : C. Haettig, Phys. Chem. Chem. Phys. 7, 59 (2005)
                            F. Weigend, A. Kohn, C. Hattig, J. Chem. Phys. 116, 3175 (2002)
                    Sc-Zn : J. G. Hill, J. A. Platts, J. Chem. Phys. 128, 044104 (2008)

================================================================================
                                        WARNINGS
                       Please study these warnings very carefully!
================================================================================


WARNING: No MP2 level density has been requested!
         To caclulate MP2 level properties use
         %mp2 Density relaxed end
         or
         %mp2 Density unrelaxed end

WARNING: Post HF methods need fully converged wavefunctions
  ===> : Setting SCFConvForced true
         You can overwrite this default with %scf ConvForced false 


INFO   : the flag for use of LIBINT has been found!

================================================================================
                                       INPUT FILE
================================================================================
NAME = G2_CONFS/Conf622.orca
|  1> ! ri-mp2 cc-pvtz cc-pvtz/c TightSCF  NoKeepInts
|  2> 
|  3> %scf
|  4>   MaxCore 4096
|  5> end
|  6> *xyz  0  1
|  7>     C       15.7181292   13.8471416   14.9207735
|  8>     C       15.0183098   15.0012970   15.6673901
|  9>     O       15.8350811   15.8247141   16.5333381
| 10>     C       17.1981423   15.8030118   16.6823266
| 11>     O       17.9118666   14.8461167   16.4366837
| 12>     C       17.5988822   16.8279451   17.6837707
| 13>     C       17.1766865   18.1172228   17.5854930
| 14>     C       16.3801787   18.7015610   16.4256460
| 15>     N       17.8491546   19.1165184   18.2984642
| 16>     C       18.8984781   18.9092756   19.1574526
| 17>     S       19.6673989   20.1846361   19.8806578
| 18>     N       19.2700422   17.6001610   19.3811993
| 19>     C       18.7374074   16.4389805   18.6243520
| 20>     C       17.9606583   15.9076056   19.8789929
| 21>     C       18.1343488   14.5203281   20.1396924
| 22>     C       17.4393130   13.8410795   21.1485902
| 23>     C       16.5262821   14.5413236   21.9400794
| 24>     C       16.3126038   15.9053258   21.7008954
| 25>     O       15.3995380   16.5553087   22.4648603
| 26>     C       17.0050196   16.5858027   20.6790612
| 27>     H       16.4221895   14.2681846   14.1876922
| 28>     H       14.9793736   13.2689630   14.3537203
| 29>     H       16.2613648   13.1640892   15.5810918
| 30>     H       14.3529408   15.5884520   15.0223801
| 31>     H       14.3629186   14.4797291   16.3781341
| 32>     H       15.3080158   18.5104647   16.5375968
| 33>     H       16.7017020   18.2688190   15.4675031
| 34>     H       16.5163524   19.7868502   16.3189008
| 35>     H       17.6467203   20.0851304   18.1002427
| 36>     H       20.0290161   17.4809571   20.0383812
| 37>     H       19.2926684   15.5161897   18.4392112
| 38>     H       18.8001387   13.9201579   19.5242923
| 39>     H       17.5998582   12.7730774   21.2970294
| 40>     H       15.9802704   14.0166852   22.7190325
| 41>     H       15.0767883   15.9168568   23.1217868
| 42>     H       16.7791584   17.6320319   20.5172794
| 43> *
| 44> 
| 45>                          ****END OF INPUT****
================================================================================

                       ****************************
                       * Single Point Calculation *
                       ****************************

---------------------------------
CARTESIAN COORDINATES (ANGSTROEM)
---------------------------------
  C     15.718129   13.847142   14.920773
  C     15.018310   15.001297   15.667390
  O     15.835081   15.824714   16.533338
  C     17.198142   15.803012   16.682327
  O     17.911867   14.846117   16.436684
  C     17.598882   16.827945   17.683771
  C     17.176686   18.117223   17.585493
  C     16.380179   18.701561   16.425646
  N     17.849155   19.116518   18.298464
  C     18.898478   18.909276   19.157453
  S     19.667399   20.184636   19.880658
  N     19.270042   17.600161   19.381199
  C     18.737407   16.438980   18.624352
  C     17.960658   15.907606   19.878993
  C     18.134349   14.520328   20.139692
  C     17.439313   13.841079   21.148590
  C     16.526282   14.541324   21.940079
  C     16.312604   15.905326   21.700895
  O     15.399538   16.555309   22.464860
  C     17.005020   16.585803   20.679061
  H     16.422190   14.268185   14.187692
  H     14.979374   13.268963   14.353720
  H     16.261365   13.164089   15.581092
  H     14.352941   15.588452   15.022380
  H     14.362919   14.479729   16.378134
  H     15.308016   18.510465   16.537597
  H     16.701702   18.268819   15.467503
  H     16.516352   19.786850   16.318901
  H     17.646720   20.085130   18.100243
  H     20.029016   17.480957   20.038381
  H     19.292668   15.516190   18.439211
  H     18.800139   13.920158   19.524292
  H     17.599858   12.773077   21.297029
  H     15.980270   14.016685   22.719032
  H     15.076788   15.916857   23.121787
  H     16.779158   17.632032   20.517279

----------------------------
CARTESIAN COORDINATES (A.U.)
----------------------------
  NO LB      ZA    FRAG     MASS         X           Y           Z
   0 C     6.0000    0    12.011   29.702960   26.167305   28.196176
   1 C     6.0000    0    12.011   28.380493   28.348343   29.607077
   2 O     8.0000    0    15.999   29.923967   29.904376   31.243481
   3 C     6.0000    0    12.011   32.499779   29.863364   31.525029
   4 O     8.0000    0    15.999   33.848522   28.055095   31.060831
   5 C     6.0000    0    12.011   33.257068   31.800208   33.417484
   6 C     6.0000    0    12.011   32.459233   34.236589   33.231766
   7 C     6.0000    0    12.011   30.954052   35.340829   31.039973
   8 N     7.0000    0    14.007   33.730014   36.124984   34.579086
   9 C     6.0000    0    12.011   35.712948   35.733352   36.202339
  10 S    16.0000    0    32.060   37.165998   38.143434   37.568999
  11 N     7.0000    0    14.007   36.415102   33.259484   36.625159
  12 C     6.0000    0    12.011   35.408568   31.065171   35.194925
  13 C     6.0000    0    12.011   33.940725   30.061018   37.565852
  14 C     6.0000    0    12.011   34.268953   27.439443   38.058503
  15 C     6.0000    0    12.011   32.955526   26.155850   39.965044
  16 C     6.0000    0    12.011   31.230147   27.479119   41.460741
  17 C     6.0000    0    12.011   30.826354   30.056710   41.008749
  18 O     8.0000    0    15.999   29.100909   31.285000   42.452434
  19 C     6.0000    0    12.011   32.134830   31.342625   39.077762
  20 H     1.0000    0     1.008   31.033441   26.962961   26.810853
  21 H     1.0000    0     1.008   28.306914   25.074706   27.124600
  22 H     1.0000    0     1.008   30.729526   24.876523   29.443996
  23 H     1.0000    0     1.008   27.123127   29.457905   28.388184
  24 H     1.0000    0     1.008   27.141983   27.362722   30.950188
  25 H     1.0000    0     1.008   28.927958   34.979709   31.251529
  26 H     1.0000    0     1.008   31.561643   34.523065   29.229345
  27 H     1.0000    0     1.008   31.211383   37.391728   30.838253
  28 H     1.0000    0     1.008   33.347469   37.955396   34.204502
  29 H     1.0000    0     1.008   37.849355   33.034221   37.867053
  30 H     1.0000    0     1.008   36.457860   29.321349   34.845059
  31 H     1.0000    0     1.008   35.527113   26.305286   36.895565
  32 H     1.0000    0     1.008   33.258912   24.137618   40.245553
  33 H     1.0000    0     1.008   30.198335   26.487696   42.932749
  34 H     1.0000    0     1.008   28.491001   30.078500   43.693845
  35 H     1.0000    0     1.008   31.708014   33.319711   38.772039

--------------------------------
INTERNAL COORDINATES (ANGSTROEM)
--------------------------------
 C      0   0   0     0.000000000000     0.00000000     0.00000000
 C      1   0   0     1.542484433426     0.00000000     0.00000000
 O      2   1   0     1.447410451731   117.33770438     0.00000000
 C      3   2   1     1.371351303606   128.08884767     7.29017264
 O      4   3   2     1.218766197076   124.93172978   336.11692464
 C      4   3   2     1.487941874646   109.26375489   180.00000296
 C      6   4   3     1.360200243763   121.37819668   308.63045610
 C      7   6   4     1.523522520624   125.50866855   354.19993189
 N      7   6   4     1.399690313507   119.39225023   197.74536365
 C      9   7   6     1.371820125650   125.35178253   357.27542411
 S     10   9   7     1.655538994690   120.82528658   176.60224708
 N     10   9   7     1.379095175143   116.81321341   356.57514845
 C     12  10   9     1.484876364977   124.26233329     8.58026248
 C     13  12  10     1.568382044227    91.99749845   248.82594011
 C     14  13  12     1.422206553598   114.62243695   227.73485436
 C     15  14  13     1.400831251339   122.98407560   185.26758353
 C     16  15  14     1.396575231649   119.30234239     0.28405173
 C     17  16  15     1.401202841616   119.40926085     0.67353545
 O     18  17  16     1.356395699586   118.22836572   178.60267190
 C     18  17  16     1.409479898336   121.25217047   359.79042998
 H      1   2   3     1.100175579758   109.05736850   293.15357772
 H      1   2   3     1.096175014156   109.83366227   176.47261253
 H      1   2   3     1.094388302006   113.58855023    54.75504568
 H      2   1   3     1.097043663801   113.02010353   134.11509208
 H      2   1   3     1.098511598885   103.21431558   247.94926538
 H      8   7   6     1.094798639765   111.54318744    83.77187057
 H      8   7   6     1.099400149094   111.07635620   323.39674744
 H      8   7   6     1.098995205600   112.82547609   205.12760535
 H      9   7   6     1.009198006054   119.26226341   169.06342134
 H     12  10   9     1.011008902208   114.81216422   181.62468143
 H     13  12  10     1.092764729716   124.36455676   150.40906388
 H     15  14  13     1.087289171743   120.62813148     2.85045285
 H     16  15  14     1.090154779352   120.00228792   179.13719599
 H     17  16  15     1.086343481267   119.52595303   179.58245561
 H     19  18  17     0.971257238771   106.83655451     3.56366947
 H     20  18  17     1.082488878192   118.19431285   178.12686936

---------------------------
INTERNAL COORDINATES (A.U.)
---------------------------
 C      0   0   0     0.000000000000     0.00000000     0.00000000
 C      1   0   0     2.914873145012     0.00000000     0.00000000
 O      2   1   0     2.735209357147   117.33770438     0.00000000
 C      3   2   1     2.591478397212   128.08884767     7.29017264
 O      4   3   2     2.303134333754   124.93172978   336.11692464
 C      4   3   2     2.811802646275   109.26375489   180.00000296
 C      6   4   3     2.570405948005   121.37819668   308.63045610
 C      7   6   4     2.879040322841   125.50866855   354.19993189
 N      7   6   4     2.645031364831   119.39225023   197.74536365
 C      9   7   6     2.592364342480   125.35178253   357.27542411
 S     10   9   7     3.128515303992   120.82528658   176.60224708
 N     10   9   7     2.606112193633   116.81321341   356.57514845
 C     12  10   9     2.806009672540   124.26233329     8.58026248
 C     13  12  10     2.963812536949    91.99749845   248.82594011
 C     14  13  12     2.687580892168   114.62243695   227.73485436
 C     15  14  13     2.647187424869   122.98407560   185.26758353
 C     16  15  14     2.639144713235   119.30234239     0.28405173
 C     17  16  15     2.647889628726   119.40926085     0.67353545
 O     18  17  16     2.563216401445   118.22836572   178.60267190
 C     18  17  16     2.663530999122   121.25217047   359.79042998
 H      1   2   3     2.079030544970   109.05736850   293.15357772
 H      1   2   3     2.071470571602   109.83366227   176.47261253
 H      1   2   3     2.068094174959   113.58855023    54.75504568
 H      2   1   3     2.073112081538   113.02010353   134.11509208
 H      2   1   3     2.075886076828   103.21431558   247.94926538
 H      8   7   6     2.068869600945   111.54318744    83.77187057
 H      8   7   6     2.077565193379   111.07635620   323.39674744
 H      8   7   6     2.076799961076   112.82547609   205.12760535
 H      9   7   6     1.907107846341   119.26226341   169.06342134
 H     12  10   9     1.910529944130   114.81216422   181.62468143
 H     13  12  10     2.065026067971   124.36455676   150.40906388
 H     15  14  13     2.054678762973   120.62813148     2.85045285
 H     16  15  14     2.060093976561   120.00228792   179.13719599
 H     17  16  15     2.052891666965   119.52595303   179.58245561
 H     19  18  17     1.835410186867   106.83655451     3.56366947
 H     20  18  17     2.045607522798   118.19431285   178.12686936

---------------------
BASIS SET INFORMATION
---------------------
There are 5 groups of distinct atoms

 Group   1 Type C   : 18s5p2d1f contracted to 4s3p2d1f pattern {8811/311/11/1}
 Group   2 Type O   : 18s5p2d1f contracted to 4s3p2d1f pattern {8811/311/11/1}
 Group   3 Type N   : 18s5p2d1f contracted to 4s3p2d1f pattern {8811/311/11/1}
 Group   4 Type S   : 41s16p2d1f contracted to 5s4p2d1f pattern {13131311/7711/11/1}
 Group   5 Type H   : 5s2p1d contracted to 3s2p1d pattern {311/11/1}

Atom   0C    basis set group =>   1
Atom   1C    basis set group =>   1
Atom   2O    basis set group =>   2
Atom   3C    basis set group =>   1
Atom   4O    basis set group =>   2
Atom   5C    basis set group =>   1
Atom   6C    basis set group =>   1
Atom   7C    basis set group =>   1
Atom   8N    basis set group =>   3
Atom   9C    basis set group =>   1
Atom  10S    basis set group =>   4
Atom  11N    basis set group =>   3
Atom  12C    basis set group =>   1
Atom  13C    basis set group =>   1
Atom  14C    basis set group =>   1
Atom  15C    basis set group =>   1
Atom  16C    basis set group =>   1
Atom  17C    basis set group =>   1
Atom  18O    basis set group =>   2
Atom  19C    basis set group =>   1
Atom  20H    basis set group =>   5
Atom  21H    basis set group =>   5
Atom  22H    basis set group =>   5
Atom  23H    basis set group =>   5
Atom  24H    basis set group =>   5
Atom  25H    basis set group =>   5
Atom  26H    basis set group =>   5
Atom  27H    basis set group =>   5
Atom  28H    basis set group =>   5
Atom  29H    basis set group =>   5
Atom  30H    basis set group =>   5
Atom  31H    basis set group =>   5
Atom  32H    basis set group =>   5
Atom  33H    basis set group =>   5
Atom  34H    basis set group =>   5
Atom  35H    basis set group =>   5
---------------------------------
AUXILIARY/C BASIS SET INFORMATION
---------------------------------
There are 5 groups of distinct atoms

 Group   1 Type C   : 8s6p5d3f1g contracted to 8s6p5d3f1g pattern {11111111/111111/11111/111/1}
 Group   2 Type O   : 8s6p5d3f1g contracted to 8s6p5d3f1g pattern {11111111/111111/11111/111/1}
 Group   3 Type N   : 8s6p5d3f1g contracted to 8s6p5d3f1g pattern {11111111/111111/11111/111/1}
 Group   4 Type S   : 10s8p7d5f2g contracted to 10s8p7d5f2g pattern {1111111111/11111111/1111111/11111/11}
 Group   5 Type H   : 4s3p2d1f contracted to 4s3p2d1f pattern {1111/111/11/1}

Atom   0C    basis set group =>   1
Atom   1C    basis set group =>   1
Atom   2O    basis set group =>   2
Atom   3C    basis set group =>   1
Atom   4O    basis set group =>   2
Atom   5C    basis set group =>   1
Atom   6C    basis set group =>   1
Atom   7C    basis set group =>   1
Atom   8N    basis set group =>   3
Atom   9C    basis set group =>   1
Atom  10S    basis set group =>   4
Atom  11N    basis set group =>   3
Atom  12C    basis set group =>   1
Atom  13C    basis set group =>   1
Atom  14C    basis set group =>   1
Atom  15C    basis set group =>   1
Atom  16C    basis set group =>   1
Atom  17C    basis set group =>   1
Atom  18O    basis set group =>   2
Atom  19C    basis set group =>   1
Atom  20H    basis set group =>   5
Atom  21H    basis set group =>   5
Atom  22H    basis set group =>   5
Atom  23H    basis set group =>   5
Atom  24H    basis set group =>   5
Atom  25H    basis set group =>   5
Atom  26H    basis set group =>   5
Atom  27H    basis set group =>   5
Atom  28H    basis set group =>   5
Atom  29H    basis set group =>   5
Atom  30H    basis set group =>   5
Atom  31H    basis set group =>   5
Atom  32H    basis set group =>   5
Atom  33H    basis set group =>   5
Atom  34H    basis set group =>   5
Atom  35H    basis set group =>   5
------------------------------------------------------------------------------
                           ORCA GTO INTEGRAL CALCULATION
------------------------------------------------------------------------------

                         BASIS SET STATISTICS AND STARTUP INFO

 # of primitive gaussian shells          ...  682
 # of primitive gaussian functions       ... 1312
 # of contracted shells                  ...  298
 # of contracted basis functions         ...  828
 Highest angular momentum                ...    3
 Maximum contraction depth               ...   13
 Integral package used                   ... LIBINT
 Integral threshhold            Thresh   ...  2.500e-11
 Primitive cut-off              TCut     ...  2.500e-12


------------------------------ INTEGRAL EVALUATION ----------------------------


 * One electron integrals 
 Pre-screening matrix                    ... done
 Shell pair data                         ... done (   0.013 sec)

-------------------------------------------------------------------------------
                                 ORCA SCF
-------------------------------------------------------------------------------

------------
SCF SETTINGS
------------
Hamiltonian:
 Ab initio Hamiltonian  Method          .... Hartree-Fock(GTOs)


General Settings:
 Integral files         IntName         .... G2_CONFS/Conf622.orca
 Hartree-Fock type      HFTyp           .... RHF
 Total Charge           Charge          ....    0
 Multiplicity           Mult            ....    1
 Number of Electrons    NEL             ....  154
 Basis Dimension        Dim             ....  828
 Nuclear Repulsion      ENuc            ....   1697.7614559762 Eh

Convergence Acceleration:
 DIIS                   CNVDIIS         .... on
   Start iteration      DIISMaxIt       ....    12
   Startup error        DIISStart       ....  0.200000
   # of expansion vecs  DIISMaxEq       ....     5
   Bias factor          DIISBfac        ....   1.050
   Max. coefficient     DIISMaxC        ....  10.000
 Newton-Raphson         CNVNR           .... off
 SOSCF                  CNVSOSCF        .... on
   Start iteration      SOSCFMaxIt      ....   150
   Startup grad/error   SOSCFStart      ....  0.003300
 Level Shifting         CNVShift        .... on
   Level shift para.    LevelShift      ....    0.2500
   Turn off err/grad.   ShiftErr        ....    0.0010
 Zerner damping         CNVZerner       .... off
 Static damping         CNVDamp         .... on
   Fraction old density DampFac         ....    0.7000
   Max. Damping (<1)    DampMax         ....    0.9800
   Min. Damping (>=0)   DampMin         ....    0.0000
   Turn off err/grad.   DampErr         ....    0.1000
 Fernandez-Rico         CNVRico         .... off

SCF Procedure:
 Maximum # iterations   MaxIter         ....   125
 SCF integral mode      SCFMode         .... Direct
   Integral package                     .... LIBINT
 Reset frequency        DirectResetFreq ....    20
 Integral Threshold     Thresh          ....  2.500e-11 Eh
 Primitive CutOff       TCut            ....  2.500e-12 Eh

Convergence Tolerance:
 Convergence Check Mode ConvCheckMode   .... Total+1el-Energy
 Convergence forced     ConvForced      .... 1
 Energy Change          TolE            ....  1.000e-08 Eh
 1-El. energy change                    ....  1.000e-05 Eh
 Orbital Gradient       TolG            ....  1.000e-05
 Orbital Rotation angle TolX            ....  1.000e-05
 DIIS Error             TolErr          ....  5.000e-07


Diagonalization of the overlap matrix:
Smallest eigenvalue                        ... 3.445e-05
Time for diagonalization                   ...    0.110 sec
Threshold for overlap eigenvalues          ... 1.000e-08
Number of eigenvalues below threshold      ... 0
Time for construction of square roots      ...    0.062 sec
Total time needed                          ...    0.174 sec

-------------------
DFT GRID GENERATION
-------------------

General Integration Accuracy     IntAcc      ...  4.340
Radial Grid Type                 RadialGrid  ... Gauss-Chebyshev
Angular Grid (max. acc.)         AngularGrid ... Lebedev-110
Angular grid pruning method      GridPruning ... 3 (G Style)
Weight generation scheme         WeightScheme... Becke
Basis function cutoff            BFCut       ...    1.0000e-11
Integration weight cutoff        WCut        ...    1.0000e-14
Grids for H and He will be reduced by one unit

# of grid points (after initial pruning)     ...  46246 (   0.0 sec)
# of grid points (after weights+screening)   ...  41278 (   0.3 sec)
nearest neighbour list constructed           ...    0.0 sec
Grid point re-assignment to atoms done       ...    0.0 sec
Grid point division into batches done        ...    0.0 sec
Reduced shell lists constructed in    0.9 sec

Total number of grid points                  ...    41278
Total number of batches                      ...      664
Average number of points per batch           ...       62
Average number of grid points per atom       ...     1147
Average number of shells per batch           ...   145.71 (48.89%)
Average number of basis functions per batch  ...   370.73 (44.77%)
Average number of large shells per batch     ...    93.36 (64.07%)
Average number of large basis fcns per batch ...   241.28 (65.08%)
Maximum spatial batch extension              ...  20.80, 20.20, 19.29 au
Average spatial batch extension              ...   3.54,  3.27,  3.37 au

Time for grid setup =    1.239 sec

------------------------------
INITIAL GUESS: MODEL POTENTIAL
------------------------------
Loading Hartree-Fock densities                     ... done
Calculating cut-offs                               ... done
Setting up the integral package                    ... done
Initializing the effective Hamiltonian             ... done
Starting the Coulomb interaction                   ... done (   3.0 sec)
Reading the grid                                   ... done
Mapping shells                                     ... done
Starting the XC term evaluation                    ... done (   1.2 sec)
Transforming the Hamiltonian                       ... done (   0.0 sec)
Diagonalizing the Hamiltonian                      ... done (   0.1 sec)
Back transforming the eigenvectors                 ... done (   0.0 sec)
Now organizing SCF variables                       ... done
                      ------------------
                      INITIAL GUESS DONE (   5.8 sec)
                      ------------------
--------------
SCF ITERATIONS
--------------
ITER       Energy         Delta-E        Max-DP      RMS-DP      [F,P]     Damp
               ***  Starting incremental Fock matrix formation  ***
  0  -1269.9201523899   0.000000000000 0.04934948  0.00043889  0.3100524 0.7000
  1  -1270.1902277109  -0.270075320969 0.03609957  0.00035331  0.1822840 0.7000
                               ***Turning on DIIS***
  2  -1270.3583124832  -0.168084772299 0.02584756  0.00023665  0.1096990 0.7000
  3  -1272.4996355117  -2.141323028552 0.06314350  0.00050845  0.0829324 0.0000
  4  -1270.6692017882   1.830433723479 0.00736102  0.00009674  0.0071275 0.0000
  5  -1270.7336600859  -0.064458297696 0.00293440  0.00005027  0.0041326 0.0000
                      *** Initiating the SOSCF procedure ***
                           *** Shutting down DIIS ***
                      *** Re-Reading the Fockian *** 
                      *** Removing any level shift *** 
ITER      Energy       Delta-E        Grad      Rot      Max-DP    RMS-DP
  6  -1270.70870750   0.0249525902  0.001731  0.001731  0.001803  0.000026
               *** Restarting incremental Fock matrix formation ***
  7  -1270.72350636  -0.0147988630  0.001002  0.002441  0.001245  0.000017
  8  -1270.72356083  -0.0000544744  0.000487  0.003035  0.001401  0.000019
  9  -1270.72358234  -0.0000215049  0.000137  0.000304  0.000361  0.000005
 10  -1270.72358515  -0.0000028075  0.000057  0.000170  0.000133  0.000002
 11  -1270.72358544  -0.0000002985  0.000018  0.000121  0.000094  0.000001
 12  -1270.72358553  -0.0000000863  0.000010  0.000035  0.000030  0.000000
 13  -1270.72358553  -0.0000000030  0.000003  0.000009  0.000006  0.000000
                  ***Gradient check signals convergence***
              ***Rediagonalizing the Fockian in SOSCF/NRSCF***

               *****************************************************
               *                     SUCCESS                       *
               *           SCF CONVERGED AFTER  14 CYCLES          *
               *****************************************************


----------------
TOTAL SCF ENERGY
----------------

Total Energy       :        -1270.72358553 Eh          -34578.14668 eV

Components:
Nuclear Repulsion  :         1697.76145598 Eh           46198.43790 eV
Electronic Energy  :        -2968.48504150 Eh          -80776.58458 eV
One Electron Energy:        -5116.89697784 Eh         -139237.84548 eV
Two Electron Energy:         2148.41193634 Eh           58461.26090 eV

Virial components:
Potential Energy   :        -2539.62805283 Eh          -69106.79264 eV
Kinetic Energy     :         1268.90446731 Eh           34528.64596 eV
Virial Ratio       :            2.00143361


---------------
SCF CONVERGENCE
---------------

  Last Energy change         ...    7.4556e-09  Tolerance :   1.0000e-08
  Last MAX-Density change    ...    2.7420e-06  Tolerance :   1.0000e-07
  Last RMS-Density change    ...    4.0291e-08  Tolerance :   5.0000e-09
  Last Orbital Gradient      ...    1.5922e-06  Tolerance :   1.0000e-05
  Last Orbital Rotation      ...    4.4266e-06  Tolerance :   1.0000e-05

             **** THE GBW FILE WAS UPDATED (G2_CONFS/Conf622.orca.gbw) ****
             **** DENSITY FILE WAS UPDATED (G2_CONFS/Conf622.orca.scfp) ****
             **** ENERGY FILE WAS UPDATED (G2_CONFS/Conf622.orca.en.tmp) ****
             **** THE GBW FILE WAS UPDATED (G2_CONFS/Conf622.orca.gbw) ****
             **** DENSITY FILE WAS UPDATED (G2_CONFS/Conf622.orca.scfp) ****
----------------
ORBITAL ENERGIES
----------------

  NO   OCC          E(Eh)            E(eV) 
   0   2.0000     -91.888568     -2500.4150 
   1   2.0000     -20.603753      -560.6566 
   2   2.0000     -20.589648      -560.2728 
   3   2.0000     -20.548940      -559.1651 
   4   2.0000     -15.626434      -425.2169 
   5   2.0000     -15.609560      -424.7577 
   6   2.0000     -11.399506      -310.1963 
   7   2.0000     -11.383905      -309.7718 
   8   2.0000     -11.332440      -308.3714 
   9   2.0000     -11.314418      -307.8810 
  10   2.0000     -11.308136      -307.7100 
  11   2.0000     -11.304533      -307.6120 
  12   2.0000     -11.263613      -306.4985 
  13   2.0000     -11.262845      -306.4776 
  14   2.0000     -11.256254      -306.2982 
  15   2.0000     -11.244594      -305.9810 
  16   2.0000     -11.233125      -305.6689 
  17   2.0000     -11.232058      -305.6398 
  18   2.0000     -11.227488      -305.5155 
  19   2.0000     -11.225601      -305.4641 
  20   2.0000      -8.893522      -242.0050 
  21   2.0000      -6.575083      -178.9171 
  22   2.0000      -6.573092      -178.8629 
  23   2.0000      -6.572502      -178.8469 
  24   2.0000      -1.448868       -39.4257 
  25   2.0000      -1.409603       -38.3572 
  26   2.0000      -1.360846       -37.0305 
  27   2.0000      -1.337768       -36.4025 
  28   2.0000      -1.239298       -33.7230 
  29   2.0000      -1.149145       -31.2698 
  30   2.0000      -1.120281       -30.4844 
  31   2.0000      -1.043473       -28.3944 
  32   2.0000      -1.035195       -28.1691 
  33   2.0000      -1.006614       -27.3914 
  34   2.0000      -0.995561       -27.0906 
  35   2.0000      -0.981954       -26.7203 
  36   2.0000      -0.923947       -25.1419 
  37   2.0000      -0.900701       -24.5093 
  38   2.0000      -0.848374       -23.0854 
  39   2.0000      -0.832147       -22.6439 
  40   2.0000      -0.824559       -22.4374 
  41   2.0000      -0.816536       -22.2191 
  42   2.0000      -0.741500       -20.1772 
  43   2.0000      -0.728300       -19.8181 
  44   2.0000      -0.716534       -19.4979 
  45   2.0000      -0.694878       -18.9086 
  46   2.0000      -0.688190       -18.7266 
  47   2.0000      -0.679675       -18.4949 
  48   2.0000      -0.676082       -18.3971 
  49   2.0000      -0.668586       -18.1931 
  50   2.0000      -0.652005       -17.7420 
  51   2.0000      -0.641778       -17.4637 
  52   2.0000      -0.633156       -17.2290 
  53   2.0000      -0.604381       -16.4460 
  54   2.0000      -0.597030       -16.2460 
  55   2.0000      -0.595953       -16.2167 
  56   2.0000      -0.591823       -16.1043 
  57   2.0000      -0.587433       -15.9849 
  58   2.0000      -0.571740       -15.5578 
  59   2.0000      -0.567504       -15.4426 
  60   2.0000      -0.553001       -15.0479 
  61   2.0000      -0.546808       -14.8794 
  62   2.0000      -0.543001       -14.7758 
  63   2.0000      -0.524551       -14.2737 
  64   2.0000      -0.512220       -13.9382 
  65   2.0000      -0.509120       -13.8539 
  66   2.0000      -0.500841       -13.6286 
  67   2.0000      -0.496786       -13.5182 
  68   2.0000      -0.483903       -13.1677 
  69   2.0000      -0.458420       -12.4742 
  70   2.0000      -0.449483       -12.2311 
  71   2.0000      -0.447308       -12.1719 
  72   2.0000      -0.343131        -9.3371 
  73   2.0000      -0.342087        -9.3087 
  74   2.0000      -0.324144        -8.8204 
  75   2.0000      -0.313877        -8.5410 
  76   2.0000      -0.306846        -8.3497 
  77   0.0000       0.068981         1.8771 
  78   0.0000       0.114042         3.1032 
  79   0.0000       0.120110         3.2684 
  80   0.0000       0.136927         3.7260 
  81   0.0000       0.138353         3.7648 
  82   0.0000       0.141648         3.8544 
  83   0.0000       0.151656         4.1268 
  84   0.0000       0.161698         4.4000 
  85   0.0000       0.164959         4.4888 
  86   0.0000       0.168487         4.5848 
  87   0.0000       0.177630         4.8336 
  88   0.0000       0.187413         5.0998 
  89   0.0000       0.193708         5.2710 
  90   0.0000       0.198830         5.4104 
  91   0.0000       0.203831         5.5465 
  92   0.0000       0.210828         5.7369 
  93   0.0000       0.219304         5.9676 
  94   0.0000       0.223311         6.0766 
  95   0.0000       0.232439         6.3250 
  96   0.0000       0.244107         6.6425 
  97   0.0000       0.247417         6.7326 
  98   0.0000       0.252709         6.8766 
  99   0.0000       0.264464         7.1964 
 100   0.0000       0.283294         7.7088 
 101   0.0000       0.300984         8.1902 
 102   0.0000       0.309708         8.4276 
 103   0.0000       0.317503         8.6397 
 104   0.0000       0.327353         8.9077 
 105   0.0000       0.333498         9.0749 
 106   0.0000       0.342815         9.3285 
 107   0.0000       0.352162         9.5828 
 108   0.0000       0.361075         9.8253 
 109   0.0000       0.364170         9.9096 
 110   0.0000       0.374428        10.1887 
 111   0.0000       0.378597        10.3021 
 112   0.0000       0.387471        10.5436 
 113   0.0000       0.390922        10.6375 
 114   0.0000       0.402184        10.9440 
 115   0.0000       0.406756        11.0684 
 116   0.0000       0.417749        11.3675 
 117   0.0000       0.427644        11.6368 
 118   0.0000       0.430003        11.7010 
 119   0.0000       0.434575        11.8254 
 120   0.0000       0.436777        11.8853 
 121   0.0000       0.448235        12.1971 
 122   0.0000       0.452215        12.3054 
 123   0.0000       0.455060        12.3828 
 124   0.0000       0.458557        12.4780 
 125   0.0000       0.466665        12.6986 
 126   0.0000       0.474370        12.9083 
 127   0.0000       0.482126        13.1193 
 128   0.0000       0.490289        13.3414 
 129   0.0000       0.495879        13.4936 
 130   0.0000       0.500827        13.6282 
 131   0.0000       0.508552        13.8384 
 132   0.0000       0.512172        13.9369 
 133   0.0000       0.513654        13.9772 
 134   0.0000       0.522169        14.2089 
 135   0.0000       0.524199        14.2642 
 136   0.0000       0.533925        14.5288 
 137   0.0000       0.536848        14.6084 
 138   0.0000       0.541140        14.7252 
 139   0.0000       0.549688        14.9578 
 140   0.0000       0.553346        15.0573 
 141   0.0000       0.560880        15.2623 
 142   0.0000       0.562001        15.2928 
 143   0.0000       0.569582        15.4991 
 144   0.0000       0.571562        15.5530 
 145   0.0000       0.575795        15.6682 
 146   0.0000       0.582885        15.8611 
 147   0.0000       0.584880        15.9154 
 148   0.0000       0.596963        16.2442 
 149   0.0000       0.600946        16.3526 
 150   0.0000       0.602924        16.4064 
 151   0.0000       0.607371        16.5274 
 152   0.0000       0.608879        16.5684 
 153   0.0000       0.612114        16.6565 
 154   0.0000       0.617445        16.8015 
 155   0.0000       0.624116        16.9831 
 156   0.0000       0.630945        17.1689 
 157   0.0000       0.634440        17.2640 
 158   0.0000       0.637858        17.3570 
 159   0.0000       0.640217        17.4212 
 160   0.0000       0.645963        17.5775 
 161   0.0000       0.649643        17.6777 
 162   0.0000       0.657708        17.8971 
 163   0.0000       0.659819        17.9546 
 164   0.0000       0.661494        18.0002 
 165   0.0000       0.668288        18.1850 
 166   0.0000       0.678769        18.4702 
 167   0.0000       0.679954        18.5025 
 168   0.0000       0.684261        18.6197 
 169   0.0000       0.686272        18.6744 
 170   0.0000       0.698084        18.9958 
 171   0.0000       0.705891        19.2083 
 172   0.0000       0.708669        19.2839 
 173   0.0000       0.719780        19.5862 
 174   0.0000       0.730011        19.8646 
 175   0.0000       0.733845        19.9689 
 176   0.0000       0.740319        20.1451 
 177   0.0000       0.744687        20.2640 
 178   0.0000       0.750182        20.4135 
 179   0.0000       0.755766        20.5654 
 180   0.0000       0.764562        20.8048 
 181   0.0000       0.769078        20.9277 
 182   0.0000       0.777193        21.1485 
 183   0.0000       0.782318        21.2880 
 184   0.0000       0.801037        21.7973 
 185   0.0000       0.802640        21.8409 
 186   0.0000       0.813523        22.1371 
 187   0.0000       0.822476        22.3807 
 188   0.0000       0.828177        22.5358 
 189   0.0000       0.837875        22.7997 
 190   0.0000       0.847465        23.0607 
 191   0.0000       0.849662        23.1205 
 192   0.0000       0.857655        23.3380 
 193   0.0000       0.868715        23.6389 
 194   0.0000       0.873067        23.7574 
 195   0.0000       0.885155        24.0863 
 196   0.0000       0.888363        24.1736 
 197   0.0000       0.891751        24.2658 
 198   0.0000       0.895003        24.3543 
 199   0.0000       0.900070        24.4922 
 200   0.0000       0.905783        24.6476 
 201   0.0000       0.921088        25.0641 
 202   0.0000       0.928584        25.2681 
 203   0.0000       0.932874        25.3848 
 204   0.0000       0.937961        25.5232 
 205   0.0000       0.944545        25.7024 
 206   0.0000       0.955660        26.0048 
 207   0.0000       0.959078        26.0978 
 208   0.0000       0.965686        26.2777 
 209   0.0000       0.978721        26.6323 
 210   0.0000       0.980842        26.6901 
 211   0.0000       0.989866        26.9356 
 212   0.0000       0.992699        27.0127 
 213   0.0000       1.002226        27.2720 
 214   0.0000       1.011956        27.5367 
 215   0.0000       1.019664        27.7465 
 216   0.0000       1.023270        27.8446 
 217   0.0000       1.032851        28.1053 
 218   0.0000       1.037395        28.2289 
 219   0.0000       1.048663        28.5356 
 220   0.0000       1.049907        28.5694 
 221   0.0000       1.061917        28.8962 
 222   0.0000       1.067758        29.0552 
 223   0.0000       1.073355        29.2075 
 224   0.0000       1.083514        29.4839 
 225   0.0000       1.093273        29.7495 
 226   0.0000       1.103176        30.0190 
 227   0.0000       1.110010        30.2049 
 228   0.0000       1.114565        30.3289 
 229   0.0000       1.125190        30.6180 
 230   0.0000       1.130892        30.7731 
 231   0.0000       1.138807        30.9885 
 232   0.0000       1.147009        31.2117 
 233   0.0000       1.154333        31.4110 
 234   0.0000       1.158522        31.5250 
 235   0.0000       1.165836        31.7240 
 236   0.0000       1.179547        32.0971 
 237   0.0000       1.181351        32.1462 
 238   0.0000       1.185982        32.2722 
 239   0.0000       1.197809        32.5940 
 240   0.0000       1.199594        32.6426 
 241   0.0000       1.205836        32.8125 
 242   0.0000       1.212636        32.9975 
 243   0.0000       1.216609        33.1056 
 244   0.0000       1.222015        33.2527 
 245   0.0000       1.229690        33.4616 
 246   0.0000       1.239122        33.7182 
 247   0.0000       1.242421        33.8080 
 248   0.0000       1.249325        33.9959 
 249   0.0000       1.252684        34.0873 
 250   0.0000       1.261820        34.3359 
 251   0.0000       1.271366        34.5956 
 252   0.0000       1.275152        34.6987 
 253   0.0000       1.277115        34.7521 
 254   0.0000       1.290565        35.1181 
 255   0.0000       1.292649        35.1748 
 256   0.0000       1.299032        35.3485 
 257   0.0000       1.307459        35.5778 
 258   0.0000       1.316141        35.8140 
 259   0.0000       1.333226        36.2789 
 260   0.0000       1.339141        36.4399 
 261   0.0000       1.343878        36.5688 
 262   0.0000       1.351672        36.7809 
 263   0.0000       1.359414        36.9915 
 264   0.0000       1.375990        37.4426 
 265   0.0000       1.378975        37.5238 
 266   0.0000       1.387311        37.7507 
 267   0.0000       1.391135        37.8547 
 268   0.0000       1.408487        38.3269 
 269   0.0000       1.418360        38.5955 
 270   0.0000       1.424444        38.7611 
 271   0.0000       1.437537        39.1174 
 272   0.0000       1.438044        39.1312 
 273   0.0000       1.450693        39.4754 
 274   0.0000       1.451579        39.4995 
 275   0.0000       1.463747        39.8306 
 276   0.0000       1.468075        39.9484 
 277   0.0000       1.473543        40.0971 
 278   0.0000       1.476920        40.1890 
 279   0.0000       1.485617        40.4257 
 280   0.0000       1.493066        40.6284 
 281   0.0000       1.503068        40.9006 
 282   0.0000       1.506755        41.0009 
 283   0.0000       1.511777        41.1375 
 284   0.0000       1.518063        41.3086 
 285   0.0000       1.526909        41.5493 
 286   0.0000       1.530118        41.6366 
 287   0.0000       1.538755        41.8716 
 288   0.0000       1.539694        41.8972 
 289   0.0000       1.549697        42.1694 
 290   0.0000       1.557600        42.3845 
 291   0.0000       1.565213        42.5916 
 292   0.0000       1.570134        42.7255 
 293   0.0000       1.581890        43.0454 
 294   0.0000       1.588846        43.2347 
 295   0.0000       1.594441        43.3869 
 296   0.0000       1.605351        43.6838 
 297   0.0000       1.607466        43.7414 
 298   0.0000       1.618871        44.0517 
 299   0.0000       1.629225        44.3335 
 300   0.0000       1.636778        44.5390 
 301   0.0000       1.640511        44.6406 
 302   0.0000       1.642517        44.6952 
 303   0.0000       1.645805        44.7846 
 304   0.0000       1.661455        45.2105 
 305   0.0000       1.670066        45.4448 
 306   0.0000       1.681230        45.7486 
 307   0.0000       1.693234        46.0752 
 308   0.0000       1.697732        46.1976 
 309   0.0000       1.700182        46.2643 
 310   0.0000       1.711505        46.5724 
 311   0.0000       1.726024        46.9675 
 312   0.0000       1.733247        47.1641 
 313   0.0000       1.736658        47.2569 
 314   0.0000       1.739784        47.3419 
 315   0.0000       1.752660        47.6923 
 316   0.0000       1.758303        47.8459 
 317   0.0000       1.768778        48.1309 
 318   0.0000       1.775149        48.3043 
 319   0.0000       1.786532        48.6140 
 320   0.0000       1.796777        48.8928 
 321   0.0000       1.799124        48.9567 
 322   0.0000       1.831930        49.8493 
 323   0.0000       1.835515        49.9469 
 324   0.0000       1.837347        49.9968 
 325   0.0000       1.860515        50.6272 
 326   0.0000       1.883992        51.2660 
 327   0.0000       1.893951        51.5370 
 328   0.0000       1.900795        51.7233 
 329   0.0000       1.908892        51.9436 
 330   0.0000       1.929379        52.5011 
 331   0.0000       1.935798        52.6757 
 332   0.0000       1.936910        52.7060 
 333   0.0000       1.955243        53.2049 
 334   0.0000       1.959466        53.3198 
 335   0.0000       1.966504        53.5113 
 336   0.0000       1.974743        53.7355 
 337   0.0000       1.991661        54.1958 
 338   0.0000       2.003821        54.5267 
 339   0.0000       2.009110        54.6707 
 340   0.0000       2.023960        55.0748 
 341   0.0000       2.046200        55.6799 
 342   0.0000       2.049798        55.7778 
 343   0.0000       2.067722        56.2656 
 344   0.0000       2.083229        56.6875 
 345   0.0000       2.099234        57.1231 
 346   0.0000       2.123797        57.7915 
 347   0.0000       2.139444        58.2172 
 348   0.0000       2.159443        58.7614 
 349   0.0000       2.165635        58.9299 
 350   0.0000       2.193912        59.6994 
 351   0.0000       2.201290        59.9002 
 352   0.0000       2.208198        60.0881 
 353   0.0000       2.224617        60.5349 
 354   0.0000       2.243132        61.0387 
 355   0.0000       2.272027        61.8250 
 356   0.0000       2.284784        62.1721 
 357   0.0000       2.291746        62.3616 
 358   0.0000       2.300574        62.6018 
 359   0.0000       2.314979        62.9938 
 360   0.0000       2.319802        63.1250 
 361   0.0000       2.329677        63.3937 
 362   0.0000       2.333391        63.4948 
 363   0.0000       2.340639        63.6920 
 364   0.0000       2.362033        64.2742 
 365   0.0000       2.379585        64.7518 
 366   0.0000       2.382372        64.8276 
 367   0.0000       2.389366        65.0180 
 368   0.0000       2.408188        65.5301 
 369   0.0000       2.418244        65.8038 
 370   0.0000       2.424324        65.9692 
 371   0.0000       2.436248        66.2937 
 372   0.0000       2.462444        67.0065 
 373   0.0000       2.473595        67.3099 
 374   0.0000       2.494412        67.8764 
 375   0.0000       2.506433        68.2035 
 376   0.0000       2.515621        68.4535 
 377   0.0000       2.524830        68.7041 
 378   0.0000       2.543843        69.2215 
 379   0.0000       2.549955        69.3878 
 380   0.0000       2.567474        69.8645 
 381   0.0000       2.582962        70.2860 
 382   0.0000       2.588941        70.4487 
 383   0.0000       2.594058        70.5879 
 384   0.0000       2.615224        71.1639 
 385   0.0000       2.619903        71.2912 
 386   0.0000       2.635083        71.7043 
 387   0.0000       2.650104        72.1130 
 388   0.0000       2.666785        72.5669 
 389   0.0000       2.670601        72.6707 
 390   0.0000       2.676618        72.8345 
 391   0.0000       2.682724        73.0006 
 392   0.0000       2.690086        73.2009 
 393   0.0000       2.701127        73.5014 
 394   0.0000       2.709713        73.7350 
 395   0.0000       2.723810        74.1186 
 396   0.0000       2.738087        74.5071 
 397   0.0000       2.741834        74.6091 
 398   0.0000       2.755012        74.9677 
 399   0.0000       2.765525        75.2538 
 400   0.0000       2.776505        75.5525 
 401   0.0000       2.779863        75.6439 
 402   0.0000       2.785330        75.7927 
 403   0.0000       2.806064        76.3569 
 404   0.0000       2.814316        76.5814 
 405   0.0000       2.822599        76.8068 
 406   0.0000       2.836947        77.1972 
 407   0.0000       2.849502        77.5389 
 408   0.0000       2.854493        77.6747 
 409   0.0000       2.862700        77.8980 
 410   0.0000       2.881399        78.4069 
 411   0.0000       2.888386        78.5970 
 412   0.0000       2.891614        78.6848 
 413   0.0000       2.898525        78.8729 
 414   0.0000       2.917454        79.3880 
 415   0.0000       2.921462        79.4970 
 416   0.0000       2.934656        79.8561 
 417   0.0000       2.936917        79.9176 
 418   0.0000       2.938864        79.9706 
 419   0.0000       2.941723        80.0483 
 420   0.0000       2.955681        80.4282 
 421   0.0000       2.968585        80.7793 
 422   0.0000       2.982276        81.1519 
 423   0.0000       2.993093        81.4462 
 424   0.0000       3.005162        81.7746 
 425   0.0000       3.009869        81.9027 
 426   0.0000       3.013051        81.9893 
 427   0.0000       3.024962        82.3134 
 428   0.0000       3.030043        82.4517 
 429   0.0000       3.035755        82.6071 
 430   0.0000       3.038794        82.6898 
 431   0.0000       3.047938        82.9386 
 432   0.0000       3.062751        83.3417 
 433   0.0000       3.065311        83.4113 
 434   0.0000       3.077995        83.7565 
 435   0.0000       3.082712        83.8849 
 436   0.0000       3.085738        83.9672 
 437   0.0000       3.093384        84.1753 
 438   0.0000       3.099412        84.3393 
 439   0.0000       3.104887        84.4883 
 440   0.0000       3.111741        84.6748 
 441   0.0000       3.123910        85.0059 
 442   0.0000       3.130034        85.1726 
 443   0.0000       3.132408        85.2371 
 444   0.0000       3.134342        85.2898 
 445   0.0000       3.152513        85.7842 
 446   0.0000       3.170533        86.2746 
 447   0.0000       3.171404        86.2983 
 448   0.0000       3.182809        86.6086 
 449   0.0000       3.186760        86.7161 
 450   0.0000       3.189544        86.7919 
 451   0.0000       3.198306        87.0303 
 452   0.0000       3.206114        87.2428 
 453   0.0000       3.212054        87.4044 
 454   0.0000       3.223866        87.7259 
 455   0.0000       3.227947        87.8369 
 456   0.0000       3.238821        88.1328 
 457   0.0000       3.241893        88.2164 
 458   0.0000       3.246407        88.3392 
 459   0.0000       3.252979        88.5181 
 460   0.0000       3.269228        88.9602 
 461   0.0000       3.272220        89.0416 
 462   0.0000       3.280256        89.2603 
 463   0.0000       3.287795        89.4655 
 464   0.0000       3.294382        89.6447 
 465   0.0000       3.307997        90.0152 
 466   0.0000       3.312763        90.1449 
 467   0.0000       3.317798        90.2819 
 468   0.0000       3.323125        90.4268 
 469   0.0000       3.331782        90.6624 
 470   0.0000       3.336343        90.7865 
 471   0.0000       3.339914        90.8837 
 472   0.0000       3.342137        90.9442 
 473   0.0000       3.361704        91.4766 
 474   0.0000       3.367101        91.6235 
 475   0.0000       3.368188        91.6530 
 476   0.0000       3.374089        91.8136 
 477   0.0000       3.376427        91.8772 
 478   0.0000       3.383953        92.0820 
 479   0.0000       3.388192        92.1974 
 480   0.0000       3.397450        92.4493 
 481   0.0000       3.399064        92.4932 
 482   0.0000       3.400887        92.5428 
 483   0.0000       3.408356        92.7461 
 484   0.0000       3.414551        92.9147 
 485   0.0000       3.419771        93.0567 
 486   0.0000       3.423908        93.1693 
 487   0.0000       3.427064        93.2552 
 488   0.0000       3.432851        93.4126 
 489   0.0000       3.437370        93.5356 
 490   0.0000       3.442151        93.6657 
 491   0.0000       3.447796        93.8193 
 492   0.0000       3.453069        93.9628 
 493   0.0000       3.457067        94.0716 
 494   0.0000       3.458261        94.1041 
 495   0.0000       3.472995        94.5050 
 496   0.0000       3.479534        94.6829 
 497   0.0000       3.481774        94.7439 
 498   0.0000       3.490299        94.9759 
 499   0.0000       3.496461        95.1435 
 500   0.0000       3.504950        95.3745 
 501   0.0000       3.513869        95.6172 
 502   0.0000       3.537372        96.2568 
 503   0.0000       3.542623        96.3997 
 504   0.0000       3.549196        96.5785 
 505   0.0000       3.552351        96.6644 
 506   0.0000       3.560741        96.8927 
 507   0.0000       3.566458        97.0482 
 508   0.0000       3.580231        97.4230 
 509   0.0000       3.582264        97.4783 
 510   0.0000       3.589722        97.6813 
 511   0.0000       3.603593        98.0587 
 512   0.0000       3.609119        98.2091 
 513   0.0000       3.613336        98.3239 
 514   0.0000       3.621591        98.5485 
 515   0.0000       3.629447        98.7623 
 516   0.0000       3.631389        98.8151 
 517   0.0000       3.637309        98.9762 
 518   0.0000       3.641799        99.0984 
 519   0.0000       3.655703        99.4767 
 520   0.0000       3.659884        99.5905 
 521   0.0000       3.665494        99.7432 
 522   0.0000       3.670671        99.8840 
 523   0.0000       3.676888       100.0532 
 524   0.0000       3.682051       100.1937 
 525   0.0000       3.686667       100.3193 
 526   0.0000       3.691433       100.4490 
 527   0.0000       3.697947       100.6262 
 528   0.0000       3.708119       100.9030 
 529   0.0000       3.711973       101.0079 
 530   0.0000       3.714427       101.0747 
 531   0.0000       3.723566       101.3234 
 532   0.0000       3.728589       101.4601 
 533   0.0000       3.736003       101.6618 
 534   0.0000       3.738276       101.7237 
 535   0.0000       3.751811       102.0920 
 536   0.0000       3.758530       102.2748 
 537   0.0000       3.762110       102.3722 
 538   0.0000       3.766886       102.5022 
 539   0.0000       3.769851       102.5829 
 540   0.0000       3.778838       102.8274 
 541   0.0000       3.785216       103.0010 
 542   0.0000       3.790854       103.1544 
 543   0.0000       3.796642       103.3119 
 544   0.0000       3.800182       103.4082 
 545   0.0000       3.809881       103.6721 
 546   0.0000       3.827112       104.1410 
 547   0.0000       3.834810       104.3505 
 548   0.0000       3.837490       104.4234 
 549   0.0000       3.841802       104.5407 
 550   0.0000       3.854965       104.8989 
 551   0.0000       3.862671       105.1086 
 552   0.0000       3.869525       105.2951 
 553   0.0000       3.882328       105.6435 
 554   0.0000       3.891430       105.8912 
 555   0.0000       3.895895       106.0127 
 556   0.0000       3.908104       106.3449 
 557   0.0000       3.916689       106.5785 
 558   0.0000       3.922494       106.7365 
 559   0.0000       3.930291       106.9486 
 560   0.0000       3.936192       107.1092 
 561   0.0000       3.946628       107.3932 
 562   0.0000       3.956211       107.6540 
 563   0.0000       3.966132       107.9239 
 564   0.0000       3.980427       108.3129 
 565   0.0000       3.997797       108.7856 
 566   0.0000       3.998982       108.8178 
 567   0.0000       4.005511       108.9955 
 568   0.0000       4.012132       109.1757 
 569   0.0000       4.021658       109.4349 
 570   0.0000       4.033258       109.7505 
 571   0.0000       4.039950       109.9326 
 572   0.0000       4.042978       110.0150 
 573   0.0000       4.050863       110.2296 
 574   0.0000       4.056018       110.3699 
 575   0.0000       4.070186       110.7554 
 576   0.0000       4.072236       110.8112 
 577   0.0000       4.081409       111.0608 
 578   0.0000       4.088884       111.2642 
 579   0.0000       4.096578       111.4736 
 580   0.0000       4.111631       111.8832 
 581   0.0000       4.115620       111.9917 
 582   0.0000       4.131206       112.4158 
 583   0.0000       4.136362       112.5561 
 584   0.0000       4.139683       112.6465 
 585   0.0000       4.146360       112.8282 
 586   0.0000       4.158204       113.1505 
 587   0.0000       4.163005       113.2811 
 588   0.0000       4.164674       113.3265 
 589   0.0000       4.170442       113.4835 
 590   0.0000       4.178788       113.7106 
 591   0.0000       4.184001       113.8525 
 592   0.0000       4.189996       114.0156 
 593   0.0000       4.193112       114.1004 
 594   0.0000       4.206922       114.4762 
 595   0.0000       4.210187       114.5650 
 596   0.0000       4.218277       114.7851 
 597   0.0000       4.220142       114.8359 
 598   0.0000       4.226496       115.0088 
 599   0.0000       4.234423       115.2245 
 600   0.0000       4.242243       115.4373 
 601   0.0000       4.264229       116.0356 
 602   0.0000       4.266618       116.1006 
 603   0.0000       4.274239       116.3080 
 604   0.0000       4.285993       116.6278 
 605   0.0000       4.290242       116.7434 
 606   0.0000       4.301116       117.0393 
 607   0.0000       4.315440       117.4291 
 608   0.0000       4.323808       117.6568 
 609   0.0000       4.324227       117.6682 
 610   0.0000       4.331122       117.8558 
 611   0.0000       4.344477       118.2192 
 612   0.0000       4.348022       118.3157 
 613   0.0000       4.363775       118.7444 
 614   0.0000       4.366936       118.8304 
 615   0.0000       4.384279       119.3023 
 616   0.0000       4.388121       119.4068 
 617   0.0000       4.393196       119.5449 
 618   0.0000       4.395880       119.6180 
 619   0.0000       4.399936       119.7284 
 620   0.0000       4.409269       119.9823 
 621   0.0000       4.415652       120.1560 
 622   0.0000       4.431670       120.5919 
 623   0.0000       4.438583       120.7800 
 624   0.0000       4.443231       120.9065 
 625   0.0000       4.450672       121.1089 
 626   0.0000       4.463379       121.4547 
 627   0.0000       4.465854       121.5221 
 628   0.0000       4.475232       121.7772 
 629   0.0000       4.483169       121.9932 
 630   0.0000       4.490065       122.1809 
 631   0.0000       4.504298       122.5682 
 632   0.0000       4.505237       122.5937 
 633   0.0000       4.517202       122.9193 
 634   0.0000       4.534431       123.3881 
 635   0.0000       4.538491       123.4986 
 636   0.0000       4.550128       123.8153 
 637   0.0000       4.554724       123.9404 
 638   0.0000       4.564595       124.2089 
 639   0.0000       4.568404       124.3126 
 640   0.0000       4.581058       124.6569 
 641   0.0000       4.583928       124.7350 
 642   0.0000       4.590261       124.9074 
 643   0.0000       4.602150       125.2309 
 644   0.0000       4.615027       125.5813 
 645   0.0000       4.622829       125.7936 
 646   0.0000       4.623652       125.8160 
 647   0.0000       4.638094       126.2090 
 648   0.0000       4.640749       126.2812 
 649   0.0000       4.646603       126.4405 
 650   0.0000       4.655065       126.6708 
 651   0.0000       4.666697       126.9873 
 652   0.0000       4.678491       127.3082 
 653   0.0000       4.680885       127.3734 
 654   0.0000       4.694582       127.7461 
 655   0.0000       4.700922       127.9186 
 656   0.0000       4.708649       128.1289 
 657   0.0000       4.716546       128.3437 
 658   0.0000       4.726964       128.6272 
 659   0.0000       4.729983       128.7094 
 660   0.0000       4.748583       129.2155 
 661   0.0000       4.772037       129.8537 
 662   0.0000       4.779540       130.0579 
 663   0.0000       4.785005       130.2066 
 664   0.0000       4.791784       130.3911 
 665   0.0000       4.816750       131.0704 
 666   0.0000       4.834450       131.5521 
 667   0.0000       4.857297       132.1738 
 668   0.0000       4.869482       132.5053 
 669   0.0000       4.880704       132.8107 
 670   0.0000       4.897666       133.2723 
 671   0.0000       4.913374       133.6997 
 672   0.0000       4.921693       133.9261 
 673   0.0000       4.952410       134.7619 
 674   0.0000       4.970933       135.2660 
 675   0.0000       4.981634       135.5572 
 676   0.0000       4.995682       135.9394 
 677   0.0000       5.008582       136.2904 
 678   0.0000       5.019511       136.5879 
 679   0.0000       5.027605       136.8081 
 680   0.0000       5.045908       137.3061 
 681   0.0000       5.055173       137.5582 
 682   0.0000       5.056346       137.5902 
 683   0.0000       5.077963       138.1784 
 684   0.0000       5.099428       138.7625 
 685   0.0000       5.116760       139.2341 
 686   0.0000       5.130069       139.5963 
 687   0.0000       5.139407       139.8504 
 688   0.0000       5.142977       139.9475 
 689   0.0000       5.150767       140.1595 
 690   0.0000       5.161688       140.4567 
 691   0.0000       5.176107       140.8490 
 692   0.0000       5.184007       141.0640 
 693   0.0000       5.192272       141.2889 
 694   0.0000       5.195905       141.3878 
 695   0.0000       5.219402       142.0271 
 696   0.0000       5.223774       142.1461 
 697   0.0000       5.232257       142.3770 
 698   0.0000       5.248995       142.8324 
 699   0.0000       5.269897       143.4012 
 700   0.0000       5.279578       143.6646 
 701   0.0000       5.282489       143.7438 
 702   0.0000       5.292313       144.0111 
 703   0.0000       5.311763       144.5404 
 704   0.0000       5.321886       144.8159 
 705   0.0000       5.338513       145.2683 
 706   0.0000       5.346259       145.4791 
 707   0.0000       5.363137       145.9384 
 708   0.0000       5.372390       146.1902 
 709   0.0000       5.380782       146.4185 
 710   0.0000       5.384817       146.5283 
 711   0.0000       5.401193       146.9739 
 712   0.0000       5.424273       147.6020 
 713   0.0000       5.449823       148.2972 
 714   0.0000       5.471032       148.8743 
 715   0.0000       5.474297       148.9632 
 716   0.0000       5.482682       149.1914 
 717   0.0000       5.500832       149.6852 
 718   0.0000       5.511818       149.9842 
 719   0.0000       5.518246       150.1591 
 720   0.0000       5.528658       150.4424 
 721   0.0000       5.533063       150.5623 
 722   0.0000       5.539554       150.7389 
 723   0.0000       5.564183       151.4091 
 724   0.0000       5.579317       151.8209 
 725   0.0000       5.584699       151.9674 
 726   0.0000       5.595055       152.2492 
 727   0.0000       5.604150       152.4967 
 728   0.0000       5.615978       152.8185 
 729   0.0000       5.620902       152.9525 
 730   0.0000       5.640395       153.4829 
 731   0.0000       5.646816       153.6577 
 732   0.0000       5.675548       154.4395 
 733   0.0000       5.684166       154.6740 
 734   0.0000       5.686696       154.7429 
 735   0.0000       5.696960       155.0222 
 736   0.0000       5.721037       155.6773 
 737   0.0000       5.722384       155.7140 
 738   0.0000       5.734711       156.0494 
 739   0.0000       5.761053       156.7662 
 740   0.0000       5.781068       157.3109 
 741   0.0000       5.790845       157.5769 
 742   0.0000       5.800344       157.8354 
 743   0.0000       5.806018       157.9898 
 744   0.0000       5.839453       158.8996 
 745   0.0000       5.859716       159.4510 
 746   0.0000       5.865796       159.6164 
 747   0.0000       5.875046       159.8681 
 748   0.0000       5.879135       159.9794 
 749   0.0000       5.918283       161.0447 
 750   0.0000       5.956318       162.0796 
 751   0.0000       5.963968       162.2878 
 752   0.0000       5.985157       162.8644 
 753   0.0000       5.987335       162.9237 
 754   0.0000       5.999734       163.2611 
 755   0.0000       6.011236       163.5740 
 756   0.0000       6.046730       164.5399 
 757   0.0000       6.067438       165.1034 
 758   0.0000       6.077392       165.3742 
 759   0.0000       6.104916       166.1232 
 760   0.0000       6.164381       167.7413 
 761   0.0000       6.183766       168.2688 
 762   0.0000       6.197657       168.6468 
 763   0.0000       6.217155       169.1774 
 764   0.0000       6.225356       169.4005 
 765   0.0000       6.272403       170.6808 
 766   0.0000       6.293238       171.2477 
 767   0.0000       6.301330       171.4679 
 768   0.0000       6.319582       171.9646 
 769   0.0000       6.336890       172.4355 
 770   0.0000       6.343300       172.6100 
 771   0.0000       6.354791       172.9227 
 772   0.0000       6.393694       173.9813 
 773   0.0000       6.418068       174.6445 
 774   0.0000       6.459775       175.7794 
 775   0.0000       6.523896       177.5242 
 776   0.0000       6.560688       178.5254 
 777   0.0000       6.565575       178.6584 
 778   0.0000       6.577455       178.9817 
 779   0.0000       6.591759       179.3709 
 780   0.0000       6.612895       179.9460 
 781   0.0000       6.692094       182.1011 
 782   0.0000       6.738766       183.3711 
 783   0.0000       6.803557       185.1342 
 784   0.0000       6.847745       186.3366 
 785   0.0000       6.881971       187.2679 
 786   0.0000       6.917168       188.2257 
 787   0.0000       6.931967       188.6284 
 788   0.0000       6.956654       189.3002 
 789   0.0000       7.011726       190.7988 
 790   0.0000       7.028090       191.2441 
 791   0.0000       7.090472       192.9416 
 792   0.0000       7.099243       193.1802 
 793   0.0000       7.130424       194.0287 
 794   0.0000       7.137726       194.2274 
 795   0.0000       7.185322       195.5226 
 796   0.0000       7.251517       197.3238 
 797   0.0000       7.287623       198.3063 
 798   0.0000       7.342785       199.8073 
 799   0.0000       7.372737       200.6224 
 800   0.0000       7.386205       200.9889 
 801   0.0000       7.542196       205.2336 
 802   0.0000       7.581520       206.3036 
 803   0.0000       7.596732       206.7176 
 804   0.0000       7.657780       208.3788 
 805   0.0000       7.803725       212.3502 
 806   0.0000       7.826050       212.9576 
 807   0.0000       7.932894       215.8650 
 808   0.0000       7.962004       216.6571 
 809   0.0000       9.426856       256.5178 
 810   0.0000       9.613867       261.6066 
 811   0.0000      10.766294       292.9657 
 812   0.0000      11.124741       302.7196 
 813   0.0000      11.750659       319.7517 
 814   0.0000      12.609183       343.1133 
 815   0.0000      12.760916       347.2422 
 816   0.0000      12.811755       348.6256 
 817   0.0000      12.979457       353.1890 
 818   0.0000      13.235713       360.1621 
 819   0.0000      13.379716       364.0806 
 820   0.0000      13.488326       367.0360 
 821   0.0000      13.747672       374.0932 
 822   0.0000      13.797894       375.4598 
 823   0.0000      13.907607       378.4452 
 824   0.0000      14.006070       381.1245 
 825   0.0000      14.496449       394.4684 
 826   0.0000      14.565448       396.3460 
 827   0.0000      15.828722       430.7214 

                    ********************************
                    * MULLIKEN POPULATION ANALYSIS *
                    ********************************

-----------------------
MULLIKEN ATOMIC CHARGES
-----------------------
   0 C :   -0.291684
   1 C :    0.041527
   2 O :   -0.341176
   3 C :    0.405415
   4 O :   -0.419073
   5 C :   -0.086881
   6 C :    0.106396
   7 C :   -0.299465
   8 N :   -0.121225
   9 C :    0.191883
  10 S :   -0.435678
  11 N :   -0.200843
  12 C :    0.074952
  13 C :    0.033212
  14 C :   -0.213231
  15 C :   -0.121162
  16 C :   -0.282337
  17 C :    0.312317
  18 O :   -0.360388
  19 C :   -0.246553
  20 H :    0.092860
  21 H :    0.099962
  22 H :    0.125585
  23 H :    0.095760
  24 H :    0.090946
  25 H :    0.133254
  26 H :    0.117621
  27 H :    0.107961
  28 H :    0.194977
  29 H :    0.188839
  30 H :    0.188518
  31 H :    0.136142
  32 H :    0.155454
  33 H :    0.124101
  34 H :    0.242690
  35 H :    0.159327
Sum of atomic charges:    0.0000000

--------------------------------
MULLIKEN REDUCED ORBITAL CHARGES
--------------------------------
  0 C s       :     3.252273  s :     3.252273
      pz      :     1.003714  p :     2.959442
      px      :     0.991489
      py      :     0.964239
      dz2     :     0.005258  d :     0.075537
      dxz     :     0.025255
      dyz     :     0.017290
      dx2y2   :     0.007931
      dxy     :     0.019803
      f0      :     0.000353  f :     0.004432
      f+1     :     0.000277
      f-1     :     0.000338
      f+2     :     0.000573
      f-2     :     0.002190
      f+3     :     0.000526
      f-3     :     0.000174
  1 C s       :     3.177587  s :     3.177587
      pz      :     0.890588  p :     2.623278
      px      :     0.885365
      py      :     0.847325
      dz2     :     0.020698  d :     0.146504
      dxz     :     0.036538
      dyz     :     0.034164
      dx2y2   :     0.022097
      dxy     :     0.033007
      f0      :     0.001011  f :     0.011105
      f+1     :     0.001397
      f-1     :     0.001377
      f+2     :     0.001724
      f-2     :     0.003192
      f+3     :     0.001285
      f-3     :     0.001119
  2 O s       :     3.714329  s :     3.714329
      pz      :     1.639349  p :     4.591934
      px      :     1.251045
      py      :     1.701540
      dz2     :     0.004918  d :     0.032636
      dxz     :     0.006522
      dyz     :     0.005404
      dx2y2   :     0.009518
      dxy     :     0.006275
      f0      :     0.000206  f :     0.002277
      f+1     :     0.000380
      f-1     :     0.000144
      f+2     :     0.000298
      f-2     :     0.000333
      f+3     :     0.000575
      f-3     :     0.000340
  3 C s       :     3.110552  s :     3.110552
      pz      :     0.703900  p :     2.153638
      px      :     0.671276
      py      :     0.778461
      dz2     :     0.035410  d :     0.303765
      dxz     :     0.062156
      dyz     :     0.044409
      dx2y2   :     0.094538
      dxy     :     0.067251
      f0      :     0.002472  f :     0.026631
      f+1     :     0.001881
      f-1     :     0.002368
      f+2     :     0.003666
      f-2     :     0.003192
      f+3     :     0.004726
      f-3     :     0.008326
  4 O s       :     3.770041  s :     3.770041
      pz      :     1.538523  p :     4.611302
      px      :     1.641357
      py      :     1.431422
      dz2     :     0.004280  d :     0.035314
      dxz     :     0.004604
      dyz     :     0.006757
      dx2y2   :     0.008265
      dxy     :     0.011408
      f0      :     0.000205  f :     0.002416
      f+1     :     0.000167
      f-1     :     0.000274
      f+2     :     0.000087
      f-2     :     0.000449
      f+3     :     0.000685
      f-3     :     0.000548
  5 C s       :     3.169337  s :     3.169337
      pz      :     0.989544  p :     2.817618
      px      :     0.939238
      py      :     0.888836
      dz2     :     0.017019  d :     0.088988
      dxz     :     0.010342
      dyz     :     0.024979
      dx2y2   :     0.014610
      dxy     :     0.022038
      f0      :     0.000902  f :     0.010939
      f+1     :     0.001230
      f-1     :     0.001549
      f+2     :     0.002193
      f-2     :     0.001739
      f+3     :     0.001573
      f-3     :     0.001753
  6 C s       :     3.200706  s :     3.200706
      pz      :     0.851738  p :     2.503729
      px      :     0.845685
      py      :     0.806306
      dz2     :     0.030000  d :     0.175109
      dxz     :     0.016653
      dyz     :     0.052586
      dx2y2   :     0.028708
      dxy     :     0.047163
      f0      :     0.001525  f :     0.014061
      f+1     :     0.001462
      f-1     :     0.001988
      f+2     :     0.002271
      f-2     :     0.002265
      f+3     :     0.002141
      f-3     :     0.002409
  7 C s       :     3.286105  s :     3.286105
      pz      :     0.930661  p :     2.937035
      px      :     1.000835
      py      :     1.005539
      dz2     :     0.021916  d :     0.071600
      dxz     :     0.011762
      dyz     :     0.010307
      dx2y2   :     0.021183
      dxy     :     0.006432
      f0      :     0.000364  f :     0.004725
      f+1     :     0.001140
      f-1     :     0.001025
      f+2     :     0.000443
      f-2     :     0.000607
      f+3     :     0.000515
      f-3     :     0.000630
  8 N s       :     3.337748  s :     3.337748
      pz      :     1.377807  p :     3.718785
      px      :     1.271016
      py      :     1.069962
      dz2     :     0.010166  d :     0.059761
      dxz     :     0.009932
      dyz     :     0.011217
      dx2y2   :     0.015688
      dxy     :     0.012758
      f0      :     0.000595  f :     0.004930
      f+1     :     0.000945
      f-1     :     0.000373
      f+2     :     0.000950
      f-2     :     0.001021
      f+3     :     0.000472
      f-3     :     0.000574
  9 C s       :     3.169914  s :     3.169914
      pz      :     0.738342  p :     2.358196
      px      :     0.758527
      py      :     0.861326
      dz2     :     0.049428  d :     0.262448
      dxz     :     0.031536
      dyz     :     0.052452
      dx2y2   :     0.070726
      dxy     :     0.058305
      f0      :     0.001764  f :     0.017559
      f+1     :     0.002948
      f-1     :     0.001983
      f+2     :     0.003179
      f-2     :     0.001686
      f+3     :     0.002977
      f-3     :     0.003022
 10 S s       :     5.856626  s :     5.856626
      pz      :     3.549904  p :    10.484502
      px      :     3.596067
      py      :     3.338531
      dz2     :     0.010890  d :     0.084430
      dxz     :     0.007107
      dyz     :     0.026343
      dx2y2   :     0.010677
      dxy     :     0.029414
      f0      :     0.001108  f :     0.010120
      f+1     :     0.000491
      f-1     :     0.001293
      f+2     :     0.001333
      f-2     :     0.002343
      f+3     :     0.002485
      f-3     :     0.001066
 11 N s       :     3.380395  s :     3.380395
      pz      :     1.359263  p :     3.756337
      px      :     1.377563
      py      :     1.019511
      dz2     :     0.006223  d :     0.059733
      dxz     :     0.008197
      dyz     :     0.016897
      dx2y2   :     0.014545
      dxy     :     0.013872
      f0      :     0.000462  f :     0.004378
      f+1     :     0.000418
      f-1     :     0.000551
      f+2     :     0.000814
      f-2     :     0.000626
      f+3     :     0.000711
      f-3     :     0.000795
 12 C s       :     3.111382  s :     3.111382
      pz      :     0.858400  p :     2.631478
      px      :     0.887847
      py      :     0.885231
      dz2     :     0.033507  d :     0.171394
      dxz     :     0.030157
      dyz     :     0.038893
      dx2y2   :     0.029114
      dxy     :     0.039723
      f0      :     0.001041  f :     0.010795
      f+1     :     0.001545
      f-1     :     0.001792
      f+2     :     0.002043
      f-2     :     0.001922
      f+3     :     0.001538
      f-3     :     0.000914
 13 C s       :     3.130251  s :     3.130251
      pz      :     0.877216  p :     2.712597
      px      :     0.897246
      py      :     0.938135
      dz2     :     0.027257  d :     0.112964
      dxz     :     0.011828
      dyz     :     0.024793
      dx2y2   :     0.022612
      dxy     :     0.026474
      f0      :     0.001059  f :     0.010977
      f+1     :     0.001888
[...]
      f+2     :     0.007953
      f-2     :     0.004908
      f+3     :     0.006895
      f-3     :     0.005549
 15 C s       :     2.704287  s :     2.704287
      pz      :     0.925109  p :     2.793132
      px      :     0.901998
      py      :     0.966024
      dz2     :     0.107724  d :     0.424870
      dxz     :     0.070912
      dyz     :     0.074729
      dx2y2   :     0.108181
      dxy     :     0.063323
      f0      :     0.004404  f :     0.042114
      f+1     :     0.005787
      f-1     :     0.007137
      f+2     :     0.007699
      f-2     :     0.006241
      f+3     :     0.005372
      f-3     :     0.005474
 16 C s       :     2.700405  s :     2.700405
      pz      :     0.948070  p :     2.876208
      px      :     0.948414
      py      :     0.979724
      dz2     :     0.055520  d :     0.393764
      dxz     :     0.056038
      dyz     :     0.097955
      dx2y2   :     0.090824
      dxy     :     0.093428
      f0      :     0.004171  f :     0.041012
      f+1     :     0.004556
      f-1     :     0.006127
      f+2     :     0.006857
      f-2     :     0.004799
      f+3     :     0.008721
      f-3     :     0.005782
 17 C s       :     2.704281  s :     2.704281
      pz      :     0.870865  p :     2.677860
      px      :     0.819503
      py      :     0.987493
      dz2     :     0.141857  d :     0.706549
      dxz     :     0.098977
      dyz     :     0.160955
      dx2y2   :     0.147090
      dxy     :     0.157671
      f0      :     0.011140  f :     0.098942
      f+1     :     0.013825
      f-1     :     0.013064
      f+2     :     0.018363
      f-2     :     0.013314
      f+3     :     0.016845
      f-3     :     0.012391
 18 O s       :     3.178909  s :     3.178909
      pz      :     1.376318  p :     4.350569
      px      :     1.456720
      py      :     1.517531
      dz2     :     0.009929  d :     0.075611
      dxz     :     0.015945
      dyz     :     0.022308
      dx2y2   :     0.011378
      dxy     :     0.016050
      f0      :     0.000632  f :     0.005093
      f+1     :     0.000592
      f-1     :     0.000658
      f+2     :     0.000757
      f-2     :     0.001098
      f+3     :     0.000678
      f-3     :     0.000677
 19 C s       :     2.699463  s :     2.699463
      pz      :     0.951162  p :     2.857129
      px      :     0.939953
      py      :     0.966014
      dz2     :     0.084184  d :     0.378913
      dxz     :     0.068104
      dyz     :     0.070414
      dx2y2   :     0.088378
      dxy     :     0.067833
      f0      :     0.004089  f :     0.039291
      f+1     :     0.006210
      f-1     :     0.005950
      f+2     :     0.007042
      f-2     :     0.006280
      f+3     :     0.005223
      f-3     :     0.004496
 20 H s       :     0.849792  s :     0.849792
      pz      :     0.054350  p :     0.151169
      px      :     0.054212
      py      :     0.042606
      dz2     :     0.006509  d :     0.027434
      dxz     :     0.006539
      dyz     :     0.005073
      dx2y2   :     0.004486
      dxy     :     0.004828
 21 H s       :     0.846589  s :     0.846589
      pz      :     0.049527  p :     0.151863
      px      :     0.054254
      py      :     0.048082
      dz2     :     0.004960  d :     0.027581
      dxz     :     0.005950
      dyz     :     0.004787
      dx2y2   :     0.006021
      dxy     :     0.005863
 22 H s       :     0.842750  s :     0.842750
      pz      :     0.051557  p :     0.152452
      px      :     0.049643
      py      :     0.051253
      dz2     :     0.005537  d :     0.027815
      dxz     :     0.005230
      dyz     :     0.006113
      dx2y2   :     0.005447
      dxy     :     0.005486
 23 H s       :     0.857622  s :     0.857622
      pz      :     0.052263  p :     0.145846
      px      :     0.051764
      py      :     0.041819
      dz2     :     0.005866  d :     0.026809
      dxz     :     0.005625
      dyz     :     0.005391
      dx2y2   :     0.004216
      dxy     :     0.005712
 24 H s       :     0.847640  s :     0.847640
      pz      :     0.051752  p :     0.149874
      px      :     0.051119
      py      :     0.047003
      dz2     :     0.004689  d :     0.028067
      dxz     :     0.007003
      dyz     :     0.006173
      dx2y2   :     0.005145
      dxy     :     0.005058
 25 H s       :     0.833041  s :     0.833041
      pz      :     0.038348  p :     0.153014
      px      :     0.073797
      py      :     0.040869
      dz2     :     0.002542  d :     0.027800
      dxz     :     0.008733
      dyz     :     0.000193
      dx2y2   :     0.007721
      dxy     :     0.008610
 26 H s       :     0.832090  s :     0.832090
      pz      :     0.063788  p :     0.149746
      px      :     0.041813
      py      :     0.044145
      dz2     :     0.008901  d :     0.027520
      dxz     :     0.007148
      dyz     :     0.007001
      dx2y2   :     0.002932
      dxy     :     0.001537
 27 H s       :     0.840532  s :     0.840532
      pz      :     0.037051  p :     0.149582
      px      :     0.040066
      py      :     0.072465
      dz2     :     0.002315  d :     0.027571
      dxz     :     0.000216
      dyz     :     0.009045
      dx2y2   :     0.007221
      dxy     :     0.008775
 28 H s       :     0.743461  s :     0.743461
      pz      :     0.071886  p :     0.254277
      px      :     0.066200
      py      :     0.116192
      dz2     :     0.006429  d :     0.061725
      dxz     :     0.001421
      dyz     :     0.019847
      dx2y2   :     0.015293
      dxy     :     0.018735
 29 H s       :     0.747769  s :     0.747769
      pz      :     0.101611  p :     0.255789
      px      :     0.111309
      py      :     0.042869
      dz2     :     0.018056  d :     0.061731
      dxz     :     0.015228
      dyz     :     0.007421
      dx2y2   :     0.012429
      dxy     :     0.008597
 30 H s       :     0.810824  s :     0.810824
      pz      :     0.043479  p :     0.166875
      px      :     0.045788
      py      :     0.077607
      dz2     :     0.003623  d :     0.030377
      dxz     :     0.003976
      dyz     :     0.006766
      dx2y2   :     0.007892
      dxy     :     0.008120
 31 H s       :     0.843854  s :     0.843854
      pz      :     0.055223  p :     0.160658
      px      :     0.059057
      py      :     0.046377
      dz2     :     0.005764  d :     0.027951
      dxz     :     0.005445
      dyz     :     0.005340
      dx2y2   :     0.005800
      dxy     :     0.005602
 32 H s       :     0.843671  s :     0.843671
      pz      :     0.036324  p :     0.149874
      px      :     0.037147
      py      :     0.076403
      dz2     :     0.002782  d :     0.026248
      dxz     :     0.000354
      dyz     :     0.007890
      dx2y2   :     0.007512
      dxy     :     0.007710
 33 H s       :     0.849499  s :     0.849499
      pz      :     0.062520  p :     0.158973
      px      :     0.052451
      py      :     0.044003
      dz2     :     0.007317  d :     0.027673
      dxz     :     0.005920
      dyz     :     0.006064
      dx2y2   :     0.004299
      dxy     :     0.004074
 34 H s       :     0.705721  s :     0.705721
      pz      :     0.119317  p :     0.346295
      px      :     0.092498
      py      :     0.134481
      dz2     :     0.026303  d :     0.099104
      dxz     :     0.015493
      dyz     :     0.023840
      dx2y2   :     0.016354
      dxy     :     0.017114
 35 H s       :     0.842636  s :     0.842636
      pz      :     0.040583  p :     0.160268
      px      :     0.041037
      py      :     0.078649
      dz2     :     0.002925  d :     0.028532
      dxz     :     0.000692
      dyz     :     0.008495
      dx2y2   :     0.007824
      dxy     :     0.008597


                      *****************************
                      * MAYER POPULATION ANALYSIS *
                      *****************************

  NA   - Mulliken gross atomic population
  ZA   - Total nuclear charge
  QA   - Mulliken gross atomic charge
  VA   - Mayer's total valence
  BVA  - Mayer's bonded valence
  FA   - Mayer's free valence

  ATOM       NA         ZA         QA         VA         BVA        FA
  0 C      6.2917     6.0000    -0.2917     3.8787     3.8787    -0.0000
  1 C      5.9585     6.0000     0.0415     3.8876     3.8876     0.0000
  2 O      8.3412     8.0000    -0.3412     2.0575     2.0575    -0.0000
  3 C      5.5946     6.0000     0.4054     4.1913     4.1913     0.0000
  4 O      8.4191     8.0000    -0.4191     2.0920     2.0920     0.0000
  5 C      6.0869     6.0000    -0.0869     3.6375     3.6375     0.0000
  6 C      5.8936     6.0000     0.1064     3.8355     3.8355     0.0000
  7 C      6.2995     6.0000    -0.2995     3.8888     3.8888    -0.0000
  8 N      7.1212     7.0000    -0.1212     3.2784     3.2784     0.0000
  9 C      5.8081     6.0000     0.1919     4.1505     4.1505    -0.0000
 10 S     16.4357    16.0000    -0.4357     1.7629     1.7629     0.0000
 11 N      7.2008     7.0000    -0.2008     3.2563     3.2563     0.0000
 12 C      5.9250     6.0000     0.0750     3.9064     3.9064    -0.0000
 13 C      5.9668     6.0000     0.0332     3.7481     3.7481     0.0000
 14 C      6.2132     6.0000    -0.2132     3.8558     3.8558    -0.0000
 15 C      6.1212     6.0000    -0.1212     3.8011     3.8011     0.0000
 16 C      6.2823     6.0000    -0.2823     3.7827     3.7827    -0.0000
 17 C      5.6877     6.0000     0.3123     3.8756     3.8756    -0.0000
 18 O      8.3604     8.0000    -0.3604     2.1137     2.1137    -0.0000
 19 C      6.2466     6.0000    -0.2466     3.8512     3.8512    -0.0000
 20 H      0.9071     1.0000     0.0929     0.9835     0.9835    -0.0000
 21 H      0.9000     1.0000     0.1000     0.9787     0.9787     0.0000
 22 H      0.8744     1.0000     0.1256     0.9836     0.9836     0.0000
 23 H      0.9042     1.0000     0.0958     0.9727     0.9727     0.0000
 24 H      0.9091     1.0000     0.0909     0.9679     0.9679     0.0000
 25 H      0.8667     1.0000     0.1333     0.9760     0.9760    -0.0000
 26 H      0.8824     1.0000     0.1176     0.9788     0.9788     0.0000
 27 H      0.8920     1.0000     0.1080     0.9863     0.9863     0.0000
 28 H      0.8050     1.0000     0.1950     1.0254     1.0254    -0.0000
 29 H      0.8112     1.0000     0.1888     1.0235     1.0235    -0.0000
 30 H      0.8115     1.0000     0.1885     0.9962     0.9962     0.0000
 31 H      0.8639     1.0000     0.1361     0.9898     0.9898    -0.0000
 32 H      0.8445     1.0000     0.1555     0.9785     0.9785     0.0000
 33 H      0.8759     1.0000     0.1241     0.9930     0.9930    -0.0000
 34 H      0.7573     1.0000     0.2427     1.0092     1.0092    -0.0000
 35 H      0.8407     1.0000     0.1593     0.9921     0.9921    -0.0000

  Mayer bond orders larger than 0.100000
B(  0-C ,  1-C ) :   0.9803 B(  0-C , 20-H ) :   0.9765 B(  0-C , 21-H ) :   0.9725 
B(  0-C , 22-H ) :   0.9699 B(  1-C ,  2-O ) :   0.9099 B(  1-C , 23-H ) :   0.9768 
B(  1-C , 24-H ) :   0.9809 B(  2-O ,  3-C ) :   1.1540 B(  3-C ,  4-O ) :   1.9977 
B(  3-C ,  5-C ) :   0.9979 B(  5-C ,  6-C ) :   1.6989 B(  5-C , 12-C ) :   0.9808 
B(  6-C ,  7-C ) :   0.9314 B(  6-C ,  8-N ) :   1.1178 B(  7-C , 25-H ) :   0.9697 
B(  7-C , 26-H ) :   0.9714 B(  7-C , 27-H ) :   0.9910 B(  8-N ,  9-C ) :   1.1842 
B(  8-N , 28-H ) :   0.9489 B(  9-C , 10-S ) :   1.6133 B(  9-C , 11-N ) :   1.2925 
B( 11-N , 12-C ) :   0.9938 B( 11-N , 29-H ) :   0.9532 B( 12-C , 13-C ) :   0.8990 
B( 12-C , 30-H ) :   0.9795 B( 13-C , 14-C ) :   1.3839 B( 13-C , 19-C ) :   1.3820 
B( 14-C , 15-C ) :   1.3737 B( 14-C , 31-H ) :   0.9740 B( 15-C , 16-C ) :   1.3725 
B( 15-C , 32-H ) :   0.9721 B( 16-C , 17-C ) :   1.3146 B( 16-C , 33-H ) :   0.9887 
B( 17-C , 18-O ) :   1.1036 B( 17-C , 19-C ) :   1.3952 B( 18-O , 34-H ) :   0.9784 
B( 19-C , 35-H ) :   0.9514 

-------
TIMINGS
-------

Total SCF time: 0 days 1 hours 30 min 14 sec 

Total time                  ....    5414.039 sec
Sum of individual times     ....    5409.589 sec  ( 99.9%)

Fock matrix formation       ....    5398.967 sec  ( 99.7%)
Diagonalization             ....       1.168 sec  (  0.0%)
Density matrix formation    ....       0.208 sec  (  0.0%)
Population analysis         ....       0.183 sec  (  0.0%)
Initial guess               ....       4.600 sec  (  0.1%)
Orbital Transformation      ....       0.000 sec  (  0.0%)
Orbital Orthonormalization  ....       0.000 sec  (  0.0%)
DIIS solution               ....       1.766 sec  (  0.0%)
SOSCF solution              ....       1.457 sec  (  0.0%)

------------------------------------------------------------------------------
                                ORCA  MP2 
------------------------------------------------------------------------------

Freezing NCore=48 chemical core electrons

-------------
RI-MP2 ENERGY
-------------
Dimension of the basis                    ...  828
Memory devoted to MP2                     ...  256 MB   
Data format for buffers                   ... DOUBLE
Compression type for matrix containers    ... UNCOMPRESSED
Overall scaling of the MP2 energy         ...   1.000e+00
Calculating two index integrals           ... done (    0.039 sec)
Cholesky decomposition of V**-1           ... done (    0.308 sec)

-----------------
RI-TRANSFORMATION (AUX index driven)
-----------------

Dimension of the orbital-basis         ... 828
Dimension of the aux-basis             ... 2141
Transformation of internal/external MOs...   24-  76 to   77- 827
Number Format for Storage              ... Double (8 Byte)
Integral mode                          ... Direct

First Phase: integral generation and transformation of MO indices
  Aux angular momentum 0               ... done (    4.159 sec)
  Aux angular momentum 1               ... done (    7.020 sec)
  Aux angular momentum 2               ... done (    9.401 sec)
  Aux angular momentum 3               ... done (    7.432 sec)
  Aux angular momentum 4               ... done (    2.672 sec)
Closing buffer VIA ( 0.63 GB; CompressionRatio= 1.00)
  Phase 1 completed in    30.859 sec
Second Phase: sorting and transformation of aux index

IA-Transformation
Memory available                       ... 167 MB 
Max. # MO pairs treated in a batch     ... 12    
# of internal orbitals                 ... 53
# batches for internal orbitals        ... 5
Closing buffer IAV ( 0.63 GB; CompressionRatio= 1.00)
(ia|v) transformation done in    19.080 sec

  Phase 2 completed in    19.083 sec
RI-Integral transformation completed in    49.947 sec
Opening buffers                              ... done

Starting loop over batches of integrals:

Operator 0  - window                       ... ( 24- 76)x( 77-827)
Operator 0  - Memory available             ...   256 MB
Operator 0  - Memory needed per MO         ...  12.3 MB
Operator 0  - Number of orbitals per batch ... 13
Operator 0  - Number of batches            ... 5

OPERATOR  0   PASS   0:  MOs    24 ...   36
  Reading integrals       ... ok
  Internal MO  26
  Internal MO  29
  Internal MO  32
  Internal MO  35
OPERATOR  0   PASS   1:  MOs    37 ...   49
  Reading integrals       ... ok
  Internal MO  38
  Internal MO  41
  Internal MO  44
  Internal MO  47
OPERATOR  0   PASS   2:  MOs    50 ...   62
  Reading integrals       ... ok
  Internal MO  50
  Internal MO  53
  Internal MO  56
  Internal MO  59
  Internal MO  62
OPERATOR  0   PASS   3:  MOs    63 ...   75
  Reading integrals       ... ok
  Internal MO  65
  Internal MO  68
  Internal MO  71
  Internal MO  74
OPERATOR  0   PASS   4:  MOs    76 ...   76
  Reading integrals       ... ok
Time spent in pair loops =    82.399 sec
Deleting buffer (Ka|jb)[aa] ...done

-----------------------------------------------
 RI-MP2 CORRELATION ENERGY:     -3.548362030 Eh
-----------------------------------------------


-------
TIMINGS
-------

Total time                :  132.781 sec
Integral trafo            :   49.951 sec ( 37.6%)
I/O of integrals          :    2.875 sec (  2.2%)
K(i,j) Operators          :   49.935 sec ( 37.6%)
T(i,j) pair energies      :    8.401 sec (  6.3%)
V-calculation             :    0.039 sec (  0.0%)
V**(-1/2)                 :    0.308 sec (  0.2%)
Gamma(ia|P)               :    0.000 sec (  0.0%)
Gamma-Trafo               :    0.000 sec (  0.0%)
D(virtual)                :    0.000 sec (  0.0%)
D(internal)               :    0.000 sec (  0.0%)
W(virtual)                :    0.000 sec (  0.0%)
W(internal)               :    0.000 sec (  0.0%)
L(virtual)                :    0.000 sec (  0.0%)
L(internal)               :    0.000 sec (  0.0%)
G(D)                      :    0.000 sec (  0.0%)
G(Z)                      :    0.000 sec (  0.0%)
Z-Vector Solution         :    0.000 sec (  0.0%)
3-Index Derivative        :    0.000 sec (  0.0%)
2-Index Derivative        :    0.000 sec (  0.0%)
Separable Gradient        :    0.000 sec (  0.0%)


---------------------------------------
MP2 TOTAL ENERGY:    -1274.271947556 Eh
---------------------------------------

-------------------------   --------------------
FINAL SINGLE POINT ENERGY     -1274.271947556218
-------------------------   --------------------


                            ***************************************
                            *     ORCA property calculations      *
                            ***************************************


  WARNING: The energy has been calculated at the MP2 level but the densities
           used in the property calculations are still SCF densities
           MP2 response densities have not been calculated 
           use %mp2 Density relaxed end
           or  %mp2 Density unrelaxed end

                                    ---------------------
                                    Active property flags
                                    ---------------------
   (+) Dipole Moment


------------------------------------------------------------------------------
                       ORCA ELECTRIC PROPERTIES CALCULATION
------------------------------------------------------------------------------

Dipole Moment Calculation                       ... on
Quadrupole Moment Calculation                   ... off
Polarizability Calculation                      ... off
GBWName                                         ... G2_CONFS/Conf622.orca.gbw
Electron density file                           ... G2_CONFS/Conf622.orca.scfp
The origin for moment calculation is the CENTER OF MASS  = (32.893843, 31.514790 35.497267)

-------------
DIPOLE MOMENT
-------------
                                X             Y             Z
Electronic contribution:     10.04163      10.35301      11.15660
Nuclear contribution   :    -11.72904     -11.52701     -12.18962
                        -----------------------------------------
Total Dipole Moment    :     -1.68741      -1.17400      -1.03303
                        -----------------------------------------
Magnitude (a.u.)       :      2.30060
Magnitude (Debye)      :      5.84765



--------------------
Rotational spectrum 
--------------------
 
Rotational constants in cm-1:     0.011085     0.008790     0.006032 
Rotational constants in MHz :   332.319534   263.530728   180.823261 

 Dipole components along the rotational axes: 
x,y,z [a.u.] :     2.077611     0.522388     0.838683 
x,y,z [Debye]:     5.280868     1.327804     2.131762 

 

Timings for individual modules:

Sum of individual times         ...     5548.564 sec (=  92.476 min)
GTO integral calculation        ...        1.225 sec (=   0.020 min)   0.0 %
SCF iterations                  ...     5414.068 sec (=  90.234 min)  97.6 %
MP2 module                      ...      133.271 sec (=   2.221 min)   2.4 %
                             ****ORCA TERMINATED NORMALLY****
TOTAL RUN TIME: 0 days 1 hours 32 minutes 29 seconds 576 msec
