
                                 *****************
                                 * O   R   C   A *
                                 *****************

           --- An Ab Initio, DFT and Semiempirical electronic structure package ---

                  #######################################################
                  #                        -***-                        #
                  #          Department of theory and spectroscopy      #
                  #               Directorship: Frank Neese             #
                  #        Max Planck Institute fuer Kohlenforschung    #
                  #                Kaiser Wilhelm Platz 1               #
                  #                 D-45470 Muelheim/Ruhr               #
                  #                      Germany                        #
                  #                                                     #
                  #                  All rights reserved                #
                  #                        -***-                        #
                  #######################################################


                         Program Version 4.2.0 -  RELEASE  -


 With contributions from (in alphabetic order):
   Daniel Aravena         : Magnetic Suceptibility
   Michael Atanasov       : Ab Initio Ligand Field Theory (pilot matlab implementation)
   Alexander A. Auer      : GIAO ZORA, VPT2
   Ute Becker             : Parallelization
   Giovanni Bistoni       : ED, misc. LED, open-shell LED, HFLED
   Martin Brehm           : Molecular dynamics
   Dmytro Bykov           : SCF Hessian
   Vijay G. Chilkuri      : MRCI spin determinant printing, contributions to CSF-ICE
   Dipayan Datta          : RHF DLPNO-CCSD density
   Achintya Kumar Dutta   : EOM-CC, STEOM-CC
   Dmitry Ganyushin       : Spin-Orbit,Spin-Spin,Magnetic field MRCI
   Miquel Garcia          : C-PCM Hessian, Gaussian charge scheme
   Yang Guo               : DLPNO-NEVPT2, CIM, IAO-localization
   Andreas Hansen         : Spin unrestricted coupled pair/coupled cluster methods
   Benjamin Helmich-Paris : CASSCF linear response (MC-RPA)
   Lee Huntington         : MR-EOM, pCC
   Robert Izsak           : Overlap fitted RIJCOSX, COSX-SCS-MP3, EOM
   Christian Kollmar      : KDIIS, OOCD, Brueckner-CCSD(T), CCSD density
   Simone Kossmann        : Meta GGA functionals, TD-DFT gradient, OOMP2, MP2 Hessian
   Martin Krupicka        : AUTO-CI
   Lucas Lang             : DCDCAS
   Dagmar Lenk            : GEPOL surface, SMD
   Dimitrios Liakos       : Extrapolation schemes; Compound Job, initial MDCI parallelization
   Dimitrios Manganas     : Further ROCIS development; embedding schemes
   Dimitrios Pantazis     : SARC Basis sets
   Taras Petrenko         : DFT Hessian,TD-DFT gradient, ASA, ECA, R-Raman, ABS, FL, XAS/XES, NRVS
   Peter Pinski           : DLPNO-MP2, DLPNO-MP2 Gradient
   Christoph Reimann      : Effective Core Potentials
   Marius Retegan         : Local ZFS, SOC
   Christoph Riplinger    : Optimizer, TS searches, QM/MM, DLPNO-CCSD(T), (RO)-DLPNO pert. Triples
   Tobias Risthaus        : Range-separated hybrids, TD-DFT gradient, RPA, STAB
   Michael Roemelt        : Original ROCIS implementation
   Masaaki Saitow         : Open-shell DLPNO-CCSD energy and density
   Barbara Sandhoefer     : DKH picture change effects
   Avijit Sen             : IP-ROCIS
   Kantharuban Sivalingam : CASSCF convergence, NEVPT2, FIC-MRCI
   Bernardo de Souza      : ESD, SOC TD-DFT
   Georgi Stoychev        : AutoAux, RI-MP2 NMR
   Willem Van den Heuvel  : Paramagnetic NMR
   Boris Wezisla          : Elementary symmetry handling
   Frank Wennmohs         : Technical directorship


 We gratefully acknowledge several colleagues who have allowed us to
 interface, adapt or use parts of their codes:
   Stefan Grimme, W. Hujo, H. Kruse,             : VdW corrections, initial TS optimization,
                  C. Bannwarth                     DFT functionals, gCP, sTDA/sTD-DF
   Ed Valeev, F. Pavosevic, A. Kumar             : LibInt (2-el integral package), F12 methods
   Garnet Chan, S. Sharma, J. Yang, R. Olivares  : DMRG
   Ulf Ekstrom                                   : XCFun DFT Library
   Mihaly Kallay                                 : mrcc  (arbitrary order and MRCC methods)
   Andreas Klamt, Michael Diedenhofen            : otool_cosmo (COSMO solvation model)
   Jiri Pittner, Ondrej Demel                    : Mk-CCSD
   Frank Weinhold                                : gennbo (NPA and NBO analysis)
   Christopher J. Cramer and Donald G. Truhlar   : smd solvation model
   Lars Goerigk                                  : TD-DFT with DH, B97 family of functionals
   V. Asgeirsson, H. Jonsson                     : NEB implementation
   FAccTs GmbH                                   : IRC, NEB, NEB-TS, Multilevel, MM, QM/MM, CI optimization
   S Lehtola, MJT Oliveira, MAL Marques          : LibXC Library


 Your calculation uses the libint2 library for the computation of 2-el integrals
 For citations please refer to: http://libint.valeyev.net

 Your ORCA version has been built with support for libXC version: 4.2.3
 For citations please refer to: https://tddft.org/programs/libxc/

 This ORCA versions uses:
   CBLAS   interface :  Fast vector & matrix operations
   LAPACKE interface :  Fast linear algebra routines
   SCALAPACK package :  Parallel linear algebra routines


----- Orbital basis set information -----
Your calculation utilizes the basis: cc-pVTZ 
       H, B-Ne : Obtained from the ccRepo (grant-hill.group.shef.ac.uk/ccrepo) Feb. 2017
                 T. H. Dunning, Jr., J. Chem. Phys. 90, 1007 (1989)
            He : Obtained from the ccRepo (grant-hill.group.shef.ac.uk/ccrepo) Feb. 2017
                 D. E. Woon, T. H. Dunning, Jr., J. Chem. Phys. 100, 2975 (1994)
  Li-Be, Na-Mg : Obtained from the ccRepo (grant-hill.group.shef.ac.uk/ccrepo) Feb. 2017
                 B. P. Prascher, D. E. Woon, K. A. Peterson, T. H. Dunning, Jr., A. K. Wilson, Theor. Chem. Acc. 128, 69 (2011)
         Al-Ar : Obtained from the ccRepo (grant-hill.group.shef.ac.uk/ccrepo) Feb. 2017
                 D. E. Woon, T. H. Dunning, Jr., J. Chem. Phys. 98, 1358 (1993)
            Ca : Obtained from the Peterson Research Group Website (tyr0.chem.wsu.edu/~kipeters) Feb. 2017
                 J. Koput, K. A. Peterson, J. Phys. Chem. 106, 9595 (2002)
         Sc-Zn : Obtained from the ccRepo (grant-hill.group.shef.ac.uk/ccrepo) Feb. 2017
                 N. B. Balabanov, K. A. Peterson, J. Chem. Phys. 123, 064107 (2005)
                 N. B. Balabanov, K. A. Peterson, J. Chem. Phys. 125, 074110 (2006)
         Ga-Kr : Obtained from the ccRepo (grant-hill.group.shef.ac.uk/ccrepo) Feb. 2017
                 A. K. Wilson, D. E. Woon, K. A. Peterson, T. H. Dunning, Jr., J. Chem. Phys. 110, 7667 (1999)
             Y : Obtained from the ccRepo (grant-hill.group.shef.ac.uk/ccrepo) Feb. 2017
                 K. A. Peterson, D. Figgen, M. Dolg, H. Stoll, J. Chem. Phys. 126, 124101 (2007)
        Ag, Au : Obtained from the Peterson Research Group Website (tyr0.chem.wsu.edu/~kipeters) Feb. 2017
                 K. A. Peterson, C. Puzzarini, Theor. Chem. Acc. 114, 283 (2005)

----- AuxC basis set information -----
Your calculation utilizes the auxiliary basis: cc-pVTZ/C 
  Obtained from the EMSL Basis Set Exchange (bse.pnl.gov) Feb. 2017
  H-He, B-F, Al-Ar, Ga-Kr : F. Weigend, A. Kohn, C. Hattig, J. Chem. Phys. 116, 3175 (2002)
             Li-Be, Na-Mg : C. Haettig, Phys. Chem. Chem. Phys. 7, 59 (2005)
                       Ne : C. Haettig, Phys. Chem. Chem. Phys. 7, 59 (2005)
                            F. Weigend, A. Kohn, C. Hattig, J. Chem. Phys. 116, 3175 (2002)
                    Sc-Zn : J. G. Hill, J. A. Platts, J. Chem. Phys. 128, 044104 (2008)

================================================================================
                                        WARNINGS
                       Please study these warnings very carefully!
================================================================================


WARNING: No MP2 level density has been requested!
         To caclulate MP2 level properties use
         %mp2 Density relaxed end
         or
         %mp2 Density unrelaxed end

WARNING: Post HF methods need fully converged wavefunctions
  ===> : Setting SCFConvForced true
         You can overwrite this default with %scf ConvForced false 


INFO   : the flag for use of LIBINT has been found!

================================================================================
                                       INPUT FILE
================================================================================
NAME = G2_CONFS/Conf966.orca
|  1> ! ri-mp2 cc-pvtz cc-pvtz/c TightSCF  NoKeepInts
|  2> 
|  3> %scf
|  4>   MaxCore 4096
|  5> end
|  6> *xyz  0  1
|  7>     C       14.6384596   14.0868915   15.7861225
|  8>     C       16.1736902   14.0286482   15.9086164
|  9>     O       16.5707340   15.2628740   16.5265263
| 10>     C       17.8814628   15.5343307   16.7818229
| 11>     O       18.7997455   14.7694505   16.5371997
| 12>     C       18.0063254   16.7639357   17.6152281
| 13>     C       17.2899112   17.9085060   17.4671283
| 14>     C       16.2060614   18.2015634   16.4540641
| 15>     N       17.6826785   19.0633094   18.1678041
| 16>     C       18.7172173   19.1487529   19.0771905
| 17>     S       18.9795255   20.5187481   19.9667735
| 18>     N       19.3828054   17.9746523   19.3540762
| 19>     C       19.1221550   16.7115233   18.6407811
| 20>     C       18.1846412   16.2220234   19.7985998
| 21>     C       18.3259508   14.8450302   20.1040428
| 22>     C       17.4014025   14.1522091   20.8940334
| 23>     C       16.2923347   14.8295726   21.4106369
| 24>     C       16.1330197   16.1929407   21.1529089
| 25>     O       15.0362594   16.8433451   21.6167623
| 26>     C       17.0591200   16.8839003   20.3690562
| 27>     H       14.2089772   13.0912090   15.5868920
| 28>     H       14.3579867   14.7737997   14.9770024
| 29>     H       14.2016595   14.4767361   16.7158289
| 30>     H       16.4638034   13.1871811   16.5520604
| 31>     H       16.6382878   13.8753528   14.9279005
| 32>     H       16.2949515   17.5733479   15.5618599
| 33>     H       16.2291033   19.2390343   16.0964547
| 34>     H       15.2244442   18.0168376   16.9027605
| 35>     H       17.1501826   19.9067977   18.0457753
| 36>     H       20.0731317   18.0090141   20.0933146
| 37>     H       19.8281856   15.8756475   18.6630006
| 38>     H       19.1363263   14.2644343   19.6683672
| 39>     H       17.5335108   13.0863405   21.0702597
| 40>     H       15.5522535   14.2931844   21.9902038
| 41>     H       14.5378017   16.2161364   22.1610836
| 42>     H       16.8328999   17.9247353   20.1918588
| 43> *
| 44> 
| 45>                          ****END OF INPUT****
================================================================================

                       ****************************
                       * Single Point Calculation *
                       ****************************

---------------------------------
CARTESIAN COORDINATES (ANGSTROEM)
---------------------------------
  C     14.638460   14.086892   15.786122
  C     16.173690   14.028648   15.908616
  O     16.570734   15.262874   16.526526
  C     17.881463   15.534331   16.781823
  O     18.799746   14.769450   16.537200
  C     18.006325   16.763936   17.615228
  C     17.289911   17.908506   17.467128
  C     16.206061   18.201563   16.454064
  N     17.682679   19.063309   18.167804
  C     18.717217   19.148753   19.077190
  S     18.979526   20.518748   19.966773
  N     19.382805   17.974652   19.354076
  C     19.122155   16.711523   18.640781
  C     18.184641   16.222023   19.798600
  C     18.325951   14.845030   20.104043
  C     17.401402   14.152209   20.894033
  C     16.292335   14.829573   21.410637
  C     16.133020   16.192941   21.152909
  O     15.036259   16.843345   21.616762
  C     17.059120   16.883900   20.369056
  H     14.208977   13.091209   15.586892
  H     14.357987   14.773800   14.977002
  H     14.201659   14.476736   16.715829
  H     16.463803   13.187181   16.552060
  H     16.638288   13.875353   14.927900
  H     16.294951   17.573348   15.561860
  H     16.229103   19.239034   16.096455
  H     15.224444   18.016838   16.902760
  H     17.150183   19.906798   18.045775
  H     20.073132   18.009014   20.093315
  H     19.828186   15.875647   18.663001
  H     19.136326   14.264434   19.668367
  H     17.533511   13.086341   21.070260
  H     15.552254   14.293184   21.990204
  H     14.537802   16.216136   22.161084
  H     16.832900   17.924735   20.191859

----------------------------
CARTESIAN COORDINATES (A.U.)
----------------------------
  NO LB      ZA    FRAG     MASS         X           Y           Z
   0 C     6.0000    0    12.011   27.662680   26.620367   29.831448
   1 C     6.0000    0    12.011   30.563845   26.510303   30.062928
   2 O     8.0000    0    15.999   31.314149   28.842652   31.230609
   3 C     6.0000    0    12.011   33.791068   29.355631   31.713049
   4 O     8.0000    0    15.999   35.526370   27.910217   31.250778
   5 C     6.0000    0    12.011   34.027024   31.679247   33.287957
   6 C     6.0000    0    12.011   32.673197   33.842172   33.008089
   7 C     6.0000    0    12.011   30.625018   34.395970   31.093675
   8 N     7.0000    0    14.007   33.415420   36.024434   34.332174
   9 C     6.0000    0    12.011   35.370415   36.185899   36.050665
  10 S    16.0000    0    32.060   35.866105   38.774815   37.731734
  11 N     7.0000    0    14.007   36.628194   33.967170   36.573904
  12 C     6.0000    0    12.011   36.135636   31.580202   35.225971
  13 C     6.0000    0    12.011   34.363992   30.655182   37.413931
  14 C     6.0000    0    12.011   34.631028   28.053042   37.991135
  15 C     6.0000    0    12.011   32.883885   26.743799   39.484001
  16 C     6.0000    0    12.011   30.788051   28.023831   40.460240
  17 C     6.0000    0    12.011   30.486989   30.600223   39.973205
  18 O     8.0000    0    15.999   28.414412   31.829309   40.849761
  19 C     6.0000    0    12.011   32.237065   31.905948   38.491938
  20 H     1.0000    0     1.008   26.851076   24.738800   29.454957
  21 H     1.0000    0     1.008   27.132663   27.918435   28.302433
  22 H     1.0000    0     1.008   26.837247   27.357067   31.588339
  23 H     1.0000    0     1.008   31.112080   24.920161   31.278861
  24 H     1.0000    0     1.008   31.441807   26.220617   28.209644
  25 H     1.0000    0     1.008   30.792996   33.208815   29.407653
  26 H     1.0000    0     1.008   30.668561   36.356506   30.417891
  27 H     1.0000    0     1.008   28.770030   34.046889   31.941588
  28 H     1.0000    0     1.008   32.409148   37.618396   34.101573
  29 H     1.0000    0     1.008   37.932722   34.032105   37.970862
  30 H     1.0000    0     1.008   37.469841   30.000626   35.267960
  31 H     1.0000    0     1.008   36.162416   26.955874   37.167828
  32 H     1.0000    0     1.008   33.133534   24.729600   39.817020
  33 H     1.0000    0     1.008   29.389500   27.010204   41.555463
  34 H     1.0000    0     1.008   27.472464   30.644057   41.878379
  35 H     1.0000    0     1.008   31.809571   33.872841   38.157083

--------------------------------
INTERNAL COORDINATES (ANGSTROEM)
--------------------------------
 C      0   0   0     0.000000000000     0.00000000     0.00000000
 C      1   0   0     1.541210573773     0.00000000     0.00000000
 O      2   1   0     1.436234573119   106.08684112     0.00000000
 C      3   2   1     1.362672037247   121.17832366   180.00000391
 O      4   3   2     1.219887432286   124.16589296   358.73646287
 C      4   3   2     1.490665405881   110.46504087   189.07321493
 C      6   4   3     1.358390234198   126.14981503   318.44558354
 C      7   6   4     1.512253980645   127.90215846     0.71942740
 N      7   6   4     1.406692440197   119.35053632   191.42008753
 C      9   7   6     1.380056065855   126.04059593   356.40195074
 S     10   9   7     1.654403322561   121.63098076   186.99832769
 N     10   9   7     1.377746503769   116.21977273   357.22039453
 C     12  10   9     1.473846464645   123.20603076     5.99760670
 C     13  12  10     1.568147448220    90.91228702   261.97068579
 C     14  13  12     1.417523933536   113.74847246   219.69614580
 C     15  14  13     1.399598436598   122.45468388   193.79669028
 C     16  15  14     1.398474837936   119.51294033   359.90422950
 C     17  16  15     1.396630791336   119.67761681   358.84588193
 O     18  17  16     1.356859983892   119.80491963   177.90101411
 C     18  17  16     1.396249257758   120.73177999     0.90965580
 H      1   2   3     1.102511480596   111.60903425   195.82164428
 H      1   2   3     1.097808389058   109.67701821    74.40117317
 H      1   2   3     1.098693373836   110.00945384   316.40658621
 H      2   1   3     1.098295374812   109.79407367   118.19535022
 H      2   1   3     1.095971754244   110.88136410   237.16593327
 H      8   7   6     1.094798839429   112.11984592   336.19257882
 H      8   7   6     1.097616180853   112.72957237   216.70077702
 H      8   7   6     1.094999729632   109.59088755    96.17700277
 H      9   7   6     1.004945482991   118.72523136   179.52996377
 H     12  10   9     1.012029913493   116.57672760   186.53114695
 H     13  12  10     1.094377113861   122.05081220   162.41140546
 H     15  14  13     1.087939924138   120.42243522     9.55966668
 H     16  15  14     1.088386045577   119.73460342   177.73150504
 H     17  16  15     1.082280127910   120.00463204   177.61661646
 H     19  18  17     0.968574472965   107.31911596     5.09740636
 H     20  18  17     1.079774027024   115.47962531   177.67431810

---------------------------
INTERNAL COORDINATES (A.U.)
---------------------------
 C      0   0   0     0.000000000000     0.00000000     0.00000000
 C      1   0   0     2.912465899134     0.00000000     0.00000000
 O      2   1   0     2.714090007264   106.08684112     0.00000000
 C      3   2   1     2.575076960750   121.17832366   180.00000391
 O      4   3   2     2.305253161233   124.16589296   358.73646287
 C      4   3   2     2.816949374426   110.46504087   189.07321493
 C      6   4   3     2.566985525627   126.14981503   318.44558354
 C      7   6   4     2.857745868351   127.90215846     0.71942740
 N      7   6   4     2.658263466629   119.35053632   191.42008753
 C      9   7   6     2.607928013922   126.04059593   356.40195074
 S     10   9   7     3.126369194689   121.63098076   186.99832769
 N     10   9   7     2.603563574090   116.21977273   357.22039453
 C     12  10   9     2.785166181626   123.20603076     5.99760670
 C     13  12  10     2.963369214744    90.91228702   261.97068579
 C     14  13  12     2.678732022662   113.74847246   219.69614580
 C     15  14  13     2.644857742634   122.45468388   193.79669028
 C     16  15  14     2.642734448880   119.51294033   359.90422950
 C     17  16  15     2.639249705826   119.67761681   358.84588193
 O     18  17  16     2.564093771632   119.80491963   177.90101411
 C     18  17  16     2.638528711853   120.73177999     0.90965580
 H      1   2   3     2.083444757831   111.60903425   195.82164428
 H      1   2   3     2.074557202840   109.67701821    74.40117317
 H      1   2   3     2.076229581703   110.00945384   316.40658621
 H      2   1   3     2.075477472546   109.79407367   118.19535022
 H      2   1   3     2.071086466034   110.88136410   237.16593327
 H      8   7   6     2.068869978256   112.11984592   336.19257882
 H      8   7   6     2.074193981973   112.72957237   216.70077702
 H      8   7   6     2.069249605723   109.59088755    96.17700277
 H      9   7   6     1.899071742373   118.72523136   179.52996377
 H     12  10   9     1.912459375839   116.57672760   186.53114695
 H     13  12  10     2.068073032428   122.05081220   162.41140546
 H     15  14  13     2.055908506779   120.42243522     9.55966668
 H     16  15  14     2.056751554122   119.73460342   177.73150504
 H     17  16  15     2.045213041935   120.00463204   177.61661646
 H     19  18  17     1.830340494210   107.31911596     5.09740636
 H     20  18  17     2.040477197597   115.47962531   177.67431810

---------------------
BASIS SET INFORMATION
---------------------
There are 5 groups of distinct atoms

 Group   1 Type C   : 18s5p2d1f contracted to 4s3p2d1f pattern {8811/311/11/1}
 Group   2 Type O   : 18s5p2d1f contracted to 4s3p2d1f pattern {8811/311/11/1}
 Group   3 Type N   : 18s5p2d1f contracted to 4s3p2d1f pattern {8811/311/11/1}
 Group   4 Type S   : 41s16p2d1f contracted to 5s4p2d1f pattern {13131311/7711/11/1}
 Group   5 Type H   : 5s2p1d contracted to 3s2p1d pattern {311/11/1}

Atom   0C    basis set group =>   1
Atom   1C    basis set group =>   1
Atom   2O    basis set group =>   2
Atom   3C    basis set group =>   1
Atom   4O    basis set group =>   2
Atom   5C    basis set group =>   1
Atom   6C    basis set group =>   1
Atom   7C    basis set group =>   1
Atom   8N    basis set group =>   3
Atom   9C    basis set group =>   1
Atom  10S    basis set group =>   4
Atom  11N    basis set group =>   3
Atom  12C    basis set group =>   1
Atom  13C    basis set group =>   1
Atom  14C    basis set group =>   1
Atom  15C    basis set group =>   1
Atom  16C    basis set group =>   1
Atom  17C    basis set group =>   1
Atom  18O    basis set group =>   2
Atom  19C    basis set group =>   1
Atom  20H    basis set group =>   5
Atom  21H    basis set group =>   5
Atom  22H    basis set group =>   5
Atom  23H    basis set group =>   5
Atom  24H    basis set group =>   5
Atom  25H    basis set group =>   5
Atom  26H    basis set group =>   5
Atom  27H    basis set group =>   5
Atom  28H    basis set group =>   5
Atom  29H    basis set group =>   5
Atom  30H    basis set group =>   5
Atom  31H    basis set group =>   5
Atom  32H    basis set group =>   5
Atom  33H    basis set group =>   5
Atom  34H    basis set group =>   5
Atom  35H    basis set group =>   5
---------------------------------
AUXILIARY/C BASIS SET INFORMATION
---------------------------------
There are 5 groups of distinct atoms

 Group   1 Type C   : 8s6p5d3f1g contracted to 8s6p5d3f1g pattern {11111111/111111/11111/111/1}
 Group   2 Type O   : 8s6p5d3f1g contracted to 8s6p5d3f1g pattern {11111111/111111/11111/111/1}
 Group   3 Type N   : 8s6p5d3f1g contracted to 8s6p5d3f1g pattern {11111111/111111/11111/111/1}
 Group   4 Type S   : 10s8p7d5f2g contracted to 10s8p7d5f2g pattern {1111111111/11111111/1111111/11111/11}
 Group   5 Type H   : 4s3p2d1f contracted to 4s3p2d1f pattern {1111/111/11/1}

Atom   0C    basis set group =>   1
Atom   1C    basis set group =>   1
Atom   2O    basis set group =>   2
Atom   3C    basis set group =>   1
Atom   4O    basis set group =>   2
Atom   5C    basis set group =>   1
Atom   6C    basis set group =>   1
Atom   7C    basis set group =>   1
Atom   8N    basis set group =>   3
Atom   9C    basis set group =>   1
Atom  10S    basis set group =>   4
Atom  11N    basis set group =>   3
Atom  12C    basis set group =>   1
Atom  13C    basis set group =>   1
Atom  14C    basis set group =>   1
Atom  15C    basis set group =>   1
Atom  16C    basis set group =>   1
Atom  17C    basis set group =>   1
Atom  18O    basis set group =>   2
Atom  19C    basis set group =>   1
Atom  20H    basis set group =>   5
Atom  21H    basis set group =>   5
Atom  22H    basis set group =>   5
Atom  23H    basis set group =>   5
Atom  24H    basis set group =>   5
Atom  25H    basis set group =>   5
Atom  26H    basis set group =>   5
Atom  27H    basis set group =>   5
Atom  28H    basis set group =>   5
Atom  29H    basis set group =>   5
Atom  30H    basis set group =>   5
Atom  31H    basis set group =>   5
Atom  32H    basis set group =>   5
Atom  33H    basis set group =>   5
Atom  34H    basis set group =>   5
Atom  35H    basis set group =>   5
------------------------------------------------------------------------------
                           ORCA GTO INTEGRAL CALCULATION
------------------------------------------------------------------------------

                         BASIS SET STATISTICS AND STARTUP INFO

 # of primitive gaussian shells          ...  682
 # of primitive gaussian functions       ... 1312
 # of contracted shells                  ...  298
 # of contracted basis functions         ...  828
 Highest angular momentum                ...    3
 Maximum contraction depth               ...   13
 Integral package used                   ... LIBINT
 Integral threshhold            Thresh   ...  2.500e-11
 Primitive cut-off              TCut     ...  2.500e-12


------------------------------ INTEGRAL EVALUATION ----------------------------


 * One electron integrals 
 Pre-screening matrix                    ... done
 Shell pair data                         ... done (   0.014 sec)

-------------------------------------------------------------------------------
                                 ORCA SCF
-------------------------------------------------------------------------------

------------
SCF SETTINGS
------------
Hamiltonian:
 Ab initio Hamiltonian  Method          .... Hartree-Fock(GTOs)


General Settings:
 Integral files         IntName         .... G2_CONFS/Conf966.orca
 Hartree-Fock type      HFTyp           .... RHF
 Total Charge           Charge          ....    0
 Multiplicity           Mult            ....    1
 Number of Electrons    NEL             ....  154
 Basis Dimension        Dim             ....  828
 Nuclear Repulsion      ENuc            ....   1731.1004789534 Eh

Convergence Acceleration:
 DIIS                   CNVDIIS         .... on
   Start iteration      DIISMaxIt       ....    12
   Startup error        DIISStart       ....  0.200000
   # of expansion vecs  DIISMaxEq       ....     5
   Bias factor          DIISBfac        ....   1.050
   Max. coefficient     DIISMaxC        ....  10.000
 Newton-Raphson         CNVNR           .... off
 SOSCF                  CNVSOSCF        .... on
   Start iteration      SOSCFMaxIt      ....   150
   Startup grad/error   SOSCFStart      ....  0.003300
 Level Shifting         CNVShift        .... on
   Level shift para.    LevelShift      ....    0.2500
   Turn off err/grad.   ShiftErr        ....    0.0010
 Zerner damping         CNVZerner       .... off
 Static damping         CNVDamp         .... on
   Fraction old density DampFac         ....    0.7000
   Max. Damping (<1)    DampMax         ....    0.9800
   Min. Damping (>=0)   DampMin         ....    0.0000
   Turn off err/grad.   DampErr         ....    0.1000
 Fernandez-Rico         CNVRico         .... off

SCF Procedure:
 Maximum # iterations   MaxIter         ....   125
 SCF integral mode      SCFMode         .... Direct
   Integral package                     .... LIBINT
 Reset frequency        DirectResetFreq ....    20
 Integral Threshold     Thresh          ....  2.500e-11 Eh
 Primitive CutOff       TCut            ....  2.500e-12 Eh

Convergence Tolerance:
 Convergence Check Mode ConvCheckMode   .... Total+1el-Energy
 Convergence forced     ConvForced      .... 1
 Energy Change          TolE            ....  1.000e-08 Eh
 1-El. energy change                    ....  1.000e-05 Eh
 Orbital Gradient       TolG            ....  1.000e-05
 Orbital Rotation angle TolX            ....  1.000e-05
 DIIS Error             TolErr          ....  5.000e-07


Diagonalization of the overlap matrix:
Smallest eigenvalue                        ... 3.280e-05
Time for diagonalization                   ...    0.113 sec
Threshold for overlap eigenvalues          ... 1.000e-08
Number of eigenvalues below threshold      ... 0
Time for construction of square roots      ...    0.076 sec
Total time needed                          ...    0.192 sec

-------------------
DFT GRID GENERATION
-------------------

General Integration Accuracy     IntAcc      ...  4.340
Radial Grid Type                 RadialGrid  ... Gauss-Chebyshev
Angular Grid (max. acc.)         AngularGrid ... Lebedev-110
Angular grid pruning method      GridPruning ... 3 (G Style)
Weight generation scheme         WeightScheme... Becke
Basis function cutoff            BFCut       ...    1.0000e-11
Integration weight cutoff        WCut        ...    1.0000e-14
Grids for H and He will be reduced by one unit

# of grid points (after initial pruning)     ...  46246 (   0.0 sec)
# of grid points (after weights+screening)   ...  41210 (   0.3 sec)
nearest neighbour list constructed           ...    0.0 sec
Grid point re-assignment to atoms done       ...    0.0 sec
Grid point division into batches done        ...    0.0 sec
Reduced shell lists constructed in    0.9 sec

Total number of grid points                  ...    41210
Total number of batches                      ...      660
Average number of points per batch           ...       62
Average number of grid points per atom       ...     1145
Average number of shells per batch           ...   151.05 (50.69%)
Average number of basis functions per batch  ...   384.37 (46.42%)
Average number of large shells per batch     ...    96.90 (64.15%)
Average number of large basis fcns per batch ...   249.01 (64.79%)
Maximum spatial batch extension              ...  21.07, 19.63, 19.86 au
Average spatial batch extension              ...   3.50,  3.33,  3.52 au

Time for grid setup =    1.275 sec

------------------------------
INITIAL GUESS: MODEL POTENTIAL
------------------------------
Loading Hartree-Fock densities                     ... done
Calculating cut-offs                               ... done
Setting up the integral package                    ... done
Initializing the effective Hamiltonian             ... done
Starting the Coulomb interaction                   ... done (   3.1 sec)
Reading the grid                                   ... done
Mapping shells                                     ... done
Starting the XC term evaluation                    ... done (   1.3 sec)
Transforming the Hamiltonian                       ... done (   0.1 sec)
Diagonalizing the Hamiltonian                      ... done (   0.1 sec)
Back transforming the eigenvectors                 ... done (   0.0 sec)
Now organizing SCF variables                       ... done
                      ------------------
                      INITIAL GUESS DONE (   6.1 sec)
                      ------------------
--------------
SCF ITERATIONS
--------------
ITER       Energy         Delta-E        Max-DP      RMS-DP      [F,P]     Damp
               ***  Starting incremental Fock matrix formation  ***
  0  -1269.9290252822   0.000000000000 0.04971619  0.00045287  0.3165836 0.7000
  1  -1270.1987350085  -0.269709726319 0.03633551  0.00036829  0.1879883 0.7000
                               ***Turning on DIIS***
  2  -1270.3664491891  -0.167714180635 0.02599734  0.00024582  0.1097185 0.7000
  3  -1272.5045178576  -2.138068668438 0.06342762  0.00052231  0.0829620 0.0000
  4  -1270.6778008847   1.826716972847 0.00829316  0.00010409  0.0069312 0.0000
  5  -1270.7407894774  -0.062988592659 0.00430280  0.00005412  0.0036766 0.0000
                      *** Initiating the SOSCF procedure ***
                           *** Shutting down DIIS ***
                      *** Re-Reading the Fockian *** 
                      *** Removing any level shift *** 
ITER      Energy       Delta-E        Grad      Rot      Max-DP    RMS-DP
  6  -1270.71641449   0.0243749897  0.002225  0.002225  0.001978  0.000028
               *** Restarting incremental Fock matrix formation ***
  7  -1270.73072116  -0.0143066697  0.001195  0.002895  0.001360  0.000018
  8  -1270.73077416  -0.0000530070  0.000563  0.003484  0.001502  0.000020
  9  -1270.73079451  -0.0000203421  0.000153  0.000348  0.000346  0.000005
 10  -1270.73079719  -0.0000026830  0.000048  0.000126  0.000165  0.000002
 11  -1270.73079747  -0.0000002814  0.000020  0.000130  0.000119  0.000001
 12  -1270.73079755  -0.0000000819  0.000011  0.000041  0.000033  0.000000
 13  -1270.73079756  -0.0000000045  0.000004  0.000011  0.000007  0.000000
                  ***Gradient check signals convergence***
              ***Rediagonalizing the Fockian in SOSCF/NRSCF***

               *****************************************************
               *                     SUCCESS                       *
               *           SCF CONVERGED AFTER  14 CYCLES          *
               *****************************************************


----------------
TOTAL SCF ENERGY
----------------

Total Energy       :        -1270.73079755 Eh          -34578.34293 eV

Components:
Nuclear Repulsion  :         1731.10047895 Eh           47105.63884 eV
Electronic Energy  :        -3001.83127651 Eh          -81683.98177 eV
One Electron Energy:        -5183.31613396 Eh         -141045.20260 eV
Two Electron Energy:         2181.48485745 Eh           59361.22084 eV

Virial components:
Potential Energy   :        -2539.77993623 Eh          -69110.92560 eV
Kinetic Energy     :         1269.04913867 Eh           34532.58267 eV
Virial Ratio       :            2.00132513


---------------
SCF CONVERGENCE
---------------

  Last Energy change         ...    2.5348e-09  Tolerance :   1.0000e-08
  Last MAX-Density change    ...    2.7915e-06  Tolerance :   1.0000e-07
  Last RMS-Density change    ...    4.3251e-08  Tolerance :   5.0000e-09
  Last Orbital Gradient      ...    1.5151e-06  Tolerance :   1.0000e-05
  Last Orbital Rotation      ...    4.0772e-06  Tolerance :   1.0000e-05

             **** THE GBW FILE WAS UPDATED (G2_CONFS/Conf966.orca.gbw) ****
             **** DENSITY FILE WAS UPDATED (G2_CONFS/Conf966.orca.scfp) ****
             **** ENERGY FILE WAS UPDATED (G2_CONFS/Conf966.orca.en.tmp) ****
             **** THE GBW FILE WAS UPDATED (G2_CONFS/Conf966.orca.gbw) ****
             **** DENSITY FILE WAS UPDATED (G2_CONFS/Conf966.orca.scfp) ****
----------------
ORBITAL ENERGIES
----------------

  NO   OCC          E(Eh)            E(eV) 
   0   2.0000     -91.889819     -2500.4491 
   1   2.0000     -20.607082      -560.7472 
   2   2.0000     -20.592158      -560.3411 
   3   2.0000     -20.551711      -559.2405 
   4   2.0000     -15.624437      -425.1626 
   5   2.0000     -15.610859      -424.7931 
   6   2.0000     -11.399123      -310.1859 
   7   2.0000     -11.385532      -309.8161 
   8   2.0000     -11.329713      -308.2972 
   9   2.0000     -11.312992      -307.8422 
  10   2.0000     -11.306596      -307.6681 
  11   2.0000     -11.300727      -307.5084 
  12   2.0000     -11.267287      -306.5985 
  13   2.0000     -11.259104      -306.3758 
  14   2.0000     -11.258271      -306.3531 
  15   2.0000     -11.246555      -306.0343 
  16   2.0000     -11.236048      -305.7484 
  17   2.0000     -11.232793      -305.6598 
  18   2.0000     -11.230691      -305.6026 
  19   2.0000     -11.226233      -305.4813 
  20   2.0000      -8.894728      -242.0379 
  21   2.0000      -6.576285      -178.9498 
  22   2.0000      -6.574295      -178.8957 
  23   2.0000      -6.573703      -178.8795 
  24   2.0000      -1.457193       -39.6522 
  25   2.0000      -1.412198       -38.4279 
  26   2.0000      -1.362594       -37.0781 
  27   2.0000      -1.337819       -36.4039 
  28   2.0000      -1.240706       -33.7613 
  29   2.0000      -1.155704       -31.4483 
  30   2.0000      -1.122001       -30.5312 
  31   2.0000      -1.046725       -28.4828 
  32   2.0000      -1.037672       -28.2365 
  33   2.0000      -1.010880       -27.5074 
  34   2.0000      -0.996412       -27.1138 
  35   2.0000      -0.984499       -26.7896 
  36   2.0000      -0.923024       -25.1168 
  37   2.0000      -0.892047       -24.2738 
  38   2.0000      -0.846971       -23.0472 
  39   2.0000      -0.835753       -22.7420 
  40   2.0000      -0.825744       -22.4696 
  41   2.0000      -0.819399       -22.2970 
  42   2.0000      -0.763995       -20.7894 
  43   2.0000      -0.736922       -20.0527 
  44   2.0000      -0.719731       -19.5849 
  45   2.0000      -0.697472       -18.9792 
  46   2.0000      -0.691372       -18.8132 
  47   2.0000      -0.684210       -18.6183 
  48   2.0000      -0.680427       -18.5154 
  49   2.0000      -0.662872       -18.0377 
  50   2.0000      -0.657417       -17.8892 
  51   2.0000      -0.642880       -17.4936 
  52   2.0000      -0.634446       -17.2641 
  53   2.0000      -0.601272       -16.3615 
  54   2.0000      -0.599425       -16.3112 
  55   2.0000      -0.595284       -16.1985 
  56   2.0000      -0.592525       -16.1234 
  57   2.0000      -0.579195       -15.7607 
  58   2.0000      -0.570534       -15.5250 
  59   2.0000      -0.565514       -15.3884 
  60   2.0000      -0.558785       -15.2053 
  61   2.0000      -0.554981       -15.1018 
  62   2.0000      -0.541501       -14.7350 
  63   2.0000      -0.521681       -14.1957 
  64   2.0000      -0.514286       -13.9944 
  65   2.0000      -0.511544       -13.9198 
  66   2.0000      -0.507266       -13.8034 
  67   2.0000      -0.501097       -13.6356 
  68   2.0000      -0.489880       -13.3303 
  69   2.0000      -0.463905       -12.6235 
  70   2.0000      -0.461312       -12.5529 
  71   2.0000      -0.451386       -12.2828 
  72   2.0000      -0.344583        -9.3766 
  73   2.0000      -0.332891        -9.0584 
  74   2.0000      -0.326215        -8.8768 
  75   2.0000      -0.318806        -8.6752 
  76   2.0000      -0.303536        -8.2596 
  77   0.0000       0.068825         1.8728 
  78   0.0000       0.118919         3.2360 
  79   0.0000       0.122713         3.3392 
  80   0.0000       0.135727         3.6933 
  81   0.0000       0.136831         3.7234 
  82   0.0000       0.139641         3.7998 
  83   0.0000       0.146701         3.9919 
  84   0.0000       0.159306         4.3349 
  85   0.0000       0.161033         4.3819 
  86   0.0000       0.172829         4.7029 
  87   0.0000       0.175704         4.7811 
  88   0.0000       0.184075         5.0089 
  89   0.0000       0.196083         5.3357 
  90   0.0000       0.199597         5.4313 
  91   0.0000       0.210177         5.7192 
  92   0.0000       0.215030         5.8513 
  93   0.0000       0.218144         5.9360 
  94   0.0000       0.230141         6.2624 
  95   0.0000       0.236666         6.4400 
  96   0.0000       0.246098         6.6967 
  97   0.0000       0.251111         6.8331 
  98   0.0000       0.253015         6.8849 
  99   0.0000       0.263523         7.1708 
 100   0.0000       0.284711         7.7474 
 101   0.0000       0.292300         7.9539 
 102   0.0000       0.308210         8.3868 
 103   0.0000       0.314895         8.5687 
 104   0.0000       0.328248         8.9321 
 105   0.0000       0.333511         9.0753 
 106   0.0000       0.344241         9.3673 
 107   0.0000       0.352248         9.5852 
 108   0.0000       0.353383         9.6160 
 109   0.0000       0.361120         9.8266 
 110   0.0000       0.367657        10.0044 
 111   0.0000       0.376330        10.2405 
 112   0.0000       0.380976        10.3669 
 113   0.0000       0.391278        10.6472 
 114   0.0000       0.399438        10.8693 
 115   0.0000       0.411020        11.1844 
 116   0.0000       0.417493        11.3606 
 117   0.0000       0.422023        11.4838 
 118   0.0000       0.431403        11.7391 
 119   0.0000       0.434101        11.8125 
 120   0.0000       0.440973        11.9995 
 121   0.0000       0.451750        12.2927 
 122   0.0000       0.455199        12.3866 
 123   0.0000       0.465436        12.6651 
 124   0.0000       0.470556        12.8045 
 125   0.0000       0.473607        12.8875 
 126   0.0000       0.475089        12.9278 
 127   0.0000       0.480894        13.0858 
 128   0.0000       0.487560        13.2672 
 129   0.0000       0.496533        13.5113 
 130   0.0000       0.497770        13.5450 
 131   0.0000       0.507524        13.8104 
 132   0.0000       0.509983        13.8773 
 133   0.0000       0.516213        14.0469 
 134   0.0000       0.519637        14.1400 
 135   0.0000       0.522103        14.2071 
 136   0.0000       0.533556        14.5188 
 137   0.0000       0.535944        14.5838 
 138   0.0000       0.544316        14.8116 
 139   0.0000       0.547387        14.8952 
 140   0.0000       0.550013        14.9666 
 141   0.0000       0.556945        15.1552 
 142   0.0000       0.561728        15.2854 
 143   0.0000       0.569491        15.4966 
 144   0.0000       0.570657        15.5284 
 145   0.0000       0.577906        15.7256 
 146   0.0000       0.580901        15.8071 
 147   0.0000       0.587916        15.9980 
 148   0.0000       0.595222        16.1968 
 149   0.0000       0.602274        16.3887 
 150   0.0000       0.603495        16.4219 
 151   0.0000       0.607049        16.5186 
 152   0.0000       0.610861        16.6224 
 153   0.0000       0.615429        16.7467 
 154   0.0000       0.622537        16.9401 
 155   0.0000       0.626563        17.0497 
 156   0.0000       0.631045        17.1716 
 157   0.0000       0.633356        17.2345 
 158   0.0000       0.639980        17.4147 
 159   0.0000       0.647063        17.6075 
 160   0.0000       0.650070        17.6893 
 161   0.0000       0.653253        17.7759 
 162   0.0000       0.655976        17.8500 
 163   0.0000       0.657419        17.8893 
 164   0.0000       0.668266        18.1844 
 165   0.0000       0.672453        18.2984 
 166   0.0000       0.676398        18.4057 
 167   0.0000       0.685392        18.6505 
 168   0.0000       0.687040        18.6953 
 169   0.0000       0.693378        18.8678 
 170   0.0000       0.697400        18.9772 
 171   0.0000       0.703113        19.1327 
 172   0.0000       0.712310        19.3829 
 173   0.0000       0.715202        19.4616 
 174   0.0000       0.726745        19.7757 
 175   0.0000       0.732257        19.9257 
 176   0.0000       0.741606        20.1801 
 177   0.0000       0.744185        20.2503 
 178   0.0000       0.756427        20.5834 
 179   0.0000       0.760019        20.6812 
 180   0.0000       0.763556        20.7774 
 181   0.0000       0.769420        20.9370 
 182   0.0000       0.783527        21.3209 
 183   0.0000       0.788651        21.4603 
 184   0.0000       0.798712        21.7341 
 185   0.0000       0.810130        22.0448 
 186   0.0000       0.820022        22.3139 
 187   0.0000       0.830933        22.6108 
 188   0.0000       0.838267        22.8104 
 189   0.0000       0.846820        23.0431 
 190   0.0000       0.850070        23.1316 
 191   0.0000       0.862066        23.4580 
 192   0.0000       0.864578        23.5264 
 193   0.0000       0.872268        23.7356 
 194   0.0000       0.879586        23.9348 
 195   0.0000       0.881618        23.9900 
 196   0.0000       0.889353        24.2005 
 197   0.0000       0.894318        24.3356 
 198   0.0000       0.900414        24.5015 
 199   0.0000       0.907881        24.7047 
 200   0.0000       0.916738        24.9457 
 201   0.0000       0.920357        25.0442 
 202   0.0000       0.925474        25.1834 
 203   0.0000       0.930606        25.3231 
 204   0.0000       0.933270        25.3956 
 205   0.0000       0.950796        25.8725 
 206   0.0000       0.957266        26.0485 
 207   0.0000       0.961179        26.1550 
 208   0.0000       0.971220        26.4282 
 209   0.0000       0.979331        26.6490 
 210   0.0000       0.989858        26.9354 
 211   0.0000       0.992821        27.0160 
 212   0.0000       1.002514        27.2798 
 213   0.0000       1.010288        27.4913 
 214   0.0000       1.011947        27.5365 
 215   0.0000       1.019756        27.7490 
 216   0.0000       1.024991        27.8914 
 217   0.0000       1.026178        27.9237 
 218   0.0000       1.034420        28.1480 
 219   0.0000       1.035708        28.1830 
 220   0.0000       1.051609        28.6157 
 221   0.0000       1.056243        28.7418 
 222   0.0000       1.062031        28.8993 
 223   0.0000       1.070766        29.1370 
 224   0.0000       1.080170        29.3929 
 225   0.0000       1.088888        29.6302 
 226   0.0000       1.100990        29.9595 
 227   0.0000       1.111425        30.2434 
 228   0.0000       1.119828        30.4721 
 229   0.0000       1.121685        30.5226 
 230   0.0000       1.134439        30.8697 
 231   0.0000       1.143226        31.1087 
 232   0.0000       1.151301        31.3285 
 233   0.0000       1.160358        31.5749 
 234   0.0000       1.169429        31.8218 
 235   0.0000       1.174319        31.9548 
 236   0.0000       1.178191        32.0602 
 237   0.0000       1.186825        32.2951 
 238   0.0000       1.188672        32.3454 
 239   0.0000       1.198273        32.6067 
 240   0.0000       1.200499        32.6672 
 241   0.0000       1.210700        32.9448 
 242   0.0000       1.216880        33.1130 
 243   0.0000       1.220123        33.2012 
 244   0.0000       1.223214        33.2853 
 245   0.0000       1.236178        33.6381 
 246   0.0000       1.246315        33.9140 
 247   0.0000       1.250583        34.0301 
 248   0.0000       1.258121        34.2352 
 249   0.0000       1.260835        34.3091 
 250   0.0000       1.276944        34.7474 
 251   0.0000       1.282817        34.9072 
 252   0.0000       1.287392        35.0317 
 253   0.0000       1.292019        35.1576 
 254   0.0000       1.297888        35.3173 
 255   0.0000       1.303747        35.4767 
 256   0.0000       1.308090        35.5949 
 257   0.0000       1.314350        35.7653 
 258   0.0000       1.320716        35.9385 
 259   0.0000       1.324850        36.0510 
 260   0.0000       1.342357        36.5274 
 261   0.0000       1.348778        36.7021 
 262   0.0000       1.353497        36.8305 
 263   0.0000       1.364798        37.1380 
 264   0.0000       1.367671        37.2162 
 265   0.0000       1.377491        37.4834 
 266   0.0000       1.395443        37.9719 
 267   0.0000       1.402309        38.1588 
 268   0.0000       1.407297        38.2945 
 269   0.0000       1.419264        38.6201 
 270   0.0000       1.430469        38.9250 
 271   0.0000       1.431605        38.9559 
 272   0.0000       1.436590        39.0916 
 273   0.0000       1.443397        39.2768 
 274   0.0000       1.447620        39.3918 
 275   0.0000       1.456840        39.6426 
 276   0.0000       1.465948        39.8905 
 277   0.0000       1.481452        40.3124 
 278   0.0000       1.485452        40.4212 
 279   0.0000       1.490921        40.5700 
 280   0.0000       1.493025        40.6273 
 281   0.0000       1.501770        40.8652 
 282   0.0000       1.505616        40.9699 
 283   0.0000       1.515468        41.2380 
 284   0.0000       1.523535        41.4575 
 285   0.0000       1.527838        41.5746 
 286   0.0000       1.540411        41.9167 
 287   0.0000       1.544301        42.0226 
 288   0.0000       1.546312        42.0773 
 289   0.0000       1.556576        42.3566 
 290   0.0000       1.559934        42.4479 
 291   0.0000       1.565012        42.5861 
 292   0.0000       1.570813        42.7440 
 293   0.0000       1.588296        43.2197 
 294   0.0000       1.590133        43.2697 
 295   0.0000       1.594978        43.4016 
 296   0.0000       1.608127        43.7593 
 297   0.0000       1.614295        43.9272 
 298   0.0000       1.623056        44.1656 
 299   0.0000       1.628283        44.3078 
 300   0.0000       1.632431        44.4207 
 301   0.0000       1.637356        44.5547 
 302   0.0000       1.642777        44.7022 
 303   0.0000       1.656047        45.0633 
 304   0.0000       1.661938        45.2236 
 305   0.0000       1.676322        45.6150 
 306   0.0000       1.679520        45.7021 
 307   0.0000       1.688751        45.9532 
 308   0.0000       1.698240        46.2115 
 309   0.0000       1.705007        46.3956 
 310   0.0000       1.717279        46.7295 
 311   0.0000       1.724764        46.9332 
 312   0.0000       1.732694        47.1490 
 313   0.0000       1.736955        47.2650 
 314   0.0000       1.751252        47.6540 
 315   0.0000       1.756146        47.7871 
 316   0.0000       1.763967        48.0000 
 317   0.0000       1.770233        48.1705 
 318   0.0000       1.782985        48.5175 
 319   0.0000       1.786718        48.6191 
 320   0.0000       1.812672        49.3253 
 321   0.0000       1.817689        49.4618 
 322   0.0000       1.824474        49.6465 
 323   0.0000       1.839125        50.0451 
 324   0.0000       1.859049        50.5873 
 325   0.0000       1.869495        50.8715 
 326   0.0000       1.890798        51.4512 
 327   0.0000       1.899367        51.6844 
 328   0.0000       1.904263        51.8176 
 329   0.0000       1.921378        52.2833 
 330   0.0000       1.924913        52.3795 
 331   0.0000       1.939461        52.7754 
 332   0.0000       1.946251        52.9602 
 333   0.0000       1.958842        53.3028 
 334   0.0000       1.973436        53.6999 
 335   0.0000       1.977645        53.8145 
 336   0.0000       1.992209        54.2108 
 337   0.0000       1.994867        54.2831 
 338   0.0000       2.006876        54.6099 
 339   0.0000       2.012281        54.7570 
 340   0.0000       2.030686        55.2578 
 341   0.0000       2.052532        55.8522 
 342   0.0000       2.062643        56.1274 
 343   0.0000       2.073426        56.4208 
 344   0.0000       2.096188        57.0402 
 345   0.0000       2.112425        57.4820 
 346   0.0000       2.146008        58.3959 
 347   0.0000       2.160541        58.7913 
 348   0.0000       2.169739        59.0416 
 349   0.0000       2.180058        59.3224 
 350   0.0000       2.192814        59.6695 
 351   0.0000       2.197784        59.8048 
 352   0.0000       2.220053        60.4107 
 353   0.0000       2.227479        60.6128 
 354   0.0000       2.252588        61.2960 
 355   0.0000       2.263986        61.6062 
 356   0.0000       2.288718        62.2792 
 357   0.0000       2.292454        62.3809 
 358   0.0000       2.302189        62.6457 
 359   0.0000       2.310928        62.8835 
 360   0.0000       2.328217        63.3540 
 361   0.0000       2.338271        63.6276 
 362   0.0000       2.343214        63.7621 
 363   0.0000       2.351202        63.9795 
 364   0.0000       2.370840        64.5138 
 365   0.0000       2.378902        64.7332 
 366   0.0000       2.385920        64.9242 
 367   0.0000       2.402035        65.3627 
 368   0.0000       2.414279        65.6959 
 369   0.0000       2.430374        66.1338 
 370   0.0000       2.435665        66.2778 
 371   0.0000       2.454491        66.7901 
 372   0.0000       2.466863        67.1268 
 373   0.0000       2.477200        67.4080 
 374   0.0000       2.491521        67.7977 
 375   0.0000       2.500736        68.0485 
 376   0.0000       2.520351        68.5822 
 377   0.0000       2.523010        68.6546 
 378   0.0000       2.529883        68.8416 
 379   0.0000       2.553334        69.4797 
 380   0.0000       2.563009        69.7430 
 381   0.0000       2.580516        70.2194 
 382   0.0000       2.591582        70.5205 
 383   0.0000       2.596111        70.6438 
 384   0.0000       2.603166        70.8357 
 385   0.0000       2.605642        70.9031 
 386   0.0000       2.620316        71.3024 
 387   0.0000       2.636952        71.7551 
 388   0.0000       2.642697        71.9115 
 389   0.0000       2.660369        72.3923 
 390   0.0000       2.681089        72.9561 
 391   0.0000       2.687034        73.1179 
 392   0.0000       2.699809        73.4655 
 393   0.0000       2.709976        73.7422 
 394   0.0000       2.719793        74.0093 
 395   0.0000       2.725744        74.1713 
 396   0.0000       2.733123        74.3721 
 397   0.0000       2.747323        74.7585 
 398   0.0000       2.750877        74.8552 
 399   0.0000       2.758966        75.0753 
 400   0.0000       2.767102        75.2967 
 401   0.0000       2.779836        75.6432 
 402   0.0000       2.791167        75.9515 
 403   0.0000       2.805522        76.3421 
 404   0.0000       2.811170        76.4958 
 405   0.0000       2.821024        76.7640 
 406   0.0000       2.835173        77.1490 
 407   0.0000       2.837312        77.2072 
 408   0.0000       2.845144        77.4203 
 409   0.0000       2.858511        77.7840 
 410   0.0000       2.876518        78.2740 
 411   0.0000       2.886706        78.5513 
 412   0.0000       2.895570        78.7925 
 413   0.0000       2.903964        79.0209 
 414   0.0000       2.913932        79.2921 
 415   0.0000       2.923158        79.5432 
 416   0.0000       2.926872        79.6442 
 417   0.0000       2.936061        79.8943 
 418   0.0000       2.945978        80.1642 
 419   0.0000       2.951424        80.3123 
 420   0.0000       2.962436        80.6120 
 421   0.0000       2.970699        80.8368 
 422   0.0000       2.991154        81.3934 
 423   0.0000       3.004884        81.7670 
 424   0.0000       3.011185        81.9385 
 425   0.0000       3.020595        82.1946 
 426   0.0000       3.022851        82.2559 
 427   0.0000       3.031252        82.4846 
 428   0.0000       3.038056        82.6697 
 429   0.0000       3.045835        82.8814 
 430   0.0000       3.054542        83.1183 
 431   0.0000       3.064141        83.3795 
 432   0.0000       3.069497        83.5253 
 433   0.0000       3.071558        83.5813 
 434   0.0000       3.077120        83.7327 
 435   0.0000       3.084186        83.9250 
 436   0.0000       3.088990        84.0557 
 437   0.0000       3.093381        84.1752 
 438   0.0000       3.099638        84.3454 
 439   0.0000       3.107818        84.5680 
 440   0.0000       3.110559        84.6426 
 441   0.0000       3.122522        84.9681 
 442   0.0000       3.132522        85.2403 
 443   0.0000       3.136859        85.3583 
 444   0.0000       3.146575        85.6227 
 445   0.0000       3.148837        85.6842 
 446   0.0000       3.161548        86.0301 
 447   0.0000       3.171060        86.2889 
 448   0.0000       3.183816        86.6360 
 449   0.0000       3.195729        86.9602 
 450   0.0000       3.202298        87.1390 
 451   0.0000       3.207169        87.2715 
 452   0.0000       3.216826        87.5343 
 453   0.0000       3.220120        87.6239 
 454   0.0000       3.230424        87.9043 
 455   0.0000       3.231428        87.9316 
 456   0.0000       3.241326        88.2010 
 457   0.0000       3.243920        88.2716 
 458   0.0000       3.259442        88.6939 
 459   0.0000       3.265992        88.8721 
 460   0.0000       3.273832        89.0855 
 461   0.0000       3.278150        89.2030 
 462   0.0000       3.282099        89.3104 
 463   0.0000       3.286919        89.4416 
 464   0.0000       3.297720        89.7355 
 465   0.0000       3.302518        89.8661 
 466   0.0000       3.307770        90.0090 
 467   0.0000       3.316760        90.2536 
 468   0.0000       3.322792        90.4178 
 469   0.0000       3.325157        90.4821 
 470   0.0000       3.336169        90.7818 
 471   0.0000       3.341034        90.9142 
 472   0.0000       3.348216        91.1096 
 473   0.0000       3.355163        91.2986 
 474   0.0000       3.356745        91.3417 
 475   0.0000       3.367397        91.6315 
 476   0.0000       3.372475        91.7697 
 477   0.0000       3.373460        91.7965 
 478   0.0000       3.383111        92.0591 
 479   0.0000       3.391668        92.2920 
 480   0.0000       3.392629        92.3181 
 481   0.0000       3.404031        92.6284 
 482   0.0000       3.407999        92.7364 
 483   0.0000       3.409965        92.7899 
 484   0.0000       3.413048        92.8738 
 485   0.0000       3.421813        93.1123 
 486   0.0000       3.430232        93.3414 
 487   0.0000       3.433756        93.4372 
 488   0.0000       3.434451        93.4562 
 489   0.0000       3.447242        93.8042 
 490   0.0000       3.455156        94.0196 
 491   0.0000       3.455952        94.0412 
 492   0.0000       3.464282        94.2679 
 493   0.0000       3.468237        94.3755 
 494   0.0000       3.474132        94.5359 
 495   0.0000       3.484587        94.8204 
 496   0.0000       3.492157        95.0264 
 497   0.0000       3.497354        95.1678 
 498   0.0000       3.508688        95.4762 
 499   0.0000       3.513574        95.6092 
 500   0.0000       3.517383        95.7129 
 501   0.0000       3.523401        95.8766 
 502   0.0000       3.532681        96.1291 
 503   0.0000       3.542158        96.3870 
 504   0.0000       3.544926        96.4623 
 505   0.0000       3.547896        96.5432 
 506   0.0000       3.558437        96.8300 
 507   0.0000       3.565186        97.0136 
 508   0.0000       3.571762        97.1926 
 509   0.0000       3.586082        97.5822 
 510   0.0000       3.593376        97.7807 
 511   0.0000       3.606745        98.1445 
 512   0.0000       3.608885        98.2028 
 513   0.0000       3.622585        98.5755 
 514   0.0000       3.626258        98.6755 
 515   0.0000       3.631634        98.8218 
 516   0.0000       3.641804        99.0985 
 517   0.0000       3.647874        99.2637 
 518   0.0000       3.658913        99.5641 
 519   0.0000       3.663067        99.6771 
 520   0.0000       3.669352        99.8482 
 521   0.0000       3.670488        99.8791 
 522   0.0000       3.681018       100.1656 
 523   0.0000       3.685952       100.2999 
 524   0.0000       3.692075       100.4665 
 525   0.0000       3.695206       100.5517 
 526   0.0000       3.699802       100.6767 
 527   0.0000       3.708574       100.9154 
 528   0.0000       3.716780       101.1387 
 529   0.0000       3.721053       101.2550 
 530   0.0000       3.727990       101.4438 
 531   0.0000       3.731400       101.5365 
 532   0.0000       3.738634       101.7334 
 533   0.0000       3.741242       101.8044 
 534   0.0000       3.749432       102.0272 
 535   0.0000       3.755156       102.1830 
 536   0.0000       3.761182       102.3470 
 537   0.0000       3.772021       102.6419 
 538   0.0000       3.775644       102.7405 
 539   0.0000       3.783232       102.9470 
 540   0.0000       3.789072       103.1059 
 541   0.0000       3.799541       103.3908 
 542   0.0000       3.807152       103.5979 
 543   0.0000       3.810368       103.6854 
 544   0.0000       3.820604       103.9639 
 545   0.0000       3.825140       104.0873 
 546   0.0000       3.829108       104.1953 
 547   0.0000       3.834495       104.3419 
 548   0.0000       3.840895       104.5161 
 549   0.0000       3.852486       104.8315 
 550   0.0000       3.857057       104.9559 
 551   0.0000       3.862509       105.1042 
 552   0.0000       3.868897       105.2780 
 553   0.0000       3.873439       105.4016 
 554   0.0000       3.880406       105.5912 
 555   0.0000       3.886641       105.7609 
 556   0.0000       3.909327       106.3782 
 557   0.0000       3.916220       106.5658 
 558   0.0000       3.933202       107.0279 
 559   0.0000       3.946713       107.3955 
 560   0.0000       3.952492       107.5528 
 561   0.0000       3.955957       107.6471 
 562   0.0000       3.970650       108.0469 
 563   0.0000       3.971109       108.0594 
 564   0.0000       3.974790       108.1595 
 565   0.0000       3.992434       108.6397 
 566   0.0000       3.998899       108.8156 
 567   0.0000       4.004554       108.9695 
 568   0.0000       4.024730       109.5185 
 569   0.0000       4.031469       109.7019 
 570   0.0000       4.041842       109.9841 
 571   0.0000       4.046742       110.1174 
 572   0.0000       4.050609       110.2227 
 573   0.0000       4.058792       110.4453 
 574   0.0000       4.064569       110.6025 
 575   0.0000       4.068822       110.7183 
 576   0.0000       4.093058       111.3778 
 577   0.0000       4.097360       111.4948 
 578   0.0000       4.101330       111.6029 
 579   0.0000       4.105711       111.7221 
 580   0.0000       4.108896       111.8087 
 581   0.0000       4.119069       112.0856 
 582   0.0000       4.130433       112.3948 
 583   0.0000       4.136069       112.5482 
 584   0.0000       4.137773       112.5945 
 585   0.0000       4.155261       113.0704 
 586   0.0000       4.158690       113.1637 
 587   0.0000       4.164184       113.3132 
 588   0.0000       4.164762       113.3289 
 589   0.0000       4.174635       113.5976 
 590   0.0000       4.181332       113.7798 
 591   0.0000       4.184685       113.8711 
 592   0.0000       4.190942       114.0413 
 593   0.0000       4.202969       114.3686 
 594   0.0000       4.214241       114.6753 
 595   0.0000       4.221696       114.8782 
 596   0.0000       4.225599       114.9844 
 597   0.0000       4.228014       115.0501 
 598   0.0000       4.242216       115.4366 
 599   0.0000       4.245508       115.5261 
 600   0.0000       4.258738       115.8862 
 601   0.0000       4.262878       115.9988 
 602   0.0000       4.269136       116.1691 
 603   0.0000       4.278973       116.4368 
 604   0.0000       4.280664       116.4828 
 605   0.0000       4.298759       116.9752 
 606   0.0000       4.317834       117.4942 
 607   0.0000       4.320612       117.5698 
 608   0.0000       4.326850       117.7396 
 609   0.0000       4.338163       118.0474 
 610   0.0000       4.347687       118.3066 
 611   0.0000       4.350603       118.3859 
 612   0.0000       4.358693       118.6061 
 613   0.0000       4.364350       118.7600 
 614   0.0000       4.371373       118.9511 
 615   0.0000       4.374626       119.0396 
 616   0.0000       4.385062       119.3236 
 617   0.0000       4.397556       119.6636 
 618   0.0000       4.403746       119.8320 
 619   0.0000       4.407309       119.9290 
 620   0.0000       4.410354       120.0118 
 621   0.0000       4.418708       120.2391 
 622   0.0000       4.433409       120.6392 
 623   0.0000       4.436175       120.7144 
 624   0.0000       4.448418       121.0476 
 625   0.0000       4.465077       121.5009 
 626   0.0000       4.469522       121.6219 
 627   0.0000       4.474885       121.7678 
 628   0.0000       4.476059       121.7998 
 629   0.0000       4.488180       122.1296 
 630   0.0000       4.507090       122.6441 
 631   0.0000       4.510712       122.7427 
 632   0.0000       4.517292       122.9218 
 633   0.0000       4.532837       123.3448 
 634   0.0000       4.542716       123.6136 
 635   0.0000       4.544115       123.6517 
 636   0.0000       4.549126       123.7880 
 637   0.0000       4.558075       124.0315 
 638   0.0000       4.563820       124.1879 
 639   0.0000       4.566391       124.2578 
 640   0.0000       4.568279       124.3092 
 641   0.0000       4.580100       124.6309 
 642   0.0000       4.587096       124.8212 
 643   0.0000       4.594877       125.0330 
 644   0.0000       4.600367       125.1824 
 645   0.0000       4.622958       125.7971 
 646   0.0000       4.632862       126.0666 
 647   0.0000       4.642871       126.3389 
 648   0.0000       4.645387       126.4074 
 649   0.0000       4.655266       126.6762 
 650   0.0000       4.658140       126.7544 
 651   0.0000       4.669902       127.0745 
 652   0.0000       4.671069       127.1062 
 653   0.0000       4.685082       127.4876 
 654   0.0000       4.700483       127.9066 
 655   0.0000       4.706187       128.0619 
 656   0.0000       4.714478       128.2875 
 657   0.0000       4.723863       128.5428 
 658   0.0000       4.728383       128.6658 
 659   0.0000       4.741290       129.0171 
 660   0.0000       4.755760       129.4108 
 661   0.0000       4.764639       129.6524 
 662   0.0000       4.789563       130.3306 
 663   0.0000       4.796041       130.5069 
 664   0.0000       4.806841       130.8008 
 665   0.0000       4.826403       131.3331 
 666   0.0000       4.841580       131.7461 
 667   0.0000       4.865214       132.3892 
 668   0.0000       4.889370       133.0465 
 669   0.0000       4.893956       133.1713 
 670   0.0000       4.910705       133.6271 
 671   0.0000       4.912712       133.6817 
 672   0.0000       4.937280       134.3502 
 673   0.0000       4.955429       134.8441 
 674   0.0000       4.981551       135.5549 
 675   0.0000       4.996346       135.9575 
 676   0.0000       5.008634       136.2919 
 677   0.0000       5.030317       136.8819 
 678   0.0000       5.033732       136.9748 
 679   0.0000       5.042497       137.2133 
 680   0.0000       5.061899       137.7413 
 681   0.0000       5.075461       138.1103 
 682   0.0000       5.080302       138.2421 
 683   0.0000       5.087536       138.4389 
 684   0.0000       5.113224       139.1379 
 685   0.0000       5.130549       139.6093 
 686   0.0000       5.134416       139.7145 
 687   0.0000       5.138976       139.8387 
 688   0.0000       5.157519       140.3432 
 689   0.0000       5.169888       140.6798 
 690   0.0000       5.180769       140.9759 
 691   0.0000       5.187924       141.1706 
 692   0.0000       5.193919       141.3337 
 693   0.0000       5.203671       141.5991 
 694   0.0000       5.209180       141.7490 
 695   0.0000       5.226082       142.2089 
 696   0.0000       5.234443       142.4364 
 697   0.0000       5.239645       142.5780 
 698   0.0000       5.266082       143.2974 
 699   0.0000       5.274426       143.5244 
 700   0.0000       5.289116       143.9242 
 701   0.0000       5.293487       144.0431 
 702   0.0000       5.315713       144.6479 
 703   0.0000       5.328790       145.0038 
 704   0.0000       5.333603       145.1347 
 705   0.0000       5.341382       145.3464 
 706   0.0000       5.353117       145.6657 
 707   0.0000       5.364232       145.9682 
 708   0.0000       5.378967       146.3691 
 709   0.0000       5.387078       146.5898 
 710   0.0000       5.396679       146.8511 
 711   0.0000       5.409038       147.1874 
 712   0.0000       5.414175       147.3272 
 713   0.0000       5.462463       148.6412 
 714   0.0000       5.465186       148.7153 
 715   0.0000       5.474911       148.9799 
 716   0.0000       5.488071       149.3380 
 717   0.0000       5.501577       149.7055 
 718   0.0000       5.513516       150.0304 
 719   0.0000       5.523973       150.3149 
 720   0.0000       5.532077       150.5355 
 721   0.0000       5.540951       150.7770 
 722   0.0000       5.558057       151.2424 
 723   0.0000       5.582421       151.9054 
 724   0.0000       5.595819       152.2700 
 725   0.0000       5.602407       152.4492 
 726   0.0000       5.614380       152.7750 
 727   0.0000       5.616966       152.8454 
 728   0.0000       5.624258       153.0438 
 729   0.0000       5.628940       153.1713 
 730   0.0000       5.633152       153.2859 
 731   0.0000       5.654364       153.8631 
 732   0.0000       5.661079       154.0458 
 733   0.0000       5.677068       154.4809 
 734   0.0000       5.690134       154.8364 
 735   0.0000       5.704194       155.2190 
 736   0.0000       5.710284       155.3847 
 737   0.0000       5.721765       155.6972 
 738   0.0000       5.749892       156.4625 
 739   0.0000       5.759616       156.7271 
 740   0.0000       5.781858       157.3324 
 741   0.0000       5.792790       157.6298 
 742   0.0000       5.806828       158.0118 
 743   0.0000       5.817077       158.2907 
 744   0.0000       5.826815       158.5557 
 745   0.0000       5.848939       159.1577 
 746   0.0000       5.873346       159.8219 
 747   0.0000       5.879345       159.9851 
 748   0.0000       5.902372       160.6117 
 749   0.0000       5.942630       161.7072 
 750   0.0000       5.951661       161.9529 
 751   0.0000       5.964667       162.3068 
 752   0.0000       5.987620       162.9314 
 753   0.0000       5.998960       163.2400 
 754   0.0000       6.022530       163.8814 
 755   0.0000       6.030920       164.1097 
 756   0.0000       6.055426       164.7765 
 757   0.0000       6.076095       165.3390 
 758   0.0000       6.095643       165.8709 
 759   0.0000       6.114203       166.3759 
 760   0.0000       6.159218       167.6008 
 761   0.0000       6.181145       168.1975 
 762   0.0000       6.193131       168.5237 
 763   0.0000       6.225660       169.4088 
 764   0.0000       6.245461       169.9476 
 765   0.0000       6.253700       170.1718 
 766   0.0000       6.262132       170.4013 
 767   0.0000       6.318724       171.9412 
 768   0.0000       6.320824       171.9984 
 769   0.0000       6.345991       172.6832 
 770   0.0000       6.349792       172.7866 
 771   0.0000       6.381804       173.6577 
 772   0.0000       6.413798       174.5283 
 773   0.0000       6.457425       175.7155 
 774   0.0000       6.491805       176.6510 
 775   0.0000       6.513261       177.2348 
 776   0.0000       6.533556       177.7871 
 777   0.0000       6.548977       178.2067 
 778   0.0000       6.602555       179.6646 
 779   0.0000       6.607160       179.7900 
 780   0.0000       6.666805       181.4130 
 781   0.0000       6.706073       182.4815 
 782   0.0000       6.731531       183.1743 
 783   0.0000       6.794811       184.8962 
 784   0.0000       6.849812       186.3929 
 785   0.0000       6.866637       186.8507 
 786   0.0000       6.892979       187.5675 
 787   0.0000       6.910115       188.0338 
 788   0.0000       6.926204       188.4716 
 789   0.0000       6.984544       190.0591 
 790   0.0000       7.045057       191.7058 
 791   0.0000       7.086341       192.8291 
 792   0.0000       7.094386       193.0481 
 793   0.0000       7.157255       194.7588 
 794   0.0000       7.226863       196.6529 
 795   0.0000       7.238556       196.9711 
 796   0.0000       7.258726       197.5200 
 797   0.0000       7.288839       198.3394 
 798   0.0000       7.345025       199.8683 
 799   0.0000       7.358285       200.2291 
 800   0.0000       7.426552       202.0868 
 801   0.0000       7.488968       203.7852 
 802   0.0000       7.573228       206.0780 
 803   0.0000       7.597025       206.7256 
 804   0.0000       7.656312       208.3388 
 805   0.0000       7.828312       213.0192 
 806   0.0000       7.868282       214.1068 
 807   0.0000       7.941911       216.1104 
 808   0.0000       7.958133       216.5518 
 809   0.0000       9.494230       258.3511 
 810   0.0000       9.975701       271.4526 
 811   0.0000      10.963676       298.3368 
 812   0.0000      11.266089       306.5659 
 813   0.0000      11.939341       324.8860 
 814   0.0000      12.681615       345.0843 
 815   0.0000      12.851520       349.7076 
 816   0.0000      13.015334       354.1652 
 817   0.0000      13.096353       356.3699 
 818   0.0000      13.299191       361.8894 
 819   0.0000      13.473806       366.6409 
 820   0.0000      13.529749       368.1632 
 821   0.0000      13.772616       374.7719 
 822   0.0000      13.920293       378.7904 
 823   0.0000      13.971643       380.1877 
 824   0.0000      14.070998       382.8913 
 825   0.0000      14.440688       392.9511 
 826   0.0000      14.660842       398.9418 
 827   0.0000      15.954868       434.1540 

                    ********************************
                    * MULLIKEN POPULATION ANALYSIS *
                    ********************************

-----------------------
MULLIKEN ATOMIC CHARGES
-----------------------
   0 C :   -0.271176
   1 C :    0.045405
   2 O :   -0.329279
   3 C :    0.420182
   4 O :   -0.425016
   5 C :   -0.081473
   6 C :    0.113569
   7 C :   -0.294820
   8 N :   -0.153650
   9 C :    0.200684
  10 S :   -0.419240
  11 N :   -0.200205
  12 C :    0.058758
  13 C :    0.062141
  14 C :   -0.232735
  15 C :   -0.125241
  16 C :   -0.284735
  17 C :    0.307780
  18 O :   -0.359784
  19 C :   -0.262608
  20 H :    0.096936
  21 H :    0.091997
  22 H :    0.102399
  23 H :    0.092303
  24 H :    0.096125
  25 H :    0.119252
  26 H :    0.107529
  27 H :    0.125821
  28 H :    0.194986
  29 H :    0.186819
  30 H :    0.185618
  31 H :    0.143848
  32 H :    0.157274
  33 H :    0.126971
  34 H :    0.240789
  35 H :    0.162773
Sum of atomic charges:   -0.0000000

--------------------------------
MULLIKEN REDUCED ORBITAL CHARGES
--------------------------------
  0 C s       :     3.258344  s :     3.258344
      pz      :     1.022044  p :     2.936174
      px      :     0.900562
      py      :     1.013568
      dz2     :     0.012149  d :     0.072194
      dxz     :     0.017787
      dyz     :     0.014599
      dx2y2   :     0.018459
      dxy     :     0.009200
      f0      :     0.000349  f :     0.004464
      f+1     :     0.000764
      f-1     :     0.000933
      f+2     :     0.000607
      f-2     :     0.000112
      f+3     :     0.001336
      f-3     :     0.000363
  1 C s       :     3.171257  s :     3.171257
      pz      :     0.943574  p :     2.623902
      px      :     0.935836
      py      :     0.744491
      dz2     :     0.022819  d :     0.147755
      dxz     :     0.028448
      dyz     :     0.030446
      dx2y2   :     0.034478
      dxy     :     0.031565
      f0      :     0.001140  f :     0.011682
      f+1     :     0.001053
      f-1     :     0.002220
      f+2     :     0.002119
      f-2     :     0.001149
      f+3     :     0.002119
      f-3     :     0.001882
  2 O s       :     3.711308  s :     3.711308
      pz      :     1.706261  p :     4.580453
      px      :     1.375017
      py      :     1.499175
      dz2     :     0.004084  d :     0.035216
      dxz     :     0.004975
      dyz     :     0.005832
      dx2y2   :     0.015073
      dxy     :     0.005253
      f0      :     0.000319  f :     0.002302
      f+1     :     0.000314
      f-1     :     0.000189
      f+2     :     0.000366
      f-2     :     0.000244
      f+3     :     0.000470
      f-3     :     0.000399
  3 C s       :     3.096835  s :     3.096835
      pz      :     0.691091  p :     2.156308
      px      :     0.682444
      py      :     0.782773
      dz2     :     0.027890  d :     0.300236
      dxz     :     0.075553
      dyz     :     0.033217
      dx2y2   :     0.099653
      dxy     :     0.063924
      f0      :     0.002386  f :     0.026439
      f+1     :     0.002497
      f-1     :     0.002009
      f+2     :     0.003313
      f-2     :     0.003784
      f+3     :     0.006588
      f-3     :     0.005862
  4 O s       :     3.769379  s :     3.769379
      pz      :     1.521185  p :     4.617765
      px      :     1.551260
      py      :     1.545319
      dz2     :     0.004212  d :     0.035469
      dxz     :     0.007323
      dyz     :     0.004341
      dx2y2   :     0.007653
      dxy     :     0.011940
      f0      :     0.000207  f :     0.002403
      f+1     :     0.000257
      f-1     :     0.000170
      f+2     :     0.000083
      f-2     :     0.000459
      f+3     :     0.000565
      f-3     :     0.000663
  5 C s       :     3.144232  s :     3.144232
      pz      :     1.022119  p :     2.834284
      px      :     0.920757
      py      :     0.891408
      dz2     :     0.019039  d :     0.091773
      dxz     :     0.014494
      dyz     :     0.021825
      dx2y2   :     0.024448
      dxy     :     0.011967
      f0      :     0.001250  f :     0.011185
      f+1     :     0.001283
      f-1     :     0.001171
      f+2     :     0.002166
      f-2     :     0.001792
      f+3     :     0.001383
      f-3     :     0.002141
  6 C s       :     3.210995  s :     3.210995
      pz      :     0.874227  p :     2.485538
      px      :     0.847177
      py      :     0.764134
      dz2     :     0.027205  d :     0.175780
      dxz     :     0.020035
      dyz     :     0.048650
      dx2y2   :     0.041629
      dxy     :     0.038261
      f0      :     0.001437  f :     0.014118
      f+1     :     0.001330
      f-1     :     0.002189
      f+2     :     0.002156
      f-2     :     0.002486
      f+3     :     0.002147
      f-3     :     0.002372
  7 C s       :     3.284137  s :     3.284137
      pz      :     0.968092  p :     2.936185
      px      :     0.942653
      py      :     1.025439
      dz2     :     0.012615  d :     0.069835
      dxz     :     0.016392
      dyz     :     0.014047
      dx2y2   :     0.023009
      dxy     :     0.003771
      f0      :     0.000247  f :     0.004663
      f+1     :     0.000818
      f-1     :     0.000575
      f+2     :     0.001741
      f-2     :     0.000455
      f+3     :     0.000324
      f-3     :     0.000503
  8 N s       :     3.357128  s :     3.357128
      pz      :     1.384979  p :     3.733124
      px      :     1.249840
      py      :     1.098305
      dz2     :     0.010400  d :     0.058549
      dxz     :     0.009260
      dyz     :     0.011136
      dx2y2   :     0.011974
      dxy     :     0.015779
      f0      :     0.000573  f :     0.004849
      f+1     :     0.000867
      f-1     :     0.000515
      f+2     :     0.000988
      f-2     :     0.000927
      f+3     :     0.000561
      f-3     :     0.000419
  9 C s       :     3.156508  s :     3.156508
      pz      :     0.735696  p :     2.363887
      px      :     0.738971
      py      :     0.889220
      dz2     :     0.057817  d :     0.261421
      dxz     :     0.032756
      dyz     :     0.047447
      dx2y2   :     0.059773
      dxy     :     0.063628
      f0      :     0.001860  f :     0.017500
      f+1     :     0.002853
      f-1     :     0.002127
      f+2     :     0.002586
      f-2     :     0.002481
      f+3     :     0.002453
      f-3     :     0.003140
 10 S s       :     5.860866  s :     5.860866
      pz      :     3.466061  p :    10.464602
      px      :     3.764519
      py      :     3.234022
      dz2     :     0.010251  d :     0.083628
      dxz     :     0.003336
      dyz     :     0.037200
      dx2y2   :     0.020131
      dxy     :     0.012710
      f0      :     0.001106  f :     0.010143
      f+1     :     0.000070
      f-1     :     0.002067
      f+2     :     0.003156
      f-2     :     0.001132
      f+3     :     0.001331
      f-3     :     0.001281
 11 N s       :     3.378451  s :     3.378451
      pz      :     1.316326  p :     3.756292
      px      :     1.382401
      py      :     1.057565
      dz2     :     0.006935  d :     0.060999
      dxz     :     0.008342
      dyz     :     0.017258
      dx2y2   :     0.014694
      dxy     :     0.013770
      f0      :     0.000411  f :     0.004463
      f+1     :     0.000491
      f-1     :     0.000546
      f+2     :     0.000762
      f-2     :     0.000700
      f+3     :     0.000799
      f-3     :     0.000753
 12 C s       :     3.124679  s :     3.124679
      pz      :     0.866693  p :     2.636901
      px      :     0.929064
      py      :     0.841144
      dz2     :     0.035494  d :     0.168614
      dxz     :     0.028637
      dyz     :     0.033367
      dx2y2   :     0.027155
      dxy     :     0.043960
      f0      :     0.001042  f :     0.011048
      f+1     :     0.001652
      f-1     :     0.001738
      f+2     :     0.002289
      f-2     :     0.001631
      f+3     :     0.001485
      f-3     :     0.001211
 13 C s       :     3.121478  s :     3.121478
      pz      :     0.861544  p :     2.687271
      px      :     0.905184
      py      :     0.920544
      dz2     :     0.026389  d :     0.118083
      dxz     :     0.015860
      dyz     :     0.023567
      dx2y2   :     0.026864
      dxy     :     0.025403
      f0      :     0.001110  f :     0.011027
      f+1     :     0.001819
[...]
      f+2     :     0.007789
      f-2     :     0.005055
      f+3     :     0.009454
      f-3     :     0.006860
 15 C s       :     2.703862  s :     2.703862
      pz      :     0.872687  p :     2.792216
      px      :     0.953820
      py      :     0.965709
      dz2     :     0.075818  d :     0.424963
      dxz     :     0.075683
      dyz     :     0.050237
      dx2y2   :     0.135902
      dxy     :     0.087323
      f0      :     0.003186  f :     0.042093
      f+1     :     0.004642
      f-1     :     0.005206
      f+2     :     0.006517
      f-2     :     0.006541
      f+3     :     0.008961
      f-3     :     0.007040
 16 C s       :     2.698485  s :     2.698485
      pz      :     0.931737  p :     2.875164
      px      :     0.963722
      py      :     0.979705
      dz2     :     0.033160  d :     0.394584
      dxz     :     0.057607
      dyz     :     0.078623
      dx2y2   :     0.109944
      dxy     :     0.115249
      f0      :     0.003635  f :     0.041191
      f+1     :     0.003037
      f-1     :     0.004939
      f+2     :     0.006595
      f-2     :     0.004414
      f+3     :     0.011330
      f-3     :     0.007241
 17 C s       :     2.699644  s :     2.699644
      pz      :     0.850318  p :     2.680017
      px      :     0.838585
      py      :     0.991114
      dz2     :     0.106440  d :     0.714797
      dxz     :     0.106654
      dyz     :     0.128590
      dx2y2   :     0.178244
      dxy     :     0.194868
      f0      :     0.007783  f :     0.100185
      f+1     :     0.012678
      f-1     :     0.009644
      f+2     :     0.014914
      f-2     :     0.013088
      f+3     :     0.025635
      f-3     :     0.016442
 18 O s       :     3.176328  s :     3.176328
      pz      :     1.497092  p :     4.348144
      px      :     1.333160
      py      :     1.517892
      dz2     :     0.006520  d :     0.075425
      dxz     :     0.016354
      dyz     :     0.013611
      dx2y2   :     0.014568
      dxy     :     0.024372
      f0      :     0.000522  f :     0.005073
      f+1     :     0.000679
      f-1     :     0.000381
      f+2     :     0.000355
      f-2     :     0.000974
      f+3     :     0.001087
      f-3     :     0.001075
 19 C s       :     2.695287  s :     2.695287
      pz      :     0.930539  p :     2.854039
      px      :     0.957765
      py      :     0.965735
      dz2     :     0.060998  d :     0.382979
      dxz     :     0.070010
      dyz     :     0.048998
      dx2y2   :     0.111851
      dxy     :     0.091122
      f0      :     0.003324  f :     0.040175
      f+1     :     0.004743
      f-1     :     0.004247
      f+2     :     0.006597
      f-2     :     0.006459
      f+3     :     0.008582
      f-3     :     0.006223
 20 H s       :     0.847809  s :     0.847809
      pz      :     0.040323  p :     0.148060
      px      :     0.042541
      py      :     0.065196
      dz2     :     0.002695  d :     0.026650
      dxz     :     0.001244
      dyz     :     0.007856
      dx2y2   :     0.007566
      dxy     :     0.007289
 21 H s       :     0.850858  s :     0.850858
      pz      :     0.057865  p :     0.151498
      px      :     0.041099
      py      :     0.052534
      dz2     :     0.008082  d :     0.027444
      dxz     :     0.005042
      dyz     :     0.006303
      dx2y2   :     0.004326
      dxy     :     0.003691
 22 H s       :     0.846419  s :     0.846419
      pz      :     0.063953  p :     0.150224
      px      :     0.042829
      py      :     0.043442
      dz2     :     0.008428  d :     0.027511
      dxz     :     0.006859
      dyz     :     0.007034
      dx2y2   :     0.002982
      dxy     :     0.002208
 23 H s       :     0.856060  s :     0.856060
      pz      :     0.048927  p :     0.145506
      px      :     0.041320
      py      :     0.055259
      dz2     :     0.005625  d :     0.027052
      dxz     :     0.003075
      dyz     :     0.007193
      dx2y2   :     0.005505
      dxy     :     0.005654
 24 H s       :     0.857542  s :     0.857542
      pz      :     0.071436  p :     0.145995
      px      :     0.045760
      py      :     0.028799
      dz2     :     0.009512  d :     0.027019
      dxz     :     0.007577
      dyz     :     0.006570
      dx2y2   :     0.002095
      dxy     :     0.001265
 25 H s       :     0.832461  s :     0.832461
      pz      :     0.060514  p :     0.152404
      px      :     0.037742
      py      :     0.054148
      dz2     :     0.008383  d :     0.027988
      dxz     :     0.006482
      dyz     :     0.007085
      dx2y2   :     0.003572
      dxy     :     0.002466
 26 H s       :     0.838966  s :     0.838966
      pz      :     0.042074  p :     0.149852
      px      :     0.037465
      py      :     0.070313
      dz2     :     0.003154  d :     0.027594
      dxz     :     0.001318
      dyz     :     0.008940
      dx2y2   :     0.006531
      dxy     :     0.007652
 27 H s       :     0.831255  s :     0.831255
      pz      :     0.043914  p :     0.153114
      px      :     0.067880
      py      :     0.041320
      dz2     :     0.004114  d :     0.027850
      dxz     :     0.007801
      dyz     :     0.001899
      dx2y2   :     0.006781
      dxy     :     0.007255
 28 H s       :     0.743870  s :     0.743870
      pz      :     0.072549  p :     0.257979
      px      :     0.082644
      py      :     0.102786
      dz2     :     0.005801  d :     0.062721
      dxz     :     0.005861
      dyz     :     0.015975
      dx2y2   :     0.018066
      dxy     :     0.017018
 29 H s       :     0.746913  s :     0.746913
      pz      :     0.106715  p :     0.254541
      px      :     0.103129
      py      :     0.044698
      dz2     :     0.019913  d :     0.061335
      dxz     :     0.015384
      dyz     :     0.008743
      dx2y2   :     0.010074
      dxy     :     0.007221
 30 H s       :     0.812196  s :     0.812196
      pz      :     0.039911  p :     0.161239
      px      :     0.053562
      py      :     0.067766
      dz2     :     0.003005  d :     0.029879
      dxz     :     0.004825
      dyz     :     0.005262
      dx2y2   :     0.008058
      dxy     :     0.008729
 31 H s       :     0.843523  s :     0.843523
      pz      :     0.051650  p :     0.160059
      px      :     0.062918
      py      :     0.045491
      dz2     :     0.004153  d :     0.027847
      dxz     :     0.005782
      dyz     :     0.003873
      dx2y2   :     0.007153
      dxy     :     0.006886
 32 H s       :     0.843618  s :     0.843618
      pz      :     0.038778  p :     0.150657
      px      :     0.035199
      py      :     0.076680
      dz2     :     0.002741  d :     0.026430
      dxz     :     0.000372
      dyz     :     0.007611
      dx2y2   :     0.007614
      dxy     :     0.008092
 33 H s       :     0.849836  s :     0.849836
      pz      :     0.057891  p :     0.160633
      px      :     0.057573
      py      :     0.045168
      dz2     :     0.005522  d :     0.028088
      dxz     :     0.005877
      dyz     :     0.004412
      dx2y2   :     0.006374
      dxy     :     0.005903
 34 H s       :     0.706729  s :     0.706729
      pz      :     0.120559  p :     0.348556
      px      :     0.094167
      py      :     0.133830
      dz2     :     0.023629  d :     0.099766
      dxz     :     0.014479
      dyz     :     0.020982
      dx2y2   :     0.020902
      dxy     :     0.019773
 35 H s       :     0.836566  s :     0.836566
      pz      :     0.047475  p :     0.167846
      px      :     0.038568
      py      :     0.081803
      dz2     :     0.003073  d :     0.029382
      dxz     :     0.000773
      dyz     :     0.008748
      dx2y2   :     0.007909
      dxy     :     0.008879


                      *****************************
                      * MAYER POPULATION ANALYSIS *
                      *****************************

  NA   - Mulliken gross atomic population
  ZA   - Total nuclear charge
  QA   - Mulliken gross atomic charge
  VA   - Mayer's total valence
  BVA  - Mayer's bonded valence
  FA   - Mayer's free valence

  ATOM       NA         ZA         QA         VA         BVA        FA
  0 C      6.2712     6.0000    -0.2712     3.8904     3.8904     0.0000
  1 C      5.9546     6.0000     0.0454     3.8624     3.8624    -0.0000
  2 O      8.3293     8.0000    -0.3293     2.0770     2.0770     0.0000
  3 C      5.5798     6.0000     0.4202     4.2161     4.2161     0.0000
  4 O      8.4250     8.0000    -0.4250     2.1011     2.1011     0.0000
  5 C      6.0815     6.0000    -0.0815     3.5775     3.5775    -0.0000
  6 C      5.8864     6.0000     0.1136     3.8314     3.8314    -0.0000
  7 C      6.2948     6.0000    -0.2948     3.8924     3.8924     0.0000
  8 N      7.1536     7.0000    -0.1536     3.2627     3.2627     0.0000
  9 C      5.7993     6.0000     0.2007     4.1298     4.1298     0.0000
 10 S     16.4192    16.0000    -0.4192     1.7652     1.7652     0.0000
 11 N      7.2002     7.0000    -0.2002     3.2504     3.2504    -0.0000
 12 C      5.9412     6.0000     0.0588     3.9263     3.9263     0.0000
 13 C      5.9379     6.0000     0.0621     3.6807     3.6807    -0.0000
 14 C      6.2327     6.0000    -0.2327     3.8511     3.8511    -0.0000
 15 C      6.1252     6.0000    -0.1252     3.8050     3.8050     0.0000
 16 C      6.2847     6.0000    -0.2847     3.7814     3.7814    -0.0000
 17 C      5.6922     6.0000     0.3078     3.8886     3.8886    -0.0000
 18 O      8.3598     8.0000    -0.3598     2.1159     2.1159    -0.0000
 19 C      6.2626     6.0000    -0.2626     3.8202     3.8202    -0.0000
 20 H      0.9031     1.0000     0.0969     0.9847     0.9847     0.0000
 21 H      0.9080     1.0000     0.0920     0.9830     0.9830     0.0000
 22 H      0.8976     1.0000     0.1024     0.9847     0.9847    -0.0000
 23 H      0.9077     1.0000     0.0923     0.9815     0.9815    -0.0000
 24 H      0.9039     1.0000     0.0961     0.9790     0.9790     0.0000
 25 H      0.8807     1.0000     0.1193     0.9890     0.9890     0.0000
 26 H      0.8925     1.0000     0.1075     0.9833     0.9833     0.0000
 27 H      0.8742     1.0000     0.1258     0.9741     0.9741    -0.0000
 28 H      0.8050     1.0000     0.1950     1.0223     1.0223     0.0000
 29 H      0.8132     1.0000     0.1868     1.0262     1.0262    -0.0000
 30 H      0.8144     1.0000     0.1856     0.9990     0.9990     0.0000
 31 H      0.8562     1.0000     0.1438     0.9886     0.9886     0.0000
 32 H      0.8427     1.0000     0.1573     0.9778     0.9778     0.0000
 33 H      0.8730     1.0000     0.1270     0.9917     0.9917     0.0000
 34 H      0.7592     1.0000     0.2408     1.0110     1.0110    -0.0000
 35 H      0.8372     1.0000     0.1628     0.9975     0.9975     0.0000

  Mayer bond orders larger than 0.100000
B(  0-C ,  1-C ) :   0.9665 B(  0-C , 20-H ) :   0.9801 B(  0-C , 21-H ) :   0.9811 
B(  0-C , 22-H ) :   0.9744 B(  1-C ,  2-O ) :   0.9078 B(  1-C , 23-H ) :   0.9800 
B(  1-C , 24-H ) :   0.9775 B(  2-O ,  3-C ) :   1.1847 B(  3-C ,  4-O ) :   1.9943 
B(  3-C ,  5-C ) :   0.9846 B(  5-C ,  6-C ) :   1.6518 B(  5-C , 12-C ) :   1.0007 
B(  6-C ,  7-C ) :   0.9512 B(  6-C ,  8-N ) :   1.1297 B(  7-C , 25-H ) :   0.9726 
B(  7-C , 26-H ) :   0.9847 B(  7-C , 27-H ) :   0.9645 B(  8-N ,  9-C ) :   1.1613 
B(  8-N , 28-H ) :   0.9519 B(  9-C , 10-S ) :   1.6176 B(  9-C , 11-N ) :   1.2997 
B( 11-N , 12-C ) :   0.9794 B( 11-N , 29-H ) :   0.9563 B( 12-C , 13-C ) :   0.8832 
B( 12-C , 30-H ) :   0.9854 B( 13-C , 14-C ) :   1.3922 B( 13-C , 19-C ) :   1.3502 
B( 14-C , 15-C ) :   1.3682 B( 14-C , 31-H ) :   0.9729 B( 15-C , 16-C ) :   1.3824 
B( 15-C , 32-H ) :   0.9719 B( 16-C , 17-C ) :   1.3108 B( 16-C , 33-H ) :   0.9860 
B( 17-C , 18-O ) :   1.1151 B( 17-C , 19-C ) :   1.3988 B( 18-O , 34-H ) :   0.9806 
B( 19-C , 35-H ) :   0.9477 

-------
TIMINGS
-------

Total SCF time: 0 days 1 hours 36 min 49 sec 

Total time                  ....    5809.667 sec
Sum of individual times     ....    5804.245 sec  ( 99.9%)

Fock matrix formation       ....    5793.603 sec  ( 99.7%)
Diagonalization             ....       1.185 sec  (  0.0%)
Density matrix formation    ....       0.210 sec  (  0.0%)
Population analysis         ....       0.267 sec  (  0.0%)
Initial guess               ....       4.808 sec  (  0.1%)
Orbital Transformation      ....       0.000 sec  (  0.0%)
Orbital Orthonormalization  ....       0.000 sec  (  0.0%)
DIIS solution               ....       1.536 sec  (  0.0%)
SOSCF solution              ....       1.362 sec  (  0.0%)

------------------------------------------------------------------------------
                                ORCA  MP2 
------------------------------------------------------------------------------

Freezing NCore=48 chemical core electrons

-------------
RI-MP2 ENERGY
-------------
Dimension of the basis                    ...  828
Memory devoted to MP2                     ...  256 MB   
Data format for buffers                   ... DOUBLE
Compression type for matrix containers    ... UNCOMPRESSED
Overall scaling of the MP2 energy         ...   1.000e+00
Calculating two index integrals           ... done (    0.042 sec)
Cholesky decomposition of V**-1           ... done (    0.340 sec)

-----------------
RI-TRANSFORMATION (AUX index driven)
-----------------

Dimension of the orbital-basis         ... 828
Dimension of the aux-basis             ... 2141
Transformation of internal/external MOs...   24-  76 to   77- 827
Number Format for Storage              ... Double (8 Byte)
Integral mode                          ... Direct

First Phase: integral generation and transformation of MO indices
  Aux angular momentum 0               ... done (    4.874 sec)
  Aux angular momentum 1               ... done (    7.652 sec)
  Aux angular momentum 2               ... done (   10.116 sec)
  Aux angular momentum 3               ... done (    8.095 sec)
  Aux angular momentum 4               ... done (    2.900 sec)
Closing buffer VIA ( 0.63 GB; CompressionRatio= 1.00)
  Phase 1 completed in    33.809 sec
Second Phase: sorting and transformation of aux index

IA-Transformation
Memory available                       ... 167 MB 
Max. # MO pairs treated in a batch     ... 12    
# of internal orbitals                 ... 53
# batches for internal orbitals        ... 5
Closing buffer IAV ( 0.63 GB; CompressionRatio= 1.00)
(ia|v) transformation done in    19.778 sec

  Phase 2 completed in    19.781 sec
RI-Integral transformation completed in    53.595 sec
Opening buffers                              ... done

Starting loop over batches of integrals:

Operator 0  - window                       ... ( 24- 76)x( 77-827)
Operator 0  - Memory available             ...   256 MB
Operator 0  - Memory needed per MO         ...  12.3 MB
Operator 0  - Number of orbitals per batch ... 13
Operator 0  - Number of batches            ... 5

OPERATOR  0   PASS   0:  MOs    24 ...   36
  Reading integrals       ... ok
  Internal MO  26
  Internal MO  29
  Internal MO  32
  Internal MO  35
OPERATOR  0   PASS   1:  MOs    37 ...   49
  Reading integrals       ... ok
  Internal MO  38
  Internal MO  41
  Internal MO  44
  Internal MO  47
OPERATOR  0   PASS   2:  MOs    50 ...   62
  Reading integrals       ... ok
  Internal MO  50
  Internal MO  53
  Internal MO  56
  Internal MO  59
  Internal MO  62
OPERATOR  0   PASS   3:  MOs    63 ...   75
  Reading integrals       ... ok
  Internal MO  65
  Internal MO  68
  Internal MO  71
  Internal MO  74
OPERATOR  0   PASS   4:  MOs    76 ...   76
  Reading integrals       ... ok
Time spent in pair loops =    83.955 sec
Deleting buffer (Ka|jb)[aa] ...done

-----------------------------------------------
 RI-MP2 CORRELATION ENERGY:     -3.553039129 Eh
-----------------------------------------------


-------
TIMINGS
-------

Total time                :  138.033 sec
Integral trafo            :   53.611 sec ( 38.8%)
I/O of integrals          :    1.189 sec (  0.9%)
K(i,j) Operators          :   50.876 sec ( 36.9%)
T(i,j) pair energies      :    8.787 sec (  6.4%)
V-calculation             :    0.042 sec (  0.0%)
V**(-1/2)                 :    0.340 sec (  0.2%)
Gamma(ia|P)               :    0.000 sec (  0.0%)
Gamma-Trafo               :    0.000 sec (  0.0%)
D(virtual)                :    0.000 sec (  0.0%)
D(internal)               :    0.000 sec (  0.0%)
W(virtual)                :    0.000 sec (  0.0%)
W(internal)               :    0.000 sec (  0.0%)
L(virtual)                :    0.000 sec (  0.0%)
L(internal)               :    0.000 sec (  0.0%)
G(D)                      :    0.000 sec (  0.0%)
G(Z)                      :    0.000 sec (  0.0%)
Z-Vector Solution         :    0.000 sec (  0.0%)
3-Index Derivative        :    0.000 sec (  0.0%)
2-Index Derivative        :    0.000 sec (  0.0%)
Separable Gradient        :    0.000 sec (  0.0%)


---------------------------------------
MP2 TOTAL ENERGY:    -1274.283836684 Eh
---------------------------------------

-------------------------   --------------------
FINAL SINGLE POINT ENERGY     -1274.283836683950
-------------------------   --------------------


                            ***************************************
                            *     ORCA property calculations      *
                            ***************************************


  WARNING: The energy has been calculated at the MP2 level but the densities
           used in the property calculations are still SCF densities
           MP2 response densities have not been calculated 
           use %mp2 Density relaxed end
           or  %mp2 Density unrelaxed end

                                    ---------------------
                                    Active property flags
                                    ---------------------
   (+) Dipole Moment


------------------------------------------------------------------------------
                       ORCA ELECTRIC PROPERTIES CALCULATION
------------------------------------------------------------------------------

Dipole Moment Calculation                       ... on
Quadrupole Moment Calculation                   ... off
Polarizability Calculation                      ... off
GBWName                                         ... G2_CONFS/Conf966.orca.gbw
Electron density file                           ... G2_CONFS/Conf966.orca.scfp
The origin for moment calculation is the CENTER OF MASS  = (32.967782, 31.614852 35.373125)

-------------
DIPOLE MOMENT
-------------
                                X             Y             Z
Electronic contribution:     12.38613      11.53984       8.87811
Nuclear contribution   :    -14.01099     -13.14958      -9.71489
                        -----------------------------------------
Total Dipole Moment    :     -1.62485      -1.60974      -0.83678
                        -----------------------------------------
Magnitude (a.u.)       :      2.43549
Magnitude (Debye)      :      6.19052



--------------------
Rotational spectrum 
--------------------
 
Rotational constants in cm-1:     0.012785     0.008615     0.006830 
Rotational constants in MHz :   383.291718   258.261747   204.772789 

 Dipole components along the rotational axes: 
x,y,z [a.u.] :    -2.260669     0.395147     0.815376 
x,y,z [Debye]:    -5.746165     1.004385     2.072521 

 

Timings for individual modules:

Sum of individual times         ...     5949.266 sec (=  99.154 min)
GTO integral calculation        ...        1.266 sec (=   0.021 min)   0.0 %
SCF iterations                  ...     5809.721 sec (=  96.829 min)  97.7 %
MP2 module                      ...      138.279 sec (=   2.305 min)   2.3 %
                             ****ORCA TERMINATED NORMALLY****
TOTAL RUN TIME: 0 days 1 hours 39 minutes 9 seconds 952 msec
