
                                 *****************
                                 * O   R   C   A *
                                 *****************

           --- An Ab Initio, DFT and Semiempirical electronic structure package ---

                  #######################################################
                  #                        -***-                        #
                  #          Department of theory and spectroscopy      #
                  #               Directorship: Frank Neese             #
                  #        Max Planck Institute fuer Kohlenforschung    #
                  #                Kaiser Wilhelm Platz 1               #
                  #                 D-45470 Muelheim/Ruhr               #
                  #                      Germany                        #
                  #                                                     #
                  #                  All rights reserved                #
                  #                        -***-                        #
                  #######################################################


                         Program Version 4.2.0 -  RELEASE  -


 With contributions from (in alphabetic order):
   Daniel Aravena         : Magnetic Suceptibility
   Michael Atanasov       : Ab Initio Ligand Field Theory (pilot matlab implementation)
   Alexander A. Auer      : GIAO ZORA, VPT2
   Ute Becker             : Parallelization
   Giovanni Bistoni       : ED, misc. LED, open-shell LED, HFLED
   Martin Brehm           : Molecular dynamics
   Dmytro Bykov           : SCF Hessian
   Vijay G. Chilkuri      : MRCI spin determinant printing, contributions to CSF-ICE
   Dipayan Datta          : RHF DLPNO-CCSD density
   Achintya Kumar Dutta   : EOM-CC, STEOM-CC
   Dmitry Ganyushin       : Spin-Orbit,Spin-Spin,Magnetic field MRCI
   Miquel Garcia          : C-PCM Hessian, Gaussian charge scheme
   Yang Guo               : DLPNO-NEVPT2, CIM, IAO-localization
   Andreas Hansen         : Spin unrestricted coupled pair/coupled cluster methods
   Benjamin Helmich-Paris : CASSCF linear response (MC-RPA)
   Lee Huntington         : MR-EOM, pCC
   Robert Izsak           : Overlap fitted RIJCOSX, COSX-SCS-MP3, EOM
   Christian Kollmar      : KDIIS, OOCD, Brueckner-CCSD(T), CCSD density
   Simone Kossmann        : Meta GGA functionals, TD-DFT gradient, OOMP2, MP2 Hessian
   Martin Krupicka        : AUTO-CI
   Lucas Lang             : DCDCAS
   Dagmar Lenk            : GEPOL surface, SMD
   Dimitrios Liakos       : Extrapolation schemes; Compound Job, initial MDCI parallelization
   Dimitrios Manganas     : Further ROCIS development; embedding schemes
   Dimitrios Pantazis     : SARC Basis sets
   Taras Petrenko         : DFT Hessian,TD-DFT gradient, ASA, ECA, R-Raman, ABS, FL, XAS/XES, NRVS
   Peter Pinski           : DLPNO-MP2, DLPNO-MP2 Gradient
   Christoph Reimann      : Effective Core Potentials
   Marius Retegan         : Local ZFS, SOC
   Christoph Riplinger    : Optimizer, TS searches, QM/MM, DLPNO-CCSD(T), (RO)-DLPNO pert. Triples
   Tobias Risthaus        : Range-separated hybrids, TD-DFT gradient, RPA, STAB
   Michael Roemelt        : Original ROCIS implementation
   Masaaki Saitow         : Open-shell DLPNO-CCSD energy and density
   Barbara Sandhoefer     : DKH picture change effects
   Avijit Sen             : IP-ROCIS
   Kantharuban Sivalingam : CASSCF convergence, NEVPT2, FIC-MRCI
   Bernardo de Souza      : ESD, SOC TD-DFT
   Georgi Stoychev        : AutoAux, RI-MP2 NMR
   Willem Van den Heuvel  : Paramagnetic NMR
   Boris Wezisla          : Elementary symmetry handling
   Frank Wennmohs         : Technical directorship


 We gratefully acknowledge several colleagues who have allowed us to
 interface, adapt or use parts of their codes:
   Stefan Grimme, W. Hujo, H. Kruse,             : VdW corrections, initial TS optimization,
                  C. Bannwarth                     DFT functionals, gCP, sTDA/sTD-DF
   Ed Valeev, F. Pavosevic, A. Kumar             : LibInt (2-el integral package), F12 methods
   Garnet Chan, S. Sharma, J. Yang, R. Olivares  : DMRG
   Ulf Ekstrom                                   : XCFun DFT Library
   Mihaly Kallay                                 : mrcc  (arbitrary order and MRCC methods)
   Andreas Klamt, Michael Diedenhofen            : otool_cosmo (COSMO solvation model)
   Jiri Pittner, Ondrej Demel                    : Mk-CCSD
   Frank Weinhold                                : gennbo (NPA and NBO analysis)
   Christopher J. Cramer and Donald G. Truhlar   : smd solvation model
   Lars Goerigk                                  : TD-DFT with DH, B97 family of functionals
   V. Asgeirsson, H. Jonsson                     : NEB implementation
   FAccTs GmbH                                   : IRC, NEB, NEB-TS, Multilevel, MM, QM/MM, CI optimization
   S Lehtola, MJT Oliveira, MAL Marques          : LibXC Library


 Your calculation uses the libint2 library for the computation of 2-el integrals
 For citations please refer to: http://libint.valeyev.net

 Your ORCA version has been built with support for libXC version: 4.2.3
 For citations please refer to: https://tddft.org/programs/libxc/

 This ORCA versions uses:
   CBLAS   interface :  Fast vector & matrix operations
   LAPACKE interface :  Fast linear algebra routines
   SCALAPACK package :  Parallel linear algebra routines


----- Orbital basis set information -----
Your calculation utilizes the basis: cc-pVTZ 
       H, B-Ne : Obtained from the ccRepo (grant-hill.group.shef.ac.uk/ccrepo) Feb. 2017
                 T. H. Dunning, Jr., J. Chem. Phys. 90, 1007 (1989)
            He : Obtained from the ccRepo (grant-hill.group.shef.ac.uk/ccrepo) Feb. 2017
                 D. E. Woon, T. H. Dunning, Jr., J. Chem. Phys. 100, 2975 (1994)
  Li-Be, Na-Mg : Obtained from the ccRepo (grant-hill.group.shef.ac.uk/ccrepo) Feb. 2017
                 B. P. Prascher, D. E. Woon, K. A. Peterson, T. H. Dunning, Jr., A. K. Wilson, Theor. Chem. Acc. 128, 69 (2011)
         Al-Ar : Obtained from the ccRepo (grant-hill.group.shef.ac.uk/ccrepo) Feb. 2017
                 D. E. Woon, T. H. Dunning, Jr., J. Chem. Phys. 98, 1358 (1993)
            Ca : Obtained from the Peterson Research Group Website (tyr0.chem.wsu.edu/~kipeters) Feb. 2017
                 J. Koput, K. A. Peterson, J. Phys. Chem. 106, 9595 (2002)
         Sc-Zn : Obtained from the ccRepo (grant-hill.group.shef.ac.uk/ccrepo) Feb. 2017
                 N. B. Balabanov, K. A. Peterson, J. Chem. Phys. 123, 064107 (2005)
                 N. B. Balabanov, K. A. Peterson, J. Chem. Phys. 125, 074110 (2006)
         Ga-Kr : Obtained from the ccRepo (grant-hill.group.shef.ac.uk/ccrepo) Feb. 2017
                 A. K. Wilson, D. E. Woon, K. A. Peterson, T. H. Dunning, Jr., J. Chem. Phys. 110, 7667 (1999)
             Y : Obtained from the ccRepo (grant-hill.group.shef.ac.uk/ccrepo) Feb. 2017
                 K. A. Peterson, D. Figgen, M. Dolg, H. Stoll, J. Chem. Phys. 126, 124101 (2007)
        Ag, Au : Obtained from the Peterson Research Group Website (tyr0.chem.wsu.edu/~kipeters) Feb. 2017
                 K. A. Peterson, C. Puzzarini, Theor. Chem. Acc. 114, 283 (2005)

----- AuxC basis set information -----
Your calculation utilizes the auxiliary basis: cc-pVTZ/C 
  Obtained from the EMSL Basis Set Exchange (bse.pnl.gov) Feb. 2017
  H-He, B-F, Al-Ar, Ga-Kr : F. Weigend, A. Kohn, C. Hattig, J. Chem. Phys. 116, 3175 (2002)
             Li-Be, Na-Mg : C. Haettig, Phys. Chem. Chem. Phys. 7, 59 (2005)
                       Ne : C. Haettig, Phys. Chem. Chem. Phys. 7, 59 (2005)
                            F. Weigend, A. Kohn, C. Hattig, J. Chem. Phys. 116, 3175 (2002)
                    Sc-Zn : J. G. Hill, J. A. Platts, J. Chem. Phys. 128, 044104 (2008)

================================================================================
                                        WARNINGS
                       Please study these warnings very carefully!
================================================================================


WARNING: No MP2 level density has been requested!
         To caclulate MP2 level properties use
         %mp2 Density relaxed end
         or
         %mp2 Density unrelaxed end

WARNING: Post HF methods need fully converged wavefunctions
  ===> : Setting SCFConvForced true
         You can overwrite this default with %scf ConvForced false 


INFO   : the flag for use of LIBINT has been found!

================================================================================
                                       INPUT FILE
================================================================================
NAME = G2_CONFS/Conf747.orca
|  1> ! ri-mp2 cc-pvtz cc-pvtz/c TightSCF  NoKeepInts
|  2> 
|  3> %scf
|  4>   MaxCore 4096
|  5> end
|  6> *xyz  0  1
|  7>     C       15.2208446   13.6306223   16.0469860
|  8>     C       15.0074561   15.0512168   16.5654172
|  9>     O       16.1571284   15.7950196   16.9535458
| 10>     C       17.4243358   15.9600917   16.4600977
| 11>     O       18.0918921   15.2038830   15.7781276
| 12>     C       17.8866053   16.8883858   17.5014641
| 13>     C       17.3883134   18.1440930   17.3978737
| 14>     C       16.6534543   18.6476306   16.1586810
| 15>     N       17.8898091   19.1675803   18.1960351
| 16>     C       18.8687998   19.0075034   19.1431631
| 17>     S       19.3023740   20.2776393   20.1108370
| 18>     N       19.4018735   17.7377796   19.2890538
| 19>     C       18.9878881   16.5500090   18.4878560
| 20>     C       18.1280422   15.9797972   19.6642485
| 21>     C       18.3894515   14.6181671   19.9795579
| 22>     C       17.5610048   13.8592735   20.8132693
| 23>     C       16.4315426   14.4530943   21.3801374
| 24>     C       16.1472280   15.7959396   21.1050621
| 25>     O       15.0238550   16.3358089   21.6380585
| 26>     C       16.9701960   16.5546417   20.2528308
| 27>     H       16.2332468   13.2548673   16.2182998
| 28>     H       15.0455624   13.6671990   14.9627932
| 29>     H       14.4806451   12.9430750   16.4707359
| 30>     H       14.2855034   15.6477224   15.9993935
| 31>     H       14.5299908   14.8907480   17.5439794
| 32>     H       17.0679364   18.1903918   15.2455004
| 33>     H       16.7669189   19.7268823   16.0070480
| 34>     H       15.5856463   18.4057189   16.1869414
| 35>     H       17.5363216   20.1044007   18.0765565
| 36>     H       20.0189820   17.6347016   20.0831162
| 37>     H       19.5834402   15.6432379   18.3576892
| 38>     H       19.2219478   14.0912659   19.5204313
| 39>     H       17.7826388   12.8070914   20.9859875
| 40>     H       15.7753832   13.8616300   22.0117464
| 41>     H       14.6341141   15.6562967   22.2122435
| 42>     H       16.6666220   17.5685924   20.0292415
| 43> *
| 44> 
| 45>                          ****END OF INPUT****
================================================================================

                       ****************************
                       * Single Point Calculation *
                       ****************************

---------------------------------
CARTESIAN COORDINATES (ANGSTROEM)
---------------------------------
  C     15.220845   13.630622   16.046986
  C     15.007456   15.051217   16.565417
  O     16.157128   15.795020   16.953546
  C     17.424336   15.960092   16.460098
  O     18.091892   15.203883   15.778128
  C     17.886605   16.888386   17.501464
  C     17.388313   18.144093   17.397874
  C     16.653454   18.647631   16.158681
  N     17.889809   19.167580   18.196035
  C     18.868800   19.007503   19.143163
  S     19.302374   20.277639   20.110837
  N     19.401874   17.737780   19.289054
  C     18.987888   16.550009   18.487856
  C     18.128042   15.979797   19.664248
  C     18.389451   14.618167   19.979558
  C     17.561005   13.859273   20.813269
  C     16.431543   14.453094   21.380137
  C     16.147228   15.795940   21.105062
  O     15.023855   16.335809   21.638058
  C     16.970196   16.554642   20.252831
  H     16.233247   13.254867   16.218300
  H     15.045562   13.667199   14.962793
  H     14.480645   12.943075   16.470736
  H     14.285503   15.647722   15.999394
  H     14.529991   14.890748   17.543979
  H     17.067936   18.190392   15.245500
  H     16.766919   19.726882   16.007048
  H     15.585646   18.405719   16.186941
  H     17.536322   20.104401   18.076556
  H     20.018982   17.634702   20.083116
  H     19.583440   15.643238   18.357689
  H     19.221948   14.091266   19.520431
  H     17.782639   12.807091   20.985987
  H     15.775383   13.861630   22.011746
  H     14.634114   15.656297   22.212243
  H     16.666622   17.568592   20.029242

----------------------------
CARTESIAN COORDINATES (A.U.)
----------------------------
  NO LB      ZA    FRAG     MASS         X           Y           Z
   0 C     6.0000    0    12.011   28.763228   25.758143   30.324409
   1 C     6.0000    0    12.011   28.359982   28.442678   31.304102
   2 O     8.0000    0    15.999   30.532548   29.848261   32.037559
   3 C     6.0000    0    12.011   32.927223   30.160202   31.105077
   4 O     8.0000    0    15.999   34.188721   28.731175   29.816340
   5 C     6.0000    0    12.011   33.800785   31.914424   33.072974
   6 C     6.0000    0    12.011   32.859150   34.287367   32.877217
   7 C     6.0000    0    12.011   31.470468   35.238915   30.535482
   8 N     7.0000    0    14.007   33.806840   36.221477   34.385523
   9 C     6.0000    0    12.011   35.656864   35.918976   36.175336
  10 S    16.0000    0    32.060   36.476201   38.319185   38.003974
  11 N     7.0000    0    14.007   36.664227   33.519546   36.451029
  12 C     6.0000    0    12.011   35.881908   31.274985   34.936985
  13 C     6.0000    0    12.011   34.257035   30.197440   37.160044
  14 C     6.0000    0    12.011   34.751027   27.624332   37.755893
  15 C     6.0000    0    12.011   33.185490   26.190231   39.331379
  16 C     6.0000    0    12.011   31.051115   27.312390   40.402604
  17 C     6.0000    0    12.011   30.513839   29.850000   39.882787
  18 O     8.0000    0    15.999   28.390971   30.870205   40.890005
  19 C     6.0000    0    12.011   32.069023   31.283739   38.272304
  20 H     1.0000    0     1.008   30.676391   25.048069   30.648145
  21 H     1.0000    0     1.008   28.431992   25.827263   28.275581
  22 H     1.0000    0     1.008   27.364453   24.458867   31.125180
  23 H     1.0000    0     1.008   26.995689   29.569910   30.234472
  24 H     1.0000    0     1.008   27.457703   28.139436   33.153316
  25 H     1.0000    0     1.008   32.253725   34.374859   28.809821
  26 H     1.0000    0     1.008   31.684885   37.278405   30.248937
  27 H     1.0000    0     1.008   29.452603   34.781768   30.588886
  28 H     1.0000    0     1.008   33.138845   37.991811   34.159741
  29 H     1.0000    0     1.008   37.830393   33.324756   37.951590
  30 H     1.0000    0     1.008   37.007339   29.561435   34.691005
  31 H     1.0000    0     1.008   36.324217   26.628633   36.888269
  32 H     1.0000    0     1.008   33.604317   24.201895   39.657769
  33 H     1.0000    0     1.008   29.811154   26.194684   41.596172
  34 H     1.0000    0     1.008   27.654468   29.586113   41.975057
  35 H     1.0000    0     1.008   31.495351   33.199828   37.849781

--------------------------------
INTERNAL COORDINATES (ANGSTROEM)
--------------------------------
 C      0   0   0     0.000000000000     0.00000000     0.00000000
 C      1   0   0     1.527217828110     0.00000000     0.00000000
 O      2   1   0     1.423247277466   117.76398701     0.00000000
 C      3   2   1     1.369873870182   135.39655661    40.69500321
 O      4   3   2     1.217606762842   129.35157094   333.49051176
 C      4   3   2     1.469648599419    96.42158094   180.00000000
 C      6   4   3     1.354926699386   114.55314239   285.88910895
 C      7   6   4     1.526160725219   123.02030219   347.58993002
 N      7   6   4     1.391433006231   120.35092980   189.35669237
 C      9   7   6     1.371531571997   124.57863621   358.44606270
 S     10   9   7     1.654576854702   120.08763332   184.65093670
 N     10   9   7     1.384792473356   117.03544528     1.12067843
 C     12  10   9     1.491341954202   124.52784165     0.25700493
 C     13  12  10     1.564728661034    92.22805269   257.38665482
 C     14  13  12     1.421897102142   114.49800318   230.66141456
 C     15  14  13     1.399041861186   122.86955377   192.54687460
 C     16  15  14     1.396297764282   119.35579427   359.30878174
 C     17  16  15     1.399905251142   119.50228729     0.00000000
 O     18  17  16     1.355548199300   118.23451783   178.15305029
 C     18  17  16     1.406841637949   121.16734800     0.83395213
 H      1   2   3     1.093388518625   113.31933041    11.77945586
 H      1   2   3     1.098879307382   106.36022141   252.92478190
 H      1   2   3     1.095527529224   110.98173297   136.72011106
 H      2   1   3     1.094265717653   115.06555798   137.02729409
 H      2   1   3     1.100594079462   103.10964352   250.34880850
 H      8   7   6     1.102162211139   110.78057005   326.37600449
 H      8   7   6     1.095742220641   112.79746329   209.28723894
 H      8   7   6     1.095232324974   112.06292140    86.10301037
 H      9   7   6     1.008395264948   119.27792538   177.26302367
 H     12  10   9     1.010931783035   114.28202206   188.44336932
 H     13  12  10     1.092638790924   125.00574508   159.73635847
 H     15  14  13     1.086955472364   120.75330235     8.29872417
 H     16  15  14     1.089054809515   119.87254233   177.22111522
 H     17  16  15     1.085958150788   119.55429461   178.78120545
 H     19  18  17     0.971248275832   106.64020845     4.72871987
 H     20  18  17     1.081778799284   117.80914199   176.29612667

---------------------------
INTERNAL COORDINATES (A.U.)
---------------------------
 C      0   0   0     0.000000000000     0.00000000     0.00000000
 C      1   0   0     2.886023441969     0.00000000     0.00000000
 O      2   1   0     2.689547575259   117.76398701     0.00000000
 C      3   2   1     2.588686452658   135.39655661    40.69500321
 O      4   3   2     2.300943320582   129.35157094   333.49051176
 C      4   3   2     2.777233366003    96.42158094   180.00000000
 C      6   4   3     2.560440393378   114.55314239   285.88910895
 C      7   6   4     2.884025807010   123.02030219   347.58993002
 N      7   6   4     2.629427315476   120.35092980   189.35669237
 C      9   7   6     2.591819055101   124.57863621   358.44606270
 S     10   9   7     3.126697122912   120.08763332   184.65093670
 N     10   9   7     2.616878526959   117.03544528     1.12067843
 C     12  10   9     2.818227865468   124.52784165     0.25700493
 C     13  12  10     2.956908643252    92.22805269   257.38665482
 C     14  13  12     2.686996113665   114.49800318   230.66141456
 C     15  14  13     2.643805967534   122.86955377   192.54687460
 C     16  15  14     2.638620375900   119.35579427   359.30878174
 C     17  16  15     2.645437538097   119.50228729     0.00000000
 O     18  17  16     2.561614858006   118.23451783   178.15305029
 C     18  17  16     2.658545409522   121.16734800     0.83395213
 H      1   2   3     2.066204858175   113.31933041    11.77945586
 H      1   2   3     2.076580945184   106.36022141   252.92478190
 H      1   2   3     2.070247002405   110.98173297   136.72011106
 H      2   1   3     2.067862524103   115.06555798   137.02729409
 H      2   1   3     2.079821394798   103.10964352   250.34880850
 H      8   7   6     2.082784734209   110.78057005   326.37600449
 H      8   7   6     2.070652710386   112.79746329   209.28723894
 H      8   7   6     2.069689147220   112.06292140    86.10301037
 H      9   7   6     1.905590885495   119.27792538   177.26302367
 H     12  10   9     1.910384210013   114.28202206   188.44336932
 H     13  12  10     2.064788078145   125.00574508   159.73635847
 H     15  14  13     2.054048162536   120.75330235     8.29872417
 H     16  15  14     2.058015334813   119.87254233   177.22111522
 H     17  16  15     2.052163497890   119.55429461   178.78120545
 H     19  18  17     1.835393249366   106.64020845     4.72871987
 H     20  18  17     2.044265668129   117.80914199   176.29612667

---------------------
BASIS SET INFORMATION
---------------------
There are 5 groups of distinct atoms

 Group   1 Type C   : 18s5p2d1f contracted to 4s3p2d1f pattern {8811/311/11/1}
 Group   2 Type O   : 18s5p2d1f contracted to 4s3p2d1f pattern {8811/311/11/1}
 Group   3 Type N   : 18s5p2d1f contracted to 4s3p2d1f pattern {8811/311/11/1}
 Group   4 Type S   : 41s16p2d1f contracted to 5s4p2d1f pattern {13131311/7711/11/1}
 Group   5 Type H   : 5s2p1d contracted to 3s2p1d pattern {311/11/1}

Atom   0C    basis set group =>   1
Atom   1C    basis set group =>   1
Atom   2O    basis set group =>   2
Atom   3C    basis set group =>   1
Atom   4O    basis set group =>   2
Atom   5C    basis set group =>   1
Atom   6C    basis set group =>   1
Atom   7C    basis set group =>   1
Atom   8N    basis set group =>   3
Atom   9C    basis set group =>   1
Atom  10S    basis set group =>   4
Atom  11N    basis set group =>   3
Atom  12C    basis set group =>   1
Atom  13C    basis set group =>   1
Atom  14C    basis set group =>   1
Atom  15C    basis set group =>   1
Atom  16C    basis set group =>   1
Atom  17C    basis set group =>   1
Atom  18O    basis set group =>   2
Atom  19C    basis set group =>   1
Atom  20H    basis set group =>   5
Atom  21H    basis set group =>   5
Atom  22H    basis set group =>   5
Atom  23H    basis set group =>   5
Atom  24H    basis set group =>   5
Atom  25H    basis set group =>   5
Atom  26H    basis set group =>   5
Atom  27H    basis set group =>   5
Atom  28H    basis set group =>   5
Atom  29H    basis set group =>   5
Atom  30H    basis set group =>   5
Atom  31H    basis set group =>   5
Atom  32H    basis set group =>   5
Atom  33H    basis set group =>   5
Atom  34H    basis set group =>   5
Atom  35H    basis set group =>   5
---------------------------------
AUXILIARY/C BASIS SET INFORMATION
---------------------------------
There are 5 groups of distinct atoms

 Group   1 Type C   : 8s6p5d3f1g contracted to 8s6p5d3f1g pattern {11111111/111111/11111/111/1}
 Group   2 Type O   : 8s6p5d3f1g contracted to 8s6p5d3f1g pattern {11111111/111111/11111/111/1}
 Group   3 Type N   : 8s6p5d3f1g contracted to 8s6p5d3f1g pattern {11111111/111111/11111/111/1}
 Group   4 Type S   : 10s8p7d5f2g contracted to 10s8p7d5f2g pattern {1111111111/11111111/1111111/11111/11}
 Group   5 Type H   : 4s3p2d1f contracted to 4s3p2d1f pattern {1111/111/11/1}

Atom   0C    basis set group =>   1
Atom   1C    basis set group =>   1
Atom   2O    basis set group =>   2
Atom   3C    basis set group =>   1
Atom   4O    basis set group =>   2
Atom   5C    basis set group =>   1
Atom   6C    basis set group =>   1
Atom   7C    basis set group =>   1
Atom   8N    basis set group =>   3
Atom   9C    basis set group =>   1
Atom  10S    basis set group =>   4
Atom  11N    basis set group =>   3
Atom  12C    basis set group =>   1
Atom  13C    basis set group =>   1
Atom  14C    basis set group =>   1
Atom  15C    basis set group =>   1
Atom  16C    basis set group =>   1
Atom  17C    basis set group =>   1
Atom  18O    basis set group =>   2
Atom  19C    basis set group =>   1
Atom  20H    basis set group =>   5
Atom  21H    basis set group =>   5
Atom  22H    basis set group =>   5
Atom  23H    basis set group =>   5
Atom  24H    basis set group =>   5
Atom  25H    basis set group =>   5
Atom  26H    basis set group =>   5
Atom  27H    basis set group =>   5
Atom  28H    basis set group =>   5
Atom  29H    basis set group =>   5
Atom  30H    basis set group =>   5
Atom  31H    basis set group =>   5
Atom  32H    basis set group =>   5
Atom  33H    basis set group =>   5
Atom  34H    basis set group =>   5
Atom  35H    basis set group =>   5
------------------------------------------------------------------------------
                           ORCA GTO INTEGRAL CALCULATION
------------------------------------------------------------------------------

                         BASIS SET STATISTICS AND STARTUP INFO

 # of primitive gaussian shells          ...  682
 # of primitive gaussian functions       ... 1312
 # of contracted shells                  ...  298
 # of contracted basis functions         ...  828
 Highest angular momentum                ...    3
 Maximum contraction depth               ...   13
 Integral package used                   ... LIBINT
 Integral threshhold            Thresh   ...  2.500e-11
 Primitive cut-off              TCut     ...  2.500e-12


------------------------------ INTEGRAL EVALUATION ----------------------------


 * One electron integrals 
 Pre-screening matrix                    ... done
 Shell pair data                         ... done (   0.014 sec)

-------------------------------------------------------------------------------
                                 ORCA SCF
-------------------------------------------------------------------------------

------------
SCF SETTINGS
------------
Hamiltonian:
 Ab initio Hamiltonian  Method          .... Hartree-Fock(GTOs)


General Settings:
 Integral files         IntName         .... G2_CONFS/Conf747.orca
 Hartree-Fock type      HFTyp           .... RHF
 Total Charge           Charge          ....    0
 Multiplicity           Mult            ....    1
 Number of Electrons    NEL             ....  154
 Basis Dimension        Dim             ....  828
 Nuclear Repulsion      ENuc            ....   1731.3639912520 Eh

Convergence Acceleration:
 DIIS                   CNVDIIS         .... on
   Start iteration      DIISMaxIt       ....    12
   Startup error        DIISStart       ....  0.200000
   # of expansion vecs  DIISMaxEq       ....     5
   Bias factor          DIISBfac        ....   1.050
   Max. coefficient     DIISMaxC        ....  10.000
 Newton-Raphson         CNVNR           .... off
 SOSCF                  CNVSOSCF        .... on
   Start iteration      SOSCFMaxIt      ....   150
   Startup grad/error   SOSCFStart      ....  0.003300
 Level Shifting         CNVShift        .... on
   Level shift para.    LevelShift      ....    0.2500
   Turn off err/grad.   ShiftErr        ....    0.0010
 Zerner damping         CNVZerner       .... off
 Static damping         CNVDamp         .... on
   Fraction old density DampFac         ....    0.7000
   Max. Damping (<1)    DampMax         ....    0.9800
   Min. Damping (>=0)   DampMin         ....    0.0000
   Turn off err/grad.   DampErr         ....    0.1000
 Fernandez-Rico         CNVRico         .... off

SCF Procedure:
 Maximum # iterations   MaxIter         ....   125
 SCF integral mode      SCFMode         .... Direct
   Integral package                     .... LIBINT
 Reset frequency        DirectResetFreq ....    20
 Integral Threshold     Thresh          ....  2.500e-11 Eh
 Primitive CutOff       TCut            ....  2.500e-12 Eh

Convergence Tolerance:
 Convergence Check Mode ConvCheckMode   .... Total+1el-Energy
 Convergence forced     ConvForced      .... 1
 Energy Change          TolE            ....  1.000e-08 Eh
 1-El. energy change                    ....  1.000e-05 Eh
 Orbital Gradient       TolG            ....  1.000e-05
 Orbital Rotation angle TolX            ....  1.000e-05
 DIIS Error             TolErr          ....  5.000e-07


Diagonalization of the overlap matrix:
Smallest eigenvalue                        ... 3.393e-05
Time for diagonalization                   ...    0.109 sec
Threshold for overlap eigenvalues          ... 1.000e-08
Number of eigenvalues below threshold      ... 0
Time for construction of square roots      ...    0.066 sec
Total time needed                          ...    0.177 sec

-------------------
DFT GRID GENERATION
-------------------

General Integration Accuracy     IntAcc      ...  4.340
Radial Grid Type                 RadialGrid  ... Gauss-Chebyshev
Angular Grid (max. acc.)         AngularGrid ... Lebedev-110
Angular grid pruning method      GridPruning ... 3 (G Style)
Weight generation scheme         WeightScheme... Becke
Basis function cutoff            BFCut       ...    1.0000e-11
Integration weight cutoff        WCut        ...    1.0000e-14
Grids for H and He will be reduced by one unit

# of grid points (after initial pruning)     ...  46246 (   0.0 sec)
# of grid points (after weights+screening)   ...  41178 (   0.3 sec)
nearest neighbour list constructed           ...    0.0 sec
Grid point re-assignment to atoms done       ...    0.0 sec
Grid point division into batches done        ...    0.0 sec
Reduced shell lists constructed in    1.0 sec

Total number of grid points                  ...    41178
Total number of batches                      ...      662
Average number of points per batch           ...       62
Average number of grid points per atom       ...     1144
Average number of shells per batch           ...   151.44 (50.82%)
Average number of basis functions per batch  ...   385.59 (46.57%)
Average number of large shells per batch     ...    97.28 (64.23%)
Average number of large basis fcns per batch ...   249.83 (64.79%)
Maximum spatial batch extension              ...  19.39, 21.08, 21.58 au
Average spatial batch extension              ...   3.41,  3.25,  3.38 au

Time for grid setup =    1.289 sec

------------------------------
INITIAL GUESS: MODEL POTENTIAL
------------------------------
Loading Hartree-Fock densities                     ... done
Calculating cut-offs                               ... done
Setting up the integral package                    ... done
Initializing the effective Hamiltonian             ... done
Starting the Coulomb interaction                   ... done (   3.2 sec)
Reading the grid                                   ... done
Mapping shells                                     ... done
Starting the XC term evaluation                    ... done (   1.3 sec)
Transforming the Hamiltonian                       ... done (   0.0 sec)
Diagonalizing the Hamiltonian                      ... done (   0.1 sec)
Back transforming the eigenvectors                 ... done (   0.0 sec)
Now organizing SCF variables                       ... done
                      ------------------
                      INITIAL GUESS DONE (   6.1 sec)
                      ------------------
--------------
SCF ITERATIONS
--------------
ITER       Energy         Delta-E        Max-DP      RMS-DP      [F,P]     Damp
               ***  Starting incremental Fock matrix formation  ***
  0  -1269.8753963954   0.000000000000 0.04932601  0.00045355  0.2945009 0.7000
  1  -1270.1467639967  -0.271367601333 0.03608373  0.00037074  0.1722113 0.7000
                               ***Turning on DIIS***
  2  -1270.3156492452  -0.168885248511 0.02583782  0.00024840  0.1097194 0.7000
  3  -1272.4867683372  -2.171119091992 0.06313104  0.00052639  0.0828200 0.0000
  4  -1270.6230493460   1.863718991181 0.00904671  0.00010048  0.0073296 0.0000
  5  -1270.6914927463  -0.068443400251 0.00417478  0.00005265  0.0036981 0.0000
                      *** Initiating the SOSCF procedure ***
                           *** Shutting down DIIS ***
                      *** Re-Reading the Fockian *** 
                      *** Removing any level shift *** 
ITER      Energy       Delta-E        Grad      Rot      Max-DP    RMS-DP
  6  -1270.66728507   0.0242076760  0.001675  0.001675  0.002041  0.000027
               *** Restarting incremental Fock matrix formation ***
  7  -1270.68201922  -0.0147341479  0.000825  0.002046  0.001381  0.000017
  8  -1270.68207006  -0.0000508391  0.000372  0.002395  0.001487  0.000019
  9  -1270.68209027  -0.0000202077  0.000162  0.000389  0.000381  0.000005
 10  -1270.68209289  -0.0000026279  0.000050  0.000143  0.000144  0.000002
 11  -1270.68209317  -0.0000002818  0.000021  0.000112  0.000084  0.000001
 12  -1270.68209326  -0.0000000857  0.000010  0.000041  0.000037  0.000000
 13  -1270.68209327  -0.0000000045  0.000004  0.000015  0.000008  0.000000
                  ***Gradient check signals convergence***
              ***Rediagonalizing the Fockian in SOSCF/NRSCF***

               *****************************************************
               *                     SUCCESS                       *
               *           SCF CONVERGED AFTER  14 CYCLES          *
               *****************************************************


----------------
TOTAL SCF ENERGY
----------------

Total Energy       :        -1270.68209326 Eh          -34577.01762 eV

Components:
Nuclear Repulsion  :         1731.36399125 Eh           47112.80937 eV
Electronic Energy  :        -3002.04608451 Eh          -81689.82699 eV
One Electron Energy:        -5183.78984169 Eh         -141058.09285 eV
Two Electron Energy:         2181.74375718 Eh           59368.26586 eV

Virial components:
Potential Energy   :        -2539.83361194 Eh          -69112.38619 eV
Kinetic Energy     :         1269.15151868 Eh           34535.36857 eV
Virial Ratio       :            2.00120598


---------------
SCF CONVERGENCE
---------------

  Last Energy change         ...    6.0677e-09  Tolerance :   1.0000e-08
  Last MAX-Density change    ...    2.6236e-06  Tolerance :   1.0000e-07
  Last RMS-Density change    ...    4.1431e-08  Tolerance :   5.0000e-09
  Last Orbital Gradient      ...    1.6232e-06  Tolerance :   1.0000e-05
  Last Orbital Rotation      ...    4.2182e-06  Tolerance :   1.0000e-05

             **** THE GBW FILE WAS UPDATED (G2_CONFS/Conf747.orca.gbw) ****
             **** DENSITY FILE WAS UPDATED (G2_CONFS/Conf747.orca.scfp) ****
             **** ENERGY FILE WAS UPDATED (G2_CONFS/Conf747.orca.en.tmp) ****
             **** THE GBW FILE WAS UPDATED (G2_CONFS/Conf747.orca.gbw) ****
             **** DENSITY FILE WAS UPDATED (G2_CONFS/Conf747.orca.scfp) ****
----------------
ORBITAL ENERGIES
----------------

  NO   OCC          E(Eh)            E(eV) 
   0   2.0000     -91.886318     -2500.3538 
   1   2.0000     -20.600825      -560.5770 
   2   2.0000     -20.593623      -560.3810 
   3   2.0000     -20.562720      -559.5401 
   4   2.0000     -15.619118      -425.0178 
   5   2.0000     -15.611240      -424.8034 
   6   2.0000     -11.402349      -310.2737 
   7   2.0000     -11.383128      -309.7507 
   8   2.0000     -11.322152      -308.0914 
   9   2.0000     -11.314124      -307.8730 
  10   2.0000     -11.311373      -307.7981 
  11   2.0000     -11.299372      -307.4715 
  12   2.0000     -11.261478      -306.4404 
  13   2.0000     -11.260624      -306.4172 
  14   2.0000     -11.257537      -306.3332 
  15   2.0000     -11.248991      -306.1006 
  16   2.0000     -11.236206      -305.7527 
  17   2.0000     -11.235949      -305.7457 
  18   2.0000     -11.231179      -305.6159 
  19   2.0000     -11.227984      -305.5290 
  20   2.0000      -8.891328      -241.9453 
  21   2.0000      -6.572901      -178.8577 
  22   2.0000      -6.570896      -178.8032 
  23   2.0000      -6.570320      -178.7875 
  24   2.0000      -1.454146       -39.5693 
  25   2.0000      -1.414071       -38.4788 
  26   2.0000      -1.371512       -37.3207 
  27   2.0000      -1.334358       -36.3097 
  28   2.0000      -1.237189       -33.6656 
  29   2.0000      -1.154637       -31.4193 
  30   2.0000      -1.125634       -30.6301 
  31   2.0000      -1.052778       -28.6475 
  32   2.0000      -1.038604       -28.2619 
  33   2.0000      -1.011008       -27.5109 
  34   2.0000      -0.994724       -27.0678 
  35   2.0000      -0.983782       -26.7701 
  36   2.0000      -0.927565       -25.2403 
  37   2.0000      -0.907216       -24.6866 
  38   2.0000      -0.845207       -22.9993 
  39   2.0000      -0.833678       -22.6855 
  40   2.0000      -0.828032       -22.5319 
  41   2.0000      -0.815978       -22.2039 
  42   2.0000      -0.740281       -20.1441 
  43   2.0000      -0.730845       -19.8873 
  44   2.0000      -0.720886       -19.6163 
  45   2.0000      -0.697699       -18.9854 
  46   2.0000      -0.694077       -18.8868 
  47   2.0000      -0.689233       -18.7550 
  48   2.0000      -0.675988       -18.3946 
  49   2.0000      -0.662796       -18.0356 
  50   2.0000      -0.656176       -17.8555 
  51   2.0000      -0.643571       -17.5125 
  52   2.0000      -0.633101       -17.2276 
  53   2.0000      -0.609907       -16.5964 
  54   2.0000      -0.601385       -16.3645 
  55   2.0000      -0.599386       -16.3101 
  56   2.0000      -0.596129       -16.2215 
  57   2.0000      -0.587381       -15.9835 
  58   2.0000      -0.572453       -15.5772 
  59   2.0000      -0.569463       -15.4959 
  60   2.0000      -0.553425       -15.0595 
  61   2.0000      -0.550039       -14.9673 
  62   2.0000      -0.548134       -14.9155 
  63   2.0000      -0.529966       -14.4211 
  64   2.0000      -0.514798       -14.0084 
  65   2.0000      -0.509436       -13.8625 
  66   2.0000      -0.501188       -13.6380 
  67   2.0000      -0.493873       -13.4390 
  68   2.0000      -0.481621       -13.1056 
  69   2.0000      -0.463245       -12.6055 
  70   2.0000      -0.453581       -12.3426 
  71   2.0000      -0.446341       -12.1456 
  72   2.0000      -0.343155        -9.3377 
  73   2.0000      -0.335194        -9.1211 
  74   2.0000      -0.324131        -8.8201 
  75   2.0000      -0.316768        -8.6197 
  76   2.0000      -0.303680        -8.2635 
  77   0.0000       0.076739         2.0882 
  78   0.0000       0.112052         3.0491 
  79   0.0000       0.119534         3.2527 
  80   0.0000       0.131089         3.5671 
  81   0.0000       0.136513         3.7147 
  82   0.0000       0.141081         3.8390 
  83   0.0000       0.144696         3.9374 
  84   0.0000       0.156577         4.2607 
  85   0.0000       0.163381         4.4458 
  86   0.0000       0.164899         4.4871 
  87   0.0000       0.177744         4.8367 
  88   0.0000       0.183070         4.9816 
  89   0.0000       0.186844         5.0843 
  90   0.0000       0.201265         5.4767 
  91   0.0000       0.202979         5.5233 
  92   0.0000       0.212054         5.7703 
  93   0.0000       0.216595         5.8939 
  94   0.0000       0.225286         6.1303 
  95   0.0000       0.227081         6.1792 
  96   0.0000       0.236816         6.4441 
  97   0.0000       0.245477         6.6798 
  98   0.0000       0.252441         6.8693 
  99   0.0000       0.273296         7.4368 
 100   0.0000       0.284384         7.7385 
 101   0.0000       0.289169         7.8687 
 102   0.0000       0.305428         8.3111 
 103   0.0000       0.317976         8.6526 
 104   0.0000       0.325965         8.8699 
 105   0.0000       0.328632         8.9425 
 106   0.0000       0.332956         9.0602 
 107   0.0000       0.343936         9.3590 
 108   0.0000       0.356490         9.7006 
 109   0.0000       0.359681         9.7874 
 110   0.0000       0.371482        10.1085 
 111   0.0000       0.379354        10.3227 
 112   0.0000       0.385638        10.4938 
 113   0.0000       0.397518        10.8170 
 114   0.0000       0.404448        11.0056 
 115   0.0000       0.407263        11.0822 
 116   0.0000       0.417913        11.3720 
 117   0.0000       0.420018        11.4293 
 118   0.0000       0.431311        11.7366 
 119   0.0000       0.439392        11.9565 
 120   0.0000       0.439834        11.9685 
 121   0.0000       0.445990        12.1360 
 122   0.0000       0.449262        12.2250 
 123   0.0000       0.455764        12.4020 
 124   0.0000       0.467156        12.7120 
 125   0.0000       0.467884        12.7318 
 126   0.0000       0.468956        12.7610 
 127   0.0000       0.479529        13.0486 
 128   0.0000       0.483967        13.1694 
 129   0.0000       0.495604        13.4861 
 130   0.0000       0.501083        13.6352 
 131   0.0000       0.504480        13.7276 
 132   0.0000       0.515834        14.0366 
 133   0.0000       0.517420        14.0797 
 134   0.0000       0.524765        14.2796 
 135   0.0000       0.530446        14.4342 
 136   0.0000       0.531345        14.4586 
 137   0.0000       0.534601        14.5472 
 138   0.0000       0.542135        14.7523 
 139   0.0000       0.549370        14.9491 
 140   0.0000       0.553059        15.0495 
 141   0.0000       0.555022        15.1029 
 142   0.0000       0.562033        15.2937 
 143   0.0000       0.563864        15.3435 
 144   0.0000       0.571570        15.5532 
 145   0.0000       0.575616        15.6633 
 146   0.0000       0.576859        15.6971 
 147   0.0000       0.581045        15.8110 
 148   0.0000       0.594481        16.1767 
 149   0.0000       0.598251        16.2792 
 150   0.0000       0.603016        16.4089 
 151   0.0000       0.606734        16.5101 
 152   0.0000       0.611371        16.6362 
 153   0.0000       0.617091        16.7919 
 154   0.0000       0.618207        16.8223 
 155   0.0000       0.623219        16.9587 
 156   0.0000       0.631251        17.1772 
 157   0.0000       0.637649        17.3513 
 158   0.0000       0.640606        17.4318 
 159   0.0000       0.644763        17.5449 
 160   0.0000       0.646332        17.5876 
 161   0.0000       0.654802        17.8181 
 162   0.0000       0.658039        17.9061 
 163   0.0000       0.659216        17.9382 
 164   0.0000       0.670221        18.2376 
 165   0.0000       0.671542        18.2736 
 166   0.0000       0.678300        18.4575 
 167   0.0000       0.681010        18.5312 
 168   0.0000       0.687747        18.7145 
 169   0.0000       0.694854        18.9079 
 170   0.0000       0.697612        18.9830 
 171   0.0000       0.703151        19.1337 
 172   0.0000       0.706422        19.2227 
 173   0.0000       0.714069        19.4308 
 174   0.0000       0.724022        19.7016 
 175   0.0000       0.732948        19.9445 
 176   0.0000       0.736531        20.0420 
 177   0.0000       0.740248        20.1432 
 178   0.0000       0.743576        20.2337 
 179   0.0000       0.747571        20.3424 
 180   0.0000       0.763593        20.7784 
 181   0.0000       0.777721        21.1629 
 182   0.0000       0.780242        21.2315 
 183   0.0000       0.789588        21.4858 
 184   0.0000       0.792290        21.5593 
 185   0.0000       0.798951        21.7406 
 186   0.0000       0.811932        22.0938 
 187   0.0000       0.826830        22.4992 
 188   0.0000       0.832519        22.6540 
 189   0.0000       0.838225        22.8093 
 190   0.0000       0.844161        22.9708 
 191   0.0000       0.854022        23.2391 
 192   0.0000       0.858444        23.3595 
 193   0.0000       0.861619        23.4458 
 194   0.0000       0.877172        23.8691 
 195   0.0000       0.879689        23.9376 
 196   0.0000       0.889827        24.2134 
 197   0.0000       0.895837        24.3770 
 198   0.0000       0.903017        24.5723 
 199   0.0000       0.910191        24.7676 
 200   0.0000       0.916693        24.9445 
 201   0.0000       0.922740        25.1090 
 202   0.0000       0.928283        25.2599 
 203   0.0000       0.935143        25.4465 
 204   0.0000       0.949947        25.8494 
 205   0.0000       0.963241        26.2111 
 206   0.0000       0.967728        26.3332 
 207   0.0000       0.979106        26.6428 
 208   0.0000       0.983075        26.7508 
 209   0.0000       0.991045        26.9677 
 210   0.0000       0.996293        27.1105 
 211   0.0000       1.000457        27.2238 
 212   0.0000       1.009411        27.4675 
 213   0.0000       1.010632        27.5007 
 214   0.0000       1.014481        27.6054 
 215   0.0000       1.018800        27.7230 
 216   0.0000       1.025027        27.8924 
 217   0.0000       1.039431        28.2844 
 218   0.0000       1.041795        28.3487 
 219   0.0000       1.044088        28.4111 
 220   0.0000       1.056391        28.7459 
 221   0.0000       1.066426        29.0189 
 222   0.0000       1.072341        29.1799 
 223   0.0000       1.080283        29.3960 
 224   0.0000       1.088208        29.6117 
 225   0.0000       1.093992        29.7690 
 226   0.0000       1.108503        30.1639 
 227   0.0000       1.111719        30.2514 
 228   0.0000       1.118355        30.4320 
 229   0.0000       1.133735        30.8505 
 230   0.0000       1.135160        30.8893 
 231   0.0000       1.138818        30.9888 
 232   0.0000       1.148315        31.2472 
 233   0.0000       1.152273        31.3550 
 234   0.0000       1.159014        31.5384 
 235   0.0000       1.167479        31.7687 
 236   0.0000       1.172898        31.9162 
 237   0.0000       1.180896        32.1338 
 238   0.0000       1.181708        32.1559 
 239   0.0000       1.206546        32.8318 
 240   0.0000       1.213157        33.0117 
 241   0.0000       1.216386        33.0996 
 242   0.0000       1.220089        33.2003 
 243   0.0000       1.224255        33.3137 
 244   0.0000       1.231027        33.4980 
 245   0.0000       1.233156        33.5559 
 246   0.0000       1.238396        33.6985 
 247   0.0000       1.243014        33.8241 
 248   0.0000       1.255013        34.1507 
 249   0.0000       1.256389        34.1881 
 250   0.0000       1.259930        34.2844 
 251   0.0000       1.264614        34.4119 
 252   0.0000       1.271977        34.6122 
 253   0.0000       1.274767        34.6882 
 254   0.0000       1.288311        35.0567 
 255   0.0000       1.301030        35.4028 
 256   0.0000       1.307607        35.5818 
 257   0.0000       1.312067        35.7032 
 258   0.0000       1.321608        35.9628 
 259   0.0000       1.324081        36.0301 
 260   0.0000       1.332623        36.2625 
 261   0.0000       1.347072        36.6557 
 262   0.0000       1.357561        36.9411 
 263   0.0000       1.359676        36.9987 
 264   0.0000       1.368054        37.2266 
 265   0.0000       1.372362        37.3439 
 266   0.0000       1.389215        37.8025 
 267   0.0000       1.396143        37.9910 
 268   0.0000       1.409450        38.3531 
 269   0.0000       1.423409        38.7329 
 270   0.0000       1.426870        38.8271 
 271   0.0000       1.436611        39.0922 
 272   0.0000       1.443390        39.2766 
 273   0.0000       1.452034        39.5119 
 274   0.0000       1.461555        39.7709 
 275   0.0000       1.467782        39.9404 
 276   0.0000       1.472097        40.0578 
 277   0.0000       1.477802        40.2130 
 278   0.0000       1.484113        40.3848 
 279   0.0000       1.491160        40.5765 
 280   0.0000       1.496460        40.7208 
 281   0.0000       1.499962        40.8160 
 282   0.0000       1.503180        40.9036 
 283   0.0000       1.510083        41.0915 
 284   0.0000       1.515485        41.2384 
 285   0.0000       1.520906        41.3859 
 286   0.0000       1.527078        41.5539 
 287   0.0000       1.536415        41.8080 
 288   0.0000       1.544049        42.0157 
 289   0.0000       1.551812        42.2269 
 290   0.0000       1.554719        42.3061 
 291   0.0000       1.558573        42.4109 
 292   0.0000       1.563909        42.5561 
 293   0.0000       1.574740        42.8509 
 294   0.0000       1.576229        42.8914 
 295   0.0000       1.583210        43.0813 
 296   0.0000       1.595563        43.4175 
 297   0.0000       1.607214        43.7345 
 298   0.0000       1.615868        43.9700 
 299   0.0000       1.618378        44.0383 
 300   0.0000       1.632926        44.4342 
 301   0.0000       1.636737        44.5379 
 302   0.0000       1.643189        44.7134 
 303   0.0000       1.649920        44.8966 
 304   0.0000       1.656689        45.0808 
 305   0.0000       1.660509        45.1848 
 306   0.0000       1.676652        45.6240 
 307   0.0000       1.696889        46.1747 
 308   0.0000       1.704150        46.3723 
 309   0.0000       1.714019        46.6408 
 310   0.0000       1.714593        46.6564 
 311   0.0000       1.724829        46.9350 
 312   0.0000       1.731154        47.1071 
 313   0.0000       1.743215        47.4353 
 314   0.0000       1.757982        47.8371 
 315   0.0000       1.762022        47.9471 
 316   0.0000       1.770090        48.1666 
 317   0.0000       1.778872        48.4056 
 318   0.0000       1.784875        48.5689 
 319   0.0000       1.790001        48.7084 
 320   0.0000       1.802128        49.0384 
 321   0.0000       1.811315        49.2884 
 322   0.0000       1.819836        49.5203 
 323   0.0000       1.831400        49.8349 
 324   0.0000       1.841317        50.1048 
 325   0.0000       1.870472        50.8981 
 326   0.0000       1.881397        51.1954 
 327   0.0000       1.893276        51.5187 
 328   0.0000       1.905401        51.8486 
 329   0.0000       1.914524        52.0968 
 330   0.0000       1.922367        52.3103 
 331   0.0000       1.935809        52.6760 
 332   0.0000       1.938540        52.7503 
 333   0.0000       1.951149        53.0935 
 334   0.0000       1.958591        53.2960 
 335   0.0000       1.980091        53.8810 
 336   0.0000       1.986556        54.0569 
 337   0.0000       1.994704        54.2786 
 338   0.0000       2.000467        54.4355 
 339   0.0000       2.012230        54.7556 
 340   0.0000       2.028808        55.2067 
 341   0.0000       2.034464        55.3606 
 342   0.0000       2.048095        55.7315 
 343   0.0000       2.065977        56.2181 
 344   0.0000       2.074542        56.4511 
 345   0.0000       2.106041        57.3083 
 346   0.0000       2.125566        57.8396 
 347   0.0000       2.142133        58.2904 
 348   0.0000       2.155386        58.6510 
 349   0.0000       2.172401        59.1140 
 350   0.0000       2.177896        59.2636 
 351   0.0000       2.202931        59.9448 
 352   0.0000       2.227924        60.6249 
 353   0.0000       2.232163        60.7402 
 354   0.0000       2.242141        61.0118 
 355   0.0000       2.260669        61.5159 
 356   0.0000       2.265963        61.6600 
 357   0.0000       2.281318        62.0778 
 358   0.0000       2.291102        62.3441 
 359   0.0000       2.301806        62.6353 
 360   0.0000       2.317608        63.0653 
 361   0.0000       2.327877        63.3448 
 362   0.0000       2.346104        63.8407 
 363   0.0000       2.352353        64.0108 
 364   0.0000       2.357482        64.1504 
 365   0.0000       2.368198        64.4419 
 366   0.0000       2.379792        64.7574 
 367   0.0000       2.396173        65.2032 
 368   0.0000       2.408494        65.5384 
 369   0.0000       2.417197        65.7753 
 370   0.0000       2.431891        66.1751 
 371   0.0000       2.437231        66.3204 
 372   0.0000       2.455729        66.8238 
 373   0.0000       2.474794        67.3426 
 374   0.0000       2.487454        67.6871 
 375   0.0000       2.498458        67.9865 
 376   0.0000       2.518799        68.5400 
 377   0.0000       2.521881        68.6239 
 378   0.0000       2.537138        69.0390 
 379   0.0000       2.537609        69.0519 
 380   0.0000       2.563089        69.7452 
 381   0.0000       2.572568        70.0031 
 382   0.0000       2.586279        70.3762 
 383   0.0000       2.593962        70.5853 
 384   0.0000       2.601918        70.8018 
 385   0.0000       2.614609        71.1471 
 386   0.0000       2.629879        71.5626 
 387   0.0000       2.634621        71.6917 
 388   0.0000       2.652107        72.1675 
 389   0.0000       2.668169        72.6046 
 390   0.0000       2.686475        73.1027 
 391   0.0000       2.690650        73.2163 
 392   0.0000       2.700133        73.4744 
 393   0.0000       2.704425        73.5911 
 394   0.0000       2.717443        73.9454 
 395   0.0000       2.725154        74.1552 
 396   0.0000       2.733956        74.3947 
 397   0.0000       2.754871        74.9639 
 398   0.0000       2.760927        75.1287 
 399   0.0000       2.771975        75.4293 
 400   0.0000       2.780723        75.6673 
 401   0.0000       2.792032        75.9750 
 402   0.0000       2.797454        76.1226 
 403   0.0000       2.804674        76.3191 
 404   0.0000       2.812566        76.5338 
 405   0.0000       2.823752        76.8382 
 406   0.0000       2.827274        76.9340 
 407   0.0000       2.840439        77.2923 
 408   0.0000       2.860975        77.8511 
 409   0.0000       2.863398        77.9170 
 410   0.0000       2.884013        78.4780 
 411   0.0000       2.891293        78.6761 
 412   0.0000       2.906096        79.0789 
 413   0.0000       2.920749        79.4776 
 414   0.0000       2.924737        79.5861 
 415   0.0000       2.926302        79.6287 
 416   0.0000       2.938730        79.9669 
 417   0.0000       2.941534        80.0432 
 418   0.0000       2.947171        80.1966 
 419   0.0000       2.952884        80.3521 
 420   0.0000       2.959484        80.5317 
 421   0.0000       2.976293        80.9891 
 422   0.0000       2.980825        81.1124 
 423   0.0000       2.994148        81.4749 
 424   0.0000       3.005359        81.7800 
 425   0.0000       3.008173        81.8565 
 426   0.0000       3.017015        82.0972 
 427   0.0000       3.018629        82.1411 
 428   0.0000       3.028473        82.4089 
 429   0.0000       3.034878        82.5832 
 430   0.0000       3.047246        82.9198 
 431   0.0000       3.059480        83.2527 
 432   0.0000       3.069376        83.5220 
 433   0.0000       3.071616        83.5829 
 434   0.0000       3.082208        83.8712 
 435   0.0000       3.087125        84.0049 
 436   0.0000       3.093087        84.1672 
 437   0.0000       3.100250        84.3621 
 438   0.0000       3.103997        84.4641 
 439   0.0000       3.113973        84.7355 
 440   0.0000       3.119466        84.8850 
 441   0.0000       3.120817        84.9217 
 442   0.0000       3.127446        85.1021 
 443   0.0000       3.129218        85.1503 
 444   0.0000       3.148279        85.6690 
 445   0.0000       3.150389        85.7264 
 446   0.0000       3.160514        86.0020 
 447   0.0000       3.167226        86.1846 
 448   0.0000       3.178606        86.4943 
 449   0.0000       3.186179        86.7003 
 450   0.0000       3.196686        86.9862 
 451   0.0000       3.199945        87.0749 
 452   0.0000       3.210366        87.3585 
 453   0.0000       3.211882        87.3998 
 454   0.0000       3.222078        87.6772 
 455   0.0000       3.237401        88.0942 
 456   0.0000       3.240420        88.1763 
 457   0.0000       3.244338        88.2829 
 458   0.0000       3.246645        88.3457 
 459   0.0000       3.253741        88.5388 
 460   0.0000       3.262015        88.7639 
 461   0.0000       3.270196        88.9866 
 462   0.0000       3.276992        89.1715 
 463   0.0000       3.282192        89.3130 
 464   0.0000       3.300690        89.8164 
 465   0.0000       3.303588        89.8952 
 466   0.0000       3.310995        90.0968 
 467   0.0000       3.312122        90.1274 
 468   0.0000       3.318388        90.2979 
 469   0.0000       3.324650        90.4683 
 470   0.0000       3.329755        90.6072 
 471   0.0000       3.338872        90.8553 
 472   0.0000       3.343999        90.9948 
 473   0.0000       3.350286        91.1659 
 474   0.0000       3.359187        91.4081 
 475   0.0000       3.364760        91.5598 
 476   0.0000       3.371401        91.7405 
 477   0.0000       3.376618        91.8825 
 478   0.0000       3.386791        92.1593 
 479   0.0000       3.389084        92.2217 
 480   0.0000       3.395082        92.3849 
 481   0.0000       3.398587        92.4803 
 482   0.0000       3.402664        92.5912 
 483   0.0000       3.411141        92.8219 
 484   0.0000       3.416489        92.9674 
 485   0.0000       3.426043        93.2274 
 486   0.0000       3.432578        93.4052 
 487   0.0000       3.433426        93.4283 
 488   0.0000       3.439607        93.5965 
 489   0.0000       3.448526        93.8392 
 490   0.0000       3.449533        93.8666 
 491   0.0000       3.456869        94.0662 
 492   0.0000       3.459702        94.1433 
 493   0.0000       3.470147        94.4275 
 494   0.0000       3.474484        94.5455 
 495   0.0000       3.483416        94.7886 
 496   0.0000       3.489120        94.9438 
 497   0.0000       3.489863        94.9640 
 498   0.0000       3.495384        95.1142 
 499   0.0000       3.503515        95.3355 
 500   0.0000       3.511034        95.5401 
 501   0.0000       3.520318        95.7927 
 502   0.0000       3.532284        96.1183 
 503   0.0000       3.543541        96.4247 
 504   0.0000       3.550478        96.6134 
 505   0.0000       3.555949        96.7623 
 506   0.0000       3.562854        96.9502 
 507   0.0000       3.572434        97.2109 
 508   0.0000       3.579739        97.4097 
 509   0.0000       3.590688        97.7076 
 510   0.0000       3.600550        97.9759 
 511   0.0000       3.611394        98.2710 
 512   0.0000       3.616291        98.4043 
 513   0.0000       3.619059        98.4796 
 514   0.0000       3.626310        98.6769 
 515   0.0000       3.633607        98.8755 
 516   0.0000       3.637534        98.9823 
 517   0.0000       3.641631        99.0938 
 518   0.0000       3.647166        99.2444 
 519   0.0000       3.653902        99.4277 
 520   0.0000       3.664075        99.7045 
 521   0.0000       3.671595        99.9092 
 522   0.0000       3.676859       100.0524 
 523   0.0000       3.680781       100.1591 
 524   0.0000       3.687392       100.3390 
 525   0.0000       3.691091       100.4397 
 526   0.0000       3.692247       100.4712 
 527   0.0000       3.706517       100.8595 
 528   0.0000       3.712159       101.0130 
 529   0.0000       3.717938       101.1702 
 530   0.0000       3.720126       101.2298 
 531   0.0000       3.725869       101.3860 
 532   0.0000       3.731204       101.5312 
 533   0.0000       3.736023       101.6623 
 534   0.0000       3.745908       101.9313 
 535   0.0000       3.756144       102.2099 
 536   0.0000       3.758539       102.2750 
 537   0.0000       3.763617       102.4132 
 538   0.0000       3.773640       102.6860 
 539   0.0000       3.781537       102.9009 
 540   0.0000       3.786998       103.0495 
 541   0.0000       3.801471       103.4433 
 542   0.0000       3.803363       103.4948 
 543   0.0000       3.809915       103.6731 
 544   0.0000       3.816603       103.8550 
 545   0.0000       3.825111       104.0866 
 546   0.0000       3.827569       104.1534 
 547   0.0000       3.837495       104.4235 
 548   0.0000       3.850459       104.7763 
 549   0.0000       3.853638       104.8628 
 550   0.0000       3.859186       105.0138 
 551   0.0000       3.875639       105.4615 
 552   0.0000       3.883137       105.6655 
 553   0.0000       3.888169       105.8025 
 554   0.0000       3.899899       106.1216 
 555   0.0000       3.910261       106.4036 
 556   0.0000       3.916533       106.5743 
 557   0.0000       3.918145       106.6181 
 558   0.0000       3.930081       106.9429 
 559   0.0000       3.936261       107.1111 
 560   0.0000       3.944910       107.3465 
 561   0.0000       3.955822       107.6434 
 562   0.0000       3.957992       107.7024 
 563   0.0000       3.977880       108.2436 
 564   0.0000       3.986947       108.4903 
 565   0.0000       3.990852       108.5966 
 566   0.0000       3.995945       108.7352 
 567   0.0000       4.001133       108.8764 
 568   0.0000       4.011782       109.1661 
 569   0.0000       4.023849       109.4945 
 570   0.0000       4.032643       109.7338 
 571   0.0000       4.034476       109.7837 
 572   0.0000       4.047346       110.1339 
 573   0.0000       4.053935       110.3132 
 574   0.0000       4.068009       110.6962 
 575   0.0000       4.074401       110.8701 
 576   0.0000       4.082062       111.0786 
 577   0.0000       4.091744       111.3420 
 578   0.0000       4.096125       111.4612 
 579   0.0000       4.102146       111.6251 
 580   0.0000       4.107205       111.7627 
 581   0.0000       4.121316       112.1467 
 582   0.0000       4.126665       112.2923 
 583   0.0000       4.137731       112.5934 
 584   0.0000       4.139702       112.6470 
 585   0.0000       4.150617       112.9440 
 586   0.0000       4.157209       113.1234 
 587   0.0000       4.160385       113.2098 
 588   0.0000       4.167570       113.4053 
 589   0.0000       4.171945       113.5244 
 590   0.0000       4.182348       113.8075 
 591   0.0000       4.196404       114.1899 
 592   0.0000       4.201569       114.3305 
 593   0.0000       4.203612       114.3861 
 594   0.0000       4.210233       114.5663 
 595   0.0000       4.217152       114.7545 
 596   0.0000       4.223125       114.9171 
 597   0.0000       4.229464       115.0896 
 598   0.0000       4.242652       115.4484 
 599   0.0000       4.244802       115.5069 
 600   0.0000       4.258224       115.8722 
 601   0.0000       4.269162       116.1698 
 602   0.0000       4.279051       116.4389 
 603   0.0000       4.292236       116.7977 
 604   0.0000       4.295841       116.8958 
 605   0.0000       4.306513       117.1862 
 606   0.0000       4.311035       117.3092 
 607   0.0000       4.319823       117.5484 
 608   0.0000       4.328407       117.7819 
 609   0.0000       4.329178       117.8029 
 610   0.0000       4.340182       118.1024 
 611   0.0000       4.346631       118.2778 
 612   0.0000       4.353520       118.4653 
 613   0.0000       4.365410       118.7889 
 614   0.0000       4.371798       118.9627 
 615   0.0000       4.386241       119.3557 
 616   0.0000       4.393319       119.5483 
 617   0.0000       4.401296       119.7653 
 618   0.0000       4.404689       119.8577 
 619   0.0000       4.413941       120.1094 
 620   0.0000       4.424063       120.3849 
 621   0.0000       4.427743       120.4850 
 622   0.0000       4.435275       120.6900 
 623   0.0000       4.445621       120.9715 
 624   0.0000       4.452659       121.1630 
 625   0.0000       4.460036       121.3638 
 626   0.0000       4.464992       121.4986 
 627   0.0000       4.474135       121.7474 
 628   0.0000       4.488800       122.1465 
 629   0.0000       4.490499       122.1927 
 630   0.0000       4.500079       122.4534 
 631   0.0000       4.504320       122.5688 
 632   0.0000       4.522018       123.0504 
 633   0.0000       4.533538       123.3638 
 634   0.0000       4.538964       123.5115 
 635   0.0000       4.547587       123.7461 
 636   0.0000       4.549292       123.7925 
 637   0.0000       4.555058       123.9494 
 638   0.0000       4.560065       124.0857 
 639   0.0000       4.570995       124.3831 
 640   0.0000       4.575504       124.5058 
 641   0.0000       4.589369       124.8831 
 642   0.0000       4.594097       125.0117 
 643   0.0000       4.597851       125.1139 
 644   0.0000       4.608270       125.3974 
 645   0.0000       4.615881       125.6045 
 646   0.0000       4.621059       125.7454 
 647   0.0000       4.629754       125.9820 
 648   0.0000       4.644028       126.3704 
 649   0.0000       4.653860       126.6380 
 650   0.0000       4.659527       126.7922 
 651   0.0000       4.667987       127.0224 
 652   0.0000       4.675443       127.2253 
 653   0.0000       4.690745       127.6417 
 654   0.0000       4.694954       127.7562 
 655   0.0000       4.698695       127.8580 
 656   0.0000       4.706077       128.0589 
 657   0.0000       4.711997       128.2200 
 658   0.0000       4.719924       128.4356 
 659   0.0000       4.739125       128.9582 
 660   0.0000       4.762920       129.6057 
 661   0.0000       4.779693       130.0621 
 662   0.0000       4.785744       130.2267 
 663   0.0000       4.795915       130.5035 
 664   0.0000       4.808613       130.8490 
 665   0.0000       4.823632       131.2577 
 666   0.0000       4.842105       131.7604 
 667   0.0000       4.853774       132.0779 
 668   0.0000       4.874616       132.6450 
 669   0.0000       4.891278       133.0984 
 670   0.0000       4.902578       133.4059 
 671   0.0000       4.917656       133.8162 
 672   0.0000       4.952221       134.7568 
 673   0.0000       4.974992       135.3764 
 674   0.0000       4.988690       135.7491 
 675   0.0000       5.004120       136.1690 
 676   0.0000       5.006850       136.2433 
 677   0.0000       5.013897       136.4351 
 678   0.0000       5.026987       136.7913 
 679   0.0000       5.043984       137.2538 
 680   0.0000       5.048737       137.3831 
 681   0.0000       5.052956       137.4979 
 682   0.0000       5.062738       137.7641 
 683   0.0000       5.086547       138.4120 
 684   0.0000       5.102420       138.8439 
 685   0.0000       5.132494       139.6623 
 686   0.0000       5.136910       139.7824 
 687   0.0000       5.140750       139.8869 
 688   0.0000       5.146531       140.0442 
 689   0.0000       5.167490       140.6146 
 690   0.0000       5.177762       140.8941 
 691   0.0000       5.179863       140.9512 
 692   0.0000       5.192261       141.2886 
 693   0.0000       5.205009       141.6355 
 694   0.0000       5.209291       141.7520 
 695   0.0000       5.222256       142.1048 
 696   0.0000       5.234302       142.4326 
 697   0.0000       5.239642       142.5779 
 698   0.0000       5.249329       142.8415 
 699   0.0000       5.264118       143.2439 
 700   0.0000       5.271641       143.4487 
 701   0.0000       5.287616       143.8833 
 702   0.0000       5.307579       144.4266 
 703   0.0000       5.321541       144.8065 
 704   0.0000       5.338286       145.2621 
 705   0.0000       5.350251       145.5877 
 706   0.0000       5.359591       145.8419 
 707   0.0000       5.368351       146.0803 
 708   0.0000       5.372385       146.1900 
 709   0.0000       5.382029       146.4524 
 710   0.0000       5.397288       146.8677 
 711   0.0000       5.409392       147.1970 
 712   0.0000       5.424386       147.6050 
 713   0.0000       5.445085       148.1683 
 714   0.0000       5.465581       148.7260 
 715   0.0000       5.477709       149.0560 
 716   0.0000       5.499523       149.6496 
 717   0.0000       5.500759       149.6833 
 718   0.0000       5.506413       149.8371 
 719   0.0000       5.514537       150.0582 
 720   0.0000       5.517745       150.1455 
 721   0.0000       5.529584       150.4676 
 722   0.0000       5.534332       150.5968 
 723   0.0000       5.564747       151.4245 
 724   0.0000       5.573232       151.6553 
 725   0.0000       5.589328       152.0933 
 726   0.0000       5.597273       152.3095 
 727   0.0000       5.602306       152.4465 
 728   0.0000       5.610119       152.6591 
 729   0.0000       5.617630       152.8635 
 730   0.0000       5.625799       153.0858 
 731   0.0000       5.633866       153.3053 
 732   0.0000       5.671072       154.3177 
 733   0.0000       5.673276       154.3777 
 734   0.0000       5.691860       154.8834 
 735   0.0000       5.699450       155.0899 
 736   0.0000       5.715358       155.5228 
 737   0.0000       5.726205       155.8180 
 738   0.0000       5.735634       156.0745 
 739   0.0000       5.747461       156.3964 
 740   0.0000       5.774846       157.1415 
 741   0.0000       5.782158       157.3405 
 742   0.0000       5.801065       157.8550 
 743   0.0000       5.819842       158.3659 
 744   0.0000       5.822532       158.4391 
 745   0.0000       5.840622       158.9314 
 746   0.0000       5.866993       159.6490 
 747   0.0000       5.887423       160.2049 
 748   0.0000       5.897465       160.4782 
 749   0.0000       5.933461       161.4577 
 750   0.0000       5.960493       162.1933 
 751   0.0000       5.975876       162.6119 
 752   0.0000       5.979237       162.7033 
 753   0.0000       5.984477       162.8459 
 754   0.0000       5.994354       163.1147 
 755   0.0000       6.024093       163.9239 
 756   0.0000       6.057320       164.8281 
 757   0.0000       6.071341       165.2096 
 758   0.0000       6.085225       165.5874 
 759   0.0000       6.120802       166.5555 
 760   0.0000       6.151536       167.3918 
 761   0.0000       6.203183       168.7972 
 762   0.0000       6.209162       168.9599 
 763   0.0000       6.212568       169.0526 
 764   0.0000       6.236281       169.6978 
 765   0.0000       6.241846       169.8493 
 766   0.0000       6.283559       170.9843 
 767   0.0000       6.294053       171.2699 
 768   0.0000       6.316084       171.8694 
 769   0.0000       6.323433       172.0694 
 770   0.0000       6.337264       172.4457 
 771   0.0000       6.359625       173.0542 
 772   0.0000       6.396777       174.0651 
 773   0.0000       6.452864       175.5914 
 774   0.0000       6.456967       175.7030 
 775   0.0000       6.506779       177.0585 
 776   0.0000       6.562513       178.5751 
 777   0.0000       6.575417       178.9262 
 778   0.0000       6.611655       179.9123 
 779   0.0000       6.634223       180.5264 
 780   0.0000       6.654489       181.0779 
 781   0.0000       6.669584       181.4886 
 782   0.0000       6.752601       183.7476 
 783   0.0000       6.829001       185.8266 
 784   0.0000       6.878861       187.1833 
 785   0.0000       6.905106       187.8975 
 786   0.0000       6.913048       188.1136 
 787   0.0000       6.924692       188.4304 
 788   0.0000       6.969885       189.6602 
 789   0.0000       7.014291       190.8686 
 790   0.0000       7.048062       191.7875 
 791   0.0000       7.089116       192.9047 
 792   0.0000       7.097157       193.1235 
 793   0.0000       7.107932       193.4167 
 794   0.0000       7.133941       194.1244 
 795   0.0000       7.223669       196.5660 
 796   0.0000       7.247000       197.2009 
 797   0.0000       7.285268       198.2422 
 798   0.0000       7.341407       199.7698 
 799   0.0000       7.364959       200.4107 
 800   0.0000       7.393976       201.2003 
 801   0.0000       7.546986       205.3639 
 802   0.0000       7.590503       206.5481 
 803   0.0000       7.597101       206.7276 
 804   0.0000       7.644661       208.0218 
 805   0.0000       7.825855       212.9523 
 806   0.0000       7.891268       214.7323 
 807   0.0000       7.929667       215.7772 
 808   0.0000       8.050877       219.0755 
 809   0.0000       9.411307       256.0947 
 810   0.0000       9.783887       266.2331 
 811   0.0000      10.753134       292.6076 
 812   0.0000      11.280384       306.9548 
 813   0.0000      12.101879       329.3089 
 814   0.0000      12.556336       341.6753 
 815   0.0000      12.651935       344.2767 
 816   0.0000      12.788093       347.9817 
 817   0.0000      13.003837       353.8524 
 818   0.0000      13.255177       360.6917 
 819   0.0000      13.366779       363.7286 
 820   0.0000      13.542346       368.5060 
 821   0.0000      13.847108       376.7990 
 822   0.0000      13.874453       377.5430 
 823   0.0000      14.024722       381.6321 
 824   0.0000      14.109958       383.9515 
 825   0.0000      14.497130       394.4870 
 826   0.0000      14.789094       402.4317 
 827   0.0000      15.881710       432.1633 

                    ********************************
                    * MULLIKEN POPULATION ANALYSIS *
                    ********************************

-----------------------
MULLIKEN ATOMIC CHARGES
-----------------------
   0 C :   -0.291936
   1 C :    0.040275
   2 O :   -0.317561
   3 C :    0.385905
   4 O :   -0.398587
   5 C :   -0.041287
   6 C :    0.073440
   7 C :   -0.321174
   8 N :   -0.124969
   9 C :    0.203323
  10 S :   -0.436853
  11 N :   -0.199723
  12 C :    0.075381
  13 C :    0.038210
  14 C :   -0.217759
  15 C :   -0.120619
  16 C :   -0.285123
  17 C :    0.310156
  18 O :   -0.360766
  19 C :   -0.239926
  20 H :    0.126269
  21 H :    0.088000
  22 H :    0.099064
  23 H :    0.088677
  24 H :    0.090480
  25 H :    0.118933
  26 H :    0.112945
  27 H :    0.128140
  28 H :    0.192065
  29 H :    0.182675
  30 H :    0.183136
  31 H :    0.133380
  32 H :    0.156507
  33 H :    0.125753
  34 H :    0.242904
  35 H :    0.160664
Sum of atomic charges:   -0.0000000

--------------------------------
MULLIKEN REDUCED ORBITAL CHARGES
--------------------------------
  0 C s       :     3.263457  s :     3.263457
      pz      :     1.003154  p :     2.951329
      px      :     1.033501
      py      :     0.914674
      dz2     :     0.024415  d :     0.072609
      dxz     :     0.005318
      dyz     :     0.012767
      dx2y2   :     0.016038
      dxy     :     0.014072
      f0      :     0.001174  f :     0.004540
      f+1     :     0.000272
      f-1     :     0.000539
      f+2     :     0.000532
      f-2     :     0.000234
      f+3     :     0.000576
      f-3     :     0.001213
  1 C s       :     3.180954  s :     3.180954
      pz      :     1.001217  p :     2.617606
      px      :     0.759583
      py      :     0.856806
      dz2     :     0.025187  d :     0.149495
      dxz     :     0.027444
      dyz     :     0.022951
      dx2y2   :     0.034005
      dxy     :     0.039908
      f0      :     0.001125  f :     0.011671
      f+1     :     0.001446
      f-1     :     0.001057
      f+2     :     0.001262
      f-2     :     0.001803
      f+3     :     0.002783
      f-3     :     0.002194
  2 O s       :     3.712949  s :     3.712949
      pz      :     1.652459  p :     4.567665
      px      :     1.212812
      py      :     1.702394
      dz2     :     0.003102  d :     0.034478
      dxz     :     0.012952
      dyz     :     0.003998
      dx2y2   :     0.006343
      dxy     :     0.008082
      f0      :     0.000229  f :     0.002469
      f+1     :     0.000299
      f-1     :     0.000050
      f+2     :     0.000403
      f-2     :     0.000299
      f+3     :     0.000543
      f-3     :     0.000645
  3 C s       :     3.094341  s :     3.094341
      pz      :     0.751381  p :     2.200392
      px      :     0.696243
      py      :     0.752767
      dz2     :     0.068428  d :     0.292065
      dxz     :     0.057861
      dyz     :     0.033957
      dx2y2   :     0.070998
      dxy     :     0.060822
      f0      :     0.001609  f :     0.027297
      f+1     :     0.003879
      f-1     :     0.003329
      f+2     :     0.005518
      f-2     :     0.003520
      f+3     :     0.004247
      f-3     :     0.005196
  4 O s       :     3.773866  s :     3.773866
      pz      :     1.463969  p :     4.586904
      px      :     1.647638
      py      :     1.475297
      dz2     :     0.007809  d :     0.035437
      dxz     :     0.006929
      dyz     :     0.006682
      dx2y2   :     0.005133
      dxy     :     0.008883
      f0      :     0.000214  f :     0.002381
      f+1     :     0.000297
      f-1     :     0.000301
      f+2     :     0.000264
      f-2     :     0.000627
      f+3     :     0.000380
      f-3     :     0.000297
  5 C s       :     3.157750  s :     3.157750
      pz      :     0.931500  p :     2.772543
      px      :     0.921644
      py      :     0.919399
      dz2     :     0.018545  d :     0.099185
      dxz     :     0.013935
      dyz     :     0.025073
      dx2y2   :     0.016923
      dxy     :     0.024709
      f0      :     0.000947  f :     0.011809
      f+1     :     0.001726
      f-1     :     0.001586
      f+2     :     0.002014
      f-2     :     0.002045
      f+3     :     0.001403
      f-3     :     0.002088
  6 C s       :     3.197467  s :     3.197467
      pz      :     0.881334  p :     2.544771
      px      :     0.867687
      py      :     0.795751
      dz2     :     0.032257  d :     0.169953
      dxz     :     0.017952
      dyz     :     0.049460
      dx2y2   :     0.028502
      dxy     :     0.041783
      f0      :     0.001711  f :     0.014369
      f+1     :     0.001381
      f-1     :     0.002361
      f+2     :     0.002342
      f-2     :     0.002313
      f+3     :     0.001968
      f-3     :     0.002292
  7 C s       :     3.301909  s :     3.301909
      pz      :     0.920251  p :     2.941964
      px      :     0.996943
      py      :     1.024770
      dz2     :     0.021599  d :     0.072607
      dxz     :     0.013229
      dyz     :     0.010573
      dx2y2   :     0.020829
      dxy     :     0.006376
      f0      :     0.000440  f :     0.004693
      f+1     :     0.001255
      f-1     :     0.000952
      f+2     :     0.000402
      f-2     :     0.000513
      f+3     :     0.000410
      f-3     :     0.000721
  8 N s       :     3.337627  s :     3.337627
      pz      :     1.324737  p :     3.721972
      px      :     1.308060
      py      :     1.089175
      dz2     :     0.012707  d :     0.060404
      dxz     :     0.009992
      dyz     :     0.011870
      dx2y2   :     0.012590
      dxy     :     0.013246
      f0      :     0.000584  f :     0.004967
      f+1     :     0.000994
      f-1     :     0.000490
      f+2     :     0.000982
      f-2     :     0.001020
      f+3     :     0.000479
      f-3     :     0.000418
  9 C s       :     3.162765  s :     3.162765
      pz      :     0.761938  p :     2.354381
      px      :     0.732266
      py      :     0.860177
      dz2     :     0.061048  d :     0.261999
      dxz     :     0.033311
      dyz     :     0.045216
      dx2y2   :     0.063791
      dxy     :     0.058633
      f0      :     0.002175  f :     0.017531
      f+1     :     0.002689
      f-1     :     0.002150
      f+2     :     0.002808
      f-2     :     0.002096
      f+3     :     0.002561
      f-3     :     0.003052
 10 S s       :     5.857083  s :     5.857083
      pz      :     3.448719  p :    10.485401
      px      :     3.716695
      py      :     3.319987
      dz2     :     0.011317  d :     0.084216
      dxz     :     0.005513
      dyz     :     0.037128
      dx2y2   :     0.013999
      dxy     :     0.016259
      f0      :     0.001086  f :     0.010154
      f+1     :     0.000211
      f-1     :     0.002211
      f+2     :     0.002617
      f-2     :     0.001779
      f+3     :     0.001468
      f-3     :     0.000782
 11 N s       :     3.373547  s :     3.373547
      pz      :     1.284743  p :     3.763287
      px      :     1.433230
      py      :     1.045314
      dz2     :     0.008709  d :     0.058589
      dxz     :     0.007766
      dyz     :     0.015776
      dx2y2   :     0.012743
      dxy     :     0.013595
      f0      :     0.000323  f :     0.004300
      f+1     :     0.000547
      f-1     :     0.000567
      f+2     :     0.000682
      f-2     :     0.000620
      f+3     :     0.000794
      f-3     :     0.000767
 12 C s       :     3.114882  s :     3.114882
      pz      :     0.852760  p :     2.626177
      px      :     0.902007
      py      :     0.871411
      dz2     :     0.032862  d :     0.172810
      dxz     :     0.030065
      dyz     :     0.037944
      dx2y2   :     0.027892
      dxy     :     0.044048
      f0      :     0.000974  f :     0.010749
      f+1     :     0.001446
      f-1     :     0.001837
      f+2     :     0.002253
      f-2     :     0.001858
      f+3     :     0.001484
      f-3     :     0.000898
 13 C s       :     3.137111  s :     3.137111
      pz      :     0.863746  p :     2.699694
      px      :     0.904305
      py      :     0.931643
      dz2     :     0.024596  d :     0.113986
      dxz     :     0.015112
      dyz     :     0.024042
      dx2y2   :     0.025400
      dxy     :     0.024837
      f0      :     0.000967  f :     0.010999
      f+1     :     0.001841
[...]
      f-2     :     0.005056
      f+3     :     0.008022
      f-3     :     0.007443
 15 C s       :     2.703406  s :     2.703406
      pz      :     0.881432  p :     2.792650
      px      :     0.948439
      py      :     0.962779
      dz2     :     0.081827  d :     0.425926
      dxz     :     0.075368
      dyz     :     0.053037
      dx2y2   :     0.127126
      dxy     :     0.088567
      f0      :     0.003336  f :     0.042304
      f+1     :     0.004985
      f-1     :     0.005470
      f+2     :     0.007159
      f-2     :     0.006167
      f+3     :     0.008418
      f-3     :     0.006769
 16 C s       :     2.699843  s :     2.699843
      pz      :     0.934413  p :     2.875402
      px      :     0.965685
      py      :     0.975304
      dz2     :     0.036316  d :     0.394384
      dxz     :     0.061714
      dyz     :     0.079727
      dx2y2   :     0.103284
      dxy     :     0.113343
      f0      :     0.003644  f :     0.041135
      f+1     :     0.003871
      f-1     :     0.004719
      f+2     :     0.006591
      f-2     :     0.004607
      f+3     :     0.010407
      f-3     :     0.007297
 17 C s       :     2.703117  s :     2.703117
      pz      :     0.855947  p :     2.677941
      px      :     0.826516
      py      :     0.995478
      dz2     :     0.114578  d :     0.709018
      dxz     :     0.111114
      dyz     :     0.126630
      dx2y2   :     0.173978
      dxy     :     0.182718
      f0      :     0.007928  f :     0.099454
      f+1     :     0.014612
      f-1     :     0.009113
      f+2     :     0.016124
      f-2     :     0.012495
      f+3     :     0.022088
      f-3     :     0.017095
 18 O s       :     3.178584  s :     3.178584
      pz      :     1.469851  p :     4.349165
      px      :     1.364400
      py      :     1.514915
      dz2     :     0.006993  d :     0.075700
      dxz     :     0.016608
      dyz     :     0.015386
      dx2y2   :     0.015984
      dxy     :     0.020729
      f0      :     0.000539  f :     0.005119
      f+1     :     0.000705
      f-1     :     0.000395
      f+2     :     0.000503
      f-2     :     0.000954
      f+3     :     0.000953
      f-3     :     0.001069
 19 C s       :     2.698279  s :     2.698279
      pz      :     0.931738  p :     2.850100
      px      :     0.954989
      py      :     0.963374
      dz2     :     0.063747  d :     0.378985
      dxz     :     0.070662
      dyz     :     0.052822
      dx2y2   :     0.100793
      dxy     :     0.090961
      f0      :     0.003543  f :     0.039480
      f+1     :     0.005056
      f-1     :     0.004269
      f+2     :     0.006987
      f-2     :     0.006082
      f+3     :     0.007949
      f-3     :     0.005593
 20 H s       :     0.840087  s :     0.840087
      pz      :     0.041089  p :     0.152652
      px      :     0.070864
      py      :     0.040698
      dz2     :     0.003072  d :     0.027796
      dxz     :     0.007844
      dyz     :     0.001125
      dx2y2   :     0.007390
      dxy     :     0.008365
 21 H s       :     0.846417  s :     0.846417
      pz      :     0.073212  p :     0.153331
      px      :     0.040432
      py      :     0.039687
      dz2     :     0.009081  d :     0.027679
      dxz     :     0.008969
      dyz     :     0.009032
      dx2y2   :     0.000368
      dxy     :     0.000229
 22 H s       :     0.846393  s :     0.846393
      pz      :     0.044682  p :     0.150064
      px      :     0.054773
      py      :     0.050609
      dz2     :     0.005014  d :     0.027503
      dxz     :     0.004234
      dyz     :     0.004315
      dx2y2   :     0.007868
      dxy     :     0.006072
 23 H s       :     0.860079  s :     0.860079
      pz      :     0.052802  p :     0.146586
      px      :     0.050136
      py      :     0.043647
      dz2     :     0.006667  d :     0.027198
      dxz     :     0.005165
      dyz     :     0.004305
      dx2y2   :     0.004835
      dxy     :     0.006227
 24 H s       :     0.843810  s :     0.843810
      pz      :     0.071195  p :     0.148289
      px      :     0.037784
      py      :     0.039310
      dz2     :     0.008128  d :     0.028169
      dxz     :     0.008050
      dyz     :     0.008121
      dx2y2   :     0.001784
      dxy     :     0.002087
 25 H s       :     0.829363  s :     0.829363
      pz      :     0.060924  p :     0.150139
      px      :     0.043821
      py      :     0.045395
      dz2     :     0.008616  d :     0.027380
      dxz     :     0.006602
      dyz     :     0.006483
      dx2y2   :     0.003673
      dxy     :     0.002006
 26 H s       :     0.838253  s :     0.838253
      pz      :     0.037553  p :     0.150850
      px      :     0.040453
      py      :     0.072844
      dz2     :     0.002456  d :     0.027842
      dxz     :     0.000239
      dyz     :     0.009150
      dx2y2   :     0.007138
      dxy     :     0.008859
 27 H s       :     0.837264  s :     0.837264
      pz      :     0.038352  p :     0.153732
      px      :     0.073381
      py      :     0.041999
      dz2     :     0.002404  d :     0.027720
      dxz     :     0.008709
      dyz     :     0.000235
      dx2y2   :     0.007819
      dxy     :     0.008554
 28 H s       :     0.744491  s :     0.744491
      pz      :     0.065752  p :     0.253886
      px      :     0.075695
      py      :     0.112438
      dz2     :     0.005796  d :     0.061656
      dxz     :     0.002491
      dyz     :     0.018079
      dx2y2   :     0.016642
      dxy     :     0.018647
 29 H s       :     0.748958  s :     0.748958
      pz      :     0.111564  p :     0.256579
      px      :     0.101080
      py      :     0.043936
      dz2     :     0.020678  d :     0.062052
      dxz     :     0.016091
      dyz     :     0.010439
      dx2y2   :     0.009101
      dxy     :     0.005744
 30 H s       :     0.809801  s :     0.809801
      pz      :     0.041916  p :     0.166770
      px      :     0.049715
      py      :     0.075139
      dz2     :     0.003194  d :     0.030453
      dxz     :     0.004331
      dyz     :     0.006339
      dx2y2   :     0.008300
      dxy     :     0.008290
 31 H s       :     0.845160  s :     0.845160
      pz      :     0.052349  p :     0.161425
      px      :     0.065111
      py      :     0.043966
      dz2     :     0.004364  d :     0.028011
      dxz     :     0.006192
      dyz     :     0.003656
      dx2y2   :     0.006964
      dxy     :     0.006835
 32 H s       :     0.843133  s :     0.843133
      pz      :     0.038263  p :     0.150230
      px      :     0.036467
      py      :     0.075501
      dz2     :     0.002749  d :     0.026359
      dxz     :     0.000556
      dyz     :     0.007457
      dx2y2   :     0.007618
      dxy     :     0.007979
 33 H s       :     0.849101  s :     0.849101
      pz      :     0.058482  p :     0.159055
      px      :     0.053232
      py      :     0.047342
      dz2     :     0.005914  d :     0.027714
      dxz     :     0.005421
      dyz     :     0.005104
      dx2y2   :     0.005879
      dxy     :     0.005397
 34 H s       :     0.705392  s :     0.705392
      pz      :     0.119635  p :     0.346360
      px      :     0.086237
      py      :     0.140488
      dz2     :     0.024342  d :     0.099137
      dxz     :     0.013013
      dyz     :     0.022907
      dx2y2   :     0.020020
      dxy     :     0.018855
 35 H s       :     0.839840  s :     0.839840
      pz      :     0.043853  p :     0.161258
      px      :     0.039982
      py      :     0.077423
      dz2     :     0.003261  d :     0.028732
      dxz     :     0.001153
      dyz     :     0.008151
      dx2y2   :     0.007871
      dxy     :     0.008296


                      *****************************
                      * MAYER POPULATION ANALYSIS *
                      *****************************

  NA   - Mulliken gross atomic population
  ZA   - Total nuclear charge
  QA   - Mulliken gross atomic charge
  VA   - Mayer's total valence
  BVA  - Mayer's bonded valence
  FA   - Mayer's free valence

  ATOM       NA         ZA         QA         VA         BVA        FA
  0 C      6.2919     6.0000    -0.2919     3.8641     3.8641     0.0000
  1 C      5.9597     6.0000     0.0403     3.8621     3.8621    -0.0000
  2 O      8.3176     8.0000    -0.3176     2.0283     2.0283     0.0000
  3 C      5.6141     6.0000     0.3859     4.2461     4.2461     0.0000
  4 O      8.3986     8.0000    -0.3986     2.1253     2.1253    -0.0000
  5 C      6.0413     6.0000    -0.0413     3.5687     3.5687     0.0000
  6 C      5.9266     6.0000     0.0734     3.8157     3.8157    -0.0000
  7 C      6.3212     6.0000    -0.3212     3.8809     3.8809    -0.0000
  8 N      7.1250     7.0000    -0.1250     3.2752     3.2752    -0.0000
  9 C      5.7967     6.0000     0.2033     4.1416     4.1416    -0.0000
 10 S     16.4369    16.0000    -0.4369     1.7554     1.7554     0.0000
 11 N      7.1997     7.0000    -0.1997     3.2524     3.2524     0.0000
 12 C      5.9246     6.0000     0.0754     3.9280     3.9280     0.0000
 13 C      5.9618     6.0000     0.0382     3.7267     3.7267    -0.0000
 14 C      6.2178     6.0000    -0.2178     3.8506     3.8506    -0.0000
 15 C      6.1206     6.0000    -0.1206     3.8096     3.8096     0.0000
 16 C      6.2851     6.0000    -0.2851     3.7800     3.7800    -0.0000
 17 C      5.6898     6.0000     0.3102     3.8788     3.8788    -0.0000
 18 O      8.3608     8.0000    -0.3608     2.1126     2.1126    -0.0000
 19 C      6.2399     6.0000    -0.2399     3.8402     3.8402    -0.0000
 20 H      0.8737     1.0000     0.1263     0.9882     0.9882     0.0000
 21 H      0.9120     1.0000     0.0880     0.9814     0.9814    -0.0000
 22 H      0.9009     1.0000     0.0991     0.9801     0.9801    -0.0000
 23 H      0.9113     1.0000     0.0887     0.9732     0.9732     0.0000
 24 H      0.9095     1.0000     0.0905     0.9677     0.9677     0.0000
 25 H      0.8811     1.0000     0.1189     0.9797     0.9797     0.0000
 26 H      0.8871     1.0000     0.1129     0.9876     0.9876     0.0000
 27 H      0.8719     1.0000     0.1281     0.9742     0.9742     0.0000
 28 H      0.8079     1.0000     0.1921     1.0258     1.0258     0.0000
 29 H      0.8173     1.0000     0.1827     1.0298     1.0298     0.0000
 30 H      0.8169     1.0000     0.1831     0.9934     0.9934     0.0000
 31 H      0.8666     1.0000     0.1334     0.9884     0.9884    -0.0000
 32 H      0.8435     1.0000     0.1565     0.9784     0.9784    -0.0000
 33 H      0.8742     1.0000     0.1258     0.9925     0.9925    -0.0000
 34 H      0.7571     1.0000     0.2429     1.0090     1.0090     0.0000
 35 H      0.8393     1.0000     0.1607     0.9915     0.9915     0.0000

  Mayer bond orders larger than 0.100000
B(  0-C ,  1-C ) :   0.9422 B(  0-C , 20-H ) :   0.9724 B(  0-C , 21-H ) :   0.9823 
B(  0-C , 22-H ) :   0.9804 B(  1-C ,  2-O ) :   0.9238 B(  1-C , 23-H ) :   0.9793 
B(  1-C , 24-H ) :   0.9871 B(  2-O ,  3-C ) :   1.1594 B(  2-O ,  5-C ) :  -0.1000 
B(  3-C ,  4-O ) :   2.0697 B(  3-C ,  5-C ) :   0.9547 B(  5-C ,  6-C ) :   1.7376 
B(  5-C , 12-C ) :   0.9823 B(  6-C ,  7-C ) :   0.9190 B(  6-C ,  8-N ) :   1.0973 
B(  7-C , 25-H ) :   0.9739 B(  7-C , 26-H ) :   0.9870 B(  7-C , 27-H ) :   0.9756 
B(  8-N ,  9-C ) :   1.1949 B(  8-N , 28-H ) :   0.9520 B(  9-C , 10-S ) :   1.6059 
B(  9-C , 11-N ) :   1.2840 B( 11-N , 12-C ) :   0.9989 B( 11-N , 29-H ) :   0.9565 
B( 12-C , 13-C ) :   0.8897 B( 12-C , 30-H ) :   0.9835 B( 13-C , 14-C ) :   1.3741 
B( 13-C , 19-C ) :   1.3794 B( 14-C , 15-C ) :   1.3762 B( 14-C , 31-H ) :   0.9764 
B( 15-C , 16-C ) :   1.3768 B( 15-C , 32-H ) :   0.9717 B( 16-C , 17-C ) :   1.3092 
B( 16-C , 33-H ) :   0.9883 B( 17-C , 18-O ) :   1.1042 B( 17-C , 19-C ) :   1.3987 
B( 18-O , 34-H ) :   0.9780 B( 19-C , 35-H ) :   0.9526 

-------
TIMINGS
-------

Total SCF time: 0 days 1 hours 36 min 18 sec 

Total time                  ....    5778.089 sec
Sum of individual times     ....    5773.066 sec  ( 99.9%)

Fock matrix formation       ....    5762.204 sec  ( 99.7%)
Diagonalization             ....       1.164 sec  (  0.0%)
Density matrix formation    ....       0.209 sec  (  0.0%)
Population analysis         ....       0.243 sec  (  0.0%)
Initial guess               ....       4.809 sec  (  0.1%)
Orbital Transformation      ....       0.000 sec  (  0.0%)
Orbital Orthonormalization  ....       0.000 sec  (  0.0%)
DIIS solution               ....       1.756 sec  (  0.0%)
SOSCF solution              ....       1.393 sec  (  0.0%)

------------------------------------------------------------------------------
                                ORCA  MP2 
------------------------------------------------------------------------------

Freezing NCore=48 chemical core electrons

-------------
RI-MP2 ENERGY
-------------
Dimension of the basis                    ...  828
Memory devoted to MP2                     ...  256 MB   
Data format for buffers                   ... DOUBLE
Compression type for matrix containers    ... UNCOMPRESSED
Overall scaling of the MP2 energy         ...   1.000e+00
Calculating two index integrals           ... done (    0.041 sec)
Cholesky decomposition of V**-1           ... done (    0.370 sec)

-----------------
RI-TRANSFORMATION (AUX index driven)
-----------------

Dimension of the orbital-basis         ... 828
Dimension of the aux-basis             ... 2141
Transformation of internal/external MOs...   24-  76 to   77- 827
Number Format for Storage              ... Double (8 Byte)
Integral mode                          ... Direct

First Phase: integral generation and transformation of MO indices
  Aux angular momentum 0               ... done (    5.277 sec)
  Aux angular momentum 1               ... done (    8.241 sec)
  Aux angular momentum 2               ... done (   10.180 sec)
  Aux angular momentum 3               ... done (    7.526 sec)
  Aux angular momentum 4               ... done (    2.775 sec)
Closing buffer VIA ( 0.63 GB; CompressionRatio= 1.00)
  Phase 1 completed in    34.360 sec
Second Phase: sorting and transformation of aux index

IA-Transformation
Memory available                       ... 167 MB 
Max. # MO pairs treated in a batch     ... 12    
# of internal orbitals                 ... 53
# batches for internal orbitals        ... 5
Closing buffer IAV ( 0.63 GB; CompressionRatio= 1.00)
(ia|v) transformation done in    17.780 sec

  Phase 2 completed in    17.803 sec
RI-Integral transformation completed in    52.167 sec
Opening buffers                              ... done

Starting loop over batches of integrals:

Operator 0  - window                       ... ( 24- 76)x( 77-827)
Operator 0  - Memory available             ...   256 MB
Operator 0  - Memory needed per MO         ...  12.3 MB
Operator 0  - Number of orbitals per batch ... 13
Operator 0  - Number of batches            ... 5

OPERATOR  0   PASS   0:  MOs    24 ...   36
  Reading integrals       ... ok
  Internal MO  26
  Internal MO  29
  Internal MO  32
  Internal MO  35
OPERATOR  0   PASS   1:  MOs    37 ...   49
  Reading integrals       ... ok
  Internal MO  38
  Internal MO  41
  Internal MO  44
  Internal MO  47
OPERATOR  0   PASS   2:  MOs    50 ...   62
  Reading integrals       ... ok
  Internal MO  50
  Internal MO  53
  Internal MO  56
  Internal MO  59
  Internal MO  62
OPERATOR  0   PASS   3:  MOs    63 ...   75
  Reading integrals       ... ok
  Internal MO  65
  Internal MO  68
  Internal MO  71
  Internal MO  74
OPERATOR  0   PASS   4:  MOs    76 ...   76
  Reading integrals       ... ok
Time spent in pair loops =    85.388 sec
Deleting buffer (Ka|jb)[aa] ...done

-----------------------------------------------
 RI-MP2 CORRELATION ENERGY:     -3.557816523 Eh
-----------------------------------------------


-------
TIMINGS
-------

Total time                :  138.102 sec
Integral trafo            :   52.182 sec ( 37.8%)
I/O of integrals          :    1.499 sec (  1.1%)
K(i,j) Operators          :   51.671 sec ( 37.4%)
T(i,j) pair energies      :    8.627 sec (  6.2%)
V-calculation             :    0.041 sec (  0.0%)
V**(-1/2)                 :    0.370 sec (  0.3%)
Gamma(ia|P)               :    0.000 sec (  0.0%)
Gamma-Trafo               :    0.000 sec (  0.0%)
D(virtual)                :    0.000 sec (  0.0%)
D(internal)               :    0.000 sec (  0.0%)
W(virtual)                :    0.000 sec (  0.0%)
W(internal)               :    0.000 sec (  0.0%)
L(virtual)                :    0.000 sec (  0.0%)
L(internal)               :    0.000 sec (  0.0%)
G(D)                      :    0.000 sec (  0.0%)
G(Z)                      :    0.000 sec (  0.0%)
Z-Vector Solution         :    0.000 sec (  0.0%)
3-Index Derivative        :    0.000 sec (  0.0%)
2-Index Derivative        :    0.000 sec (  0.0%)
Separable Gradient        :    0.000 sec (  0.0%)


---------------------------------------
MP2 TOTAL ENERGY:    -1274.239909782 Eh
---------------------------------------

-------------------------   --------------------
FINAL SINGLE POINT ENERGY     -1274.239909781994
-------------------------   --------------------


                            ***************************************
                            *     ORCA property calculations      *
                            ***************************************


  WARNING: The energy has been calculated at the MP2 level but the densities
           used in the property calculations are still SCF densities
           MP2 response densities have not been calculated 
           use %mp2 Density relaxed end
           or  %mp2 Density unrelaxed end

                                    ---------------------
                                    Active property flags
                                    ---------------------
   (+) Dipole Moment


------------------------------------------------------------------------------
                       ORCA ELECTRIC PROPERTIES CALCULATION
------------------------------------------------------------------------------

Dipole Moment Calculation                       ... on
Quadrupole Moment Calculation                   ... off
Polarizability Calculation                      ... off
GBWName                                         ... G2_CONFS/Conf747.orca.gbw
Electron density file                           ... G2_CONFS/Conf747.orca.scfp
The origin for moment calculation is the CENTER OF MASS  = (32.915645, 31.573527 35.333022)

-------------
DIPOLE MOMENT
-------------
                                X             Y             Z
Electronic contribution:     11.03952      11.06196       8.09453
Nuclear contribution   :    -12.72841     -12.54123      -8.74137
                        -----------------------------------------
Total Dipole Moment    :     -1.68889      -1.47927      -0.64685
                        -----------------------------------------
Magnitude (a.u.)       :      2.33645
Magnitude (Debye)      :      5.93879



--------------------
Rotational spectrum 
--------------------
 
Rotational constants in cm-1:     0.012265     0.009233     0.006715 
Rotational constants in MHz :   367.696870   276.811835   201.307683 

 Dipole components along the rotational axes: 
x,y,z [a.u.] :    -2.220135     0.041292     0.726849 
x,y,z [Debye]:    -5.643135     0.104956     1.847503 

 

Timings for individual modules:

Sum of individual times         ...     5917.830 sec (=  98.630 min)
GTO integral calculation        ...        1.255 sec (=   0.021 min)   0.0 %
SCF iterations                  ...     5778.152 sec (=  96.303 min)  97.6 %
MP2 module                      ...      138.422 sec (=   2.307 min)   2.3 %
                             ****ORCA TERMINATED NORMALLY****
TOTAL RUN TIME: 0 days 1 hours 38 minutes 38 seconds 570 msec
