
                                 *****************
                                 * O   R   C   A *
                                 *****************

           --- An Ab Initio, DFT and Semiempirical electronic structure package ---

                  #######################################################
                  #                        -***-                        #
                  #          Department of theory and spectroscopy      #
                  #               Directorship: Frank Neese             #
                  #        Max Planck Institute fuer Kohlenforschung    #
                  #                Kaiser Wilhelm Platz 1               #
                  #                 D-45470 Muelheim/Ruhr               #
                  #                      Germany                        #
                  #                                                     #
                  #                  All rights reserved                #
                  #                        -***-                        #
                  #######################################################


                         Program Version 4.2.0 -  RELEASE  -


 With contributions from (in alphabetic order):
   Daniel Aravena         : Magnetic Suceptibility
   Michael Atanasov       : Ab Initio Ligand Field Theory (pilot matlab implementation)
   Alexander A. Auer      : GIAO ZORA, VPT2
   Ute Becker             : Parallelization
   Giovanni Bistoni       : ED, misc. LED, open-shell LED, HFLED
   Martin Brehm           : Molecular dynamics
   Dmytro Bykov           : SCF Hessian
   Vijay G. Chilkuri      : MRCI spin determinant printing, contributions to CSF-ICE
   Dipayan Datta          : RHF DLPNO-CCSD density
   Achintya Kumar Dutta   : EOM-CC, STEOM-CC
   Dmitry Ganyushin       : Spin-Orbit,Spin-Spin,Magnetic field MRCI
   Miquel Garcia          : C-PCM Hessian, Gaussian charge scheme
   Yang Guo               : DLPNO-NEVPT2, CIM, IAO-localization
   Andreas Hansen         : Spin unrestricted coupled pair/coupled cluster methods
   Benjamin Helmich-Paris : CASSCF linear response (MC-RPA)
   Lee Huntington         : MR-EOM, pCC
   Robert Izsak           : Overlap fitted RIJCOSX, COSX-SCS-MP3, EOM
   Christian Kollmar      : KDIIS, OOCD, Brueckner-CCSD(T), CCSD density
   Simone Kossmann        : Meta GGA functionals, TD-DFT gradient, OOMP2, MP2 Hessian
   Martin Krupicka        : AUTO-CI
   Lucas Lang             : DCDCAS
   Dagmar Lenk            : GEPOL surface, SMD
   Dimitrios Liakos       : Extrapolation schemes; Compound Job, initial MDCI parallelization
   Dimitrios Manganas     : Further ROCIS development; embedding schemes
   Dimitrios Pantazis     : SARC Basis sets
   Taras Petrenko         : DFT Hessian,TD-DFT gradient, ASA, ECA, R-Raman, ABS, FL, XAS/XES, NRVS
   Peter Pinski           : DLPNO-MP2, DLPNO-MP2 Gradient
   Christoph Reimann      : Effective Core Potentials
   Marius Retegan         : Local ZFS, SOC
   Christoph Riplinger    : Optimizer, TS searches, QM/MM, DLPNO-CCSD(T), (RO)-DLPNO pert. Triples
   Tobias Risthaus        : Range-separated hybrids, TD-DFT gradient, RPA, STAB
   Michael Roemelt        : Original ROCIS implementation
   Masaaki Saitow         : Open-shell DLPNO-CCSD energy and density
   Barbara Sandhoefer     : DKH picture change effects
   Avijit Sen             : IP-ROCIS
   Kantharuban Sivalingam : CASSCF convergence, NEVPT2, FIC-MRCI
   Bernardo de Souza      : ESD, SOC TD-DFT
   Georgi Stoychev        : AutoAux, RI-MP2 NMR
   Willem Van den Heuvel  : Paramagnetic NMR
   Boris Wezisla          : Elementary symmetry handling
   Frank Wennmohs         : Technical directorship


 We gratefully acknowledge several colleagues who have allowed us to
 interface, adapt or use parts of their codes:
   Stefan Grimme, W. Hujo, H. Kruse,             : VdW corrections, initial TS optimization,
                  C. Bannwarth                     DFT functionals, gCP, sTDA/sTD-DF
   Ed Valeev, F. Pavosevic, A. Kumar             : LibInt (2-el integral package), F12 methods
   Garnet Chan, S. Sharma, J. Yang, R. Olivares  : DMRG
   Ulf Ekstrom                                   : XCFun DFT Library
   Mihaly Kallay                                 : mrcc  (arbitrary order and MRCC methods)
   Andreas Klamt, Michael Diedenhofen            : otool_cosmo (COSMO solvation model)
   Jiri Pittner, Ondrej Demel                    : Mk-CCSD
   Frank Weinhold                                : gennbo (NPA and NBO analysis)
   Christopher J. Cramer and Donald G. Truhlar   : smd solvation model
   Lars Goerigk                                  : TD-DFT with DH, B97 family of functionals
   V. Asgeirsson, H. Jonsson                     : NEB implementation
   FAccTs GmbH                                   : IRC, NEB, NEB-TS, Multilevel, MM, QM/MM, CI optimization
   S Lehtola, MJT Oliveira, MAL Marques          : LibXC Library


 Your calculation uses the libint2 library for the computation of 2-el integrals
 For citations please refer to: http://libint.valeyev.net

 Your ORCA version has been built with support for libXC version: 4.2.3
 For citations please refer to: https://tddft.org/programs/libxc/

 This ORCA versions uses:
   CBLAS   interface :  Fast vector & matrix operations
   LAPACKE interface :  Fast linear algebra routines
   SCALAPACK package :  Parallel linear algebra routines


----- Orbital basis set information -----
Your calculation utilizes the basis: cc-pVTZ 
       H, B-Ne : Obtained from the ccRepo (grant-hill.group.shef.ac.uk/ccrepo) Feb. 2017
                 T. H. Dunning, Jr., J. Chem. Phys. 90, 1007 (1989)
            He : Obtained from the ccRepo (grant-hill.group.shef.ac.uk/ccrepo) Feb. 2017
                 D. E. Woon, T. H. Dunning, Jr., J. Chem. Phys. 100, 2975 (1994)
  Li-Be, Na-Mg : Obtained from the ccRepo (grant-hill.group.shef.ac.uk/ccrepo) Feb. 2017
                 B. P. Prascher, D. E. Woon, K. A. Peterson, T. H. Dunning, Jr., A. K. Wilson, Theor. Chem. Acc. 128, 69 (2011)
         Al-Ar : Obtained from the ccRepo (grant-hill.group.shef.ac.uk/ccrepo) Feb. 2017
                 D. E. Woon, T. H. Dunning, Jr., J. Chem. Phys. 98, 1358 (1993)
            Ca : Obtained from the Peterson Research Group Website (tyr0.chem.wsu.edu/~kipeters) Feb. 2017
                 J. Koput, K. A. Peterson, J. Phys. Chem. 106, 9595 (2002)
         Sc-Zn : Obtained from the ccRepo (grant-hill.group.shef.ac.uk/ccrepo) Feb. 2017
                 N. B. Balabanov, K. A. Peterson, J. Chem. Phys. 123, 064107 (2005)
                 N. B. Balabanov, K. A. Peterson, J. Chem. Phys. 125, 074110 (2006)
         Ga-Kr : Obtained from the ccRepo (grant-hill.group.shef.ac.uk/ccrepo) Feb. 2017
                 A. K. Wilson, D. E. Woon, K. A. Peterson, T. H. Dunning, Jr., J. Chem. Phys. 110, 7667 (1999)
             Y : Obtained from the ccRepo (grant-hill.group.shef.ac.uk/ccrepo) Feb. 2017
                 K. A. Peterson, D. Figgen, M. Dolg, H. Stoll, J. Chem. Phys. 126, 124101 (2007)
        Ag, Au : Obtained from the Peterson Research Group Website (tyr0.chem.wsu.edu/~kipeters) Feb. 2017
                 K. A. Peterson, C. Puzzarini, Theor. Chem. Acc. 114, 283 (2005)

----- AuxC basis set information -----
Your calculation utilizes the auxiliary basis: cc-pVTZ/C 
  Obtained from the EMSL Basis Set Exchange (bse.pnl.gov) Feb. 2017
  H-He, B-F, Al-Ar, Ga-Kr : F. Weigend, A. Kohn, C. Hattig, J. Chem. Phys. 116, 3175 (2002)
             Li-Be, Na-Mg : C. Haettig, Phys. Chem. Chem. Phys. 7, 59 (2005)
                       Ne : C. Haettig, Phys. Chem. Chem. Phys. 7, 59 (2005)
                            F. Weigend, A. Kohn, C. Hattig, J. Chem. Phys. 116, 3175 (2002)
                    Sc-Zn : J. G. Hill, J. A. Platts, J. Chem. Phys. 128, 044104 (2008)

================================================================================
                                        WARNINGS
                       Please study these warnings very carefully!
================================================================================


WARNING: No MP2 level density has been requested!
         To caclulate MP2 level properties use
         %mp2 Density relaxed end
         or
         %mp2 Density unrelaxed end

WARNING: Post HF methods need fully converged wavefunctions
  ===> : Setting SCFConvForced true
         You can overwrite this default with %scf ConvForced false 


INFO   : the flag for use of LIBINT has been found!

================================================================================
                                       INPUT FILE
================================================================================
NAME = G2_CONFS/Conf962.orca
|  1> ! ri-mp2 cc-pvtz cc-pvtz/c TightSCF  NoKeepInts
|  2> 
|  3> %scf
|  4>   MaxCore 4096
|  5> end
|  6> *xyz  0  1
|  7>     C       15.2121968   13.6844180   14.9615261
|  8>     C       16.4995332   13.8378571   15.7748177
|  9>     O       16.6089664   15.1511292   16.3640953
| 10>     C       17.7474117   15.3307332   17.1008893
| 11>     O       18.5711770   14.4378014   17.2385544
| 12>     C       17.9169530   16.6404789   17.8047545
| 13>     C       17.2824430   17.8156273   17.5452440
| 14>     C       16.1325349   18.0863229   16.6001162
| 15>     N       17.8075059   19.0057465   18.0889998
| 16>     C       18.8956476   19.1014464   18.9321921
| 17>     S       19.4826001   20.5621807   19.4420909
| 18>     N       19.3798979   17.9166175   19.4367100
| 19>     C       19.0244006   16.6118027   18.8555979
| 20>     C       18.0134935   16.3130445   20.0216834
| 21>     C       17.9203294   14.9388994   20.3629865
| 22>     C       16.8646655   14.4209189   21.1276485
| 23>     C       15.8607900   15.2799634   21.5899695
| 24>     C       15.9541606   16.6504194   21.3261018
| 25>     O       14.9702926   17.4820600   21.7507864
| 26>     C       17.0104184   17.1655471   20.5654576
| 27>     H       14.9950112   14.5699289   14.3512768
| 28>     H       14.3738339   13.5011758   15.6439604
| 29>     H       15.3227967   12.8135274   14.3002094
| 30>     H       16.4955738   13.0787893   16.5663660
| 31>     H       17.3723278   13.6386561   15.1405506
| 32>     H       16.2144724   17.5220502   15.6647471
| 33>     H       16.0656190   19.1488388   16.3307237
| 34>     H       15.1873984   17.8117871   17.0853187
| 35>     H       17.4000681   19.8873669   17.8240660
| 36>     H       20.1483191   17.9948415   20.0897837
| 37>     H       19.6733146   15.7367466   18.9839964
| 38>     H       18.6360930   14.2264886   19.9561143
| 39>     H       16.8102383   13.3497584   21.3204777
| 40>     H       15.0201364   14.8803885   22.1476377
| 41>     H       14.2944834   16.9318200   22.1738708
| 42>     H       16.9818971   18.2268214   20.3646763
| 43> *
| 44> 
| 45>                          ****END OF INPUT****
================================================================================

                       ****************************
                       * Single Point Calculation *
                       ****************************

---------------------------------
CARTESIAN COORDINATES (ANGSTROEM)
---------------------------------
  C     15.212197   13.684418   14.961526
  C     16.499533   13.837857   15.774818
  O     16.608966   15.151129   16.364095
  C     17.747412   15.330733   17.100889
  O     18.571177   14.437801   17.238554
  C     17.916953   16.640479   17.804755
  C     17.282443   17.815627   17.545244
  C     16.132535   18.086323   16.600116
  N     17.807506   19.005747   18.089000
  C     18.895648   19.101446   18.932192
  S     19.482600   20.562181   19.442091
  N     19.379898   17.916617   19.436710
  C     19.024401   16.611803   18.855598
  C     18.013493   16.313045   20.021683
  C     17.920329   14.938899   20.362987
  C     16.864666   14.420919   21.127648
  C     15.860790   15.279963   21.589969
  C     15.954161   16.650419   21.326102
  O     14.970293   17.482060   21.750786
  C     17.010418   17.165547   20.565458
  H     14.995011   14.569929   14.351277
  H     14.373834   13.501176   15.643960
  H     15.322797   12.813527   14.300209
  H     16.495574   13.078789   16.566366
  H     17.372328   13.638656   15.140551
  H     16.214472   17.522050   15.664747
  H     16.065619   19.148839   16.330724
  H     15.187398   17.811787   17.085319
  H     17.400068   19.887367   17.824066
  H     20.148319   17.994841   20.089784
  H     19.673315   15.736747   18.983996
  H     18.636093   14.226489   19.956114
  H     16.810238   13.349758   21.320478
  H     15.020136   14.880389   22.147638
  H     14.294483   16.931820   22.173871
  H     16.981897   18.226821   20.364676

----------------------------
CARTESIAN COORDINATES (A.U.)
----------------------------
  NO LB      ZA    FRAG     MASS         X           Y           Z
   0 C     6.0000    0    12.011   28.746886   25.859802   28.273187
   1 C     6.0000    0    12.011   31.179599   26.149760   29.810085
   2 O     8.0000    0    15.999   31.386398   28.631485   30.923659
   3 C     6.0000    0    12.011   33.537748   28.970887   32.315997
   4 O     8.0000    0    15.999   35.094439   27.283491   32.576147
   5 C     6.0000    0    12.011   33.858134   31.445948   33.646110
   6 C     6.0000    0    12.011   32.659084   33.666657   33.155706
   7 C     6.0000    0    12.011   30.486073   34.178197   31.369673
   8 N     7.0000    0    14.007   33.651309   35.915656   34.183256
   9 C     6.0000    0    12.011   35.707599   36.096502   35.776658
  10 S    16.0000    0    32.060   36.816779   38.856890   36.740227
  11 N     7.0000    0    14.007   36.622700   33.857500   36.730059
  12 C     6.0000    0    12.011   35.950907   31.391758   35.631916
  13 C     6.0000    0    12.011   34.040569   30.827187   37.835498
  14 C     6.0000    0    12.011   33.864515   28.230429   38.480468
  15 C     6.0000    0    12.011   31.869599   27.251587   39.925470
  16 C     6.0000    0    12.011   29.972549   28.874946   40.799130
  17 C     6.0000    0    12.011   30.148994   31.464733   40.300492
  18 O     8.0000    0    15.999   28.289753   33.036306   41.103029
  19 C     6.0000    0    12.011   32.145032   32.438183   38.863083
  20 H     1.0000    0     1.008   28.336465   27.533175   27.119983
  21 H     1.0000    0     1.008   27.162610   25.513525   29.562801
  22 H     1.0000    0     1.008   28.955889   24.214058   27.023479
  23 H     1.0000    0     1.008   31.172117   24.715330   31.305895
  24 H     1.0000    0     1.008   32.828942   25.773325   28.611494
  25 H     1.0000    0     1.008   30.640912   33.111876   29.602082
  26 H     1.0000    0     1.008   30.359620   36.186061   30.860595
  27 H     1.0000    0     1.008   28.700024   33.659400   32.286573
  28 H     1.0000    0     1.008   32.881363   37.581677   33.682603
  29 H     1.0000    0     1.008   38.074805   34.005322   37.964189
  30 H     1.0000    0     1.008   37.177177   29.738141   35.874554
  31 H     1.0000    0     1.008   35.217112   26.884167   37.711591
  32 H     1.0000    0     1.008   31.766747   25.227387   40.289864
  33 H     1.0000    0     1.008   28.383944   28.119859   41.852970
  34 H     1.0000    0     1.008   27.012659   31.996503   41.902543
  35 H     1.0000    0     1.008   32.091135   34.443701   38.483661

--------------------------------
INTERNAL COORDINATES (ANGSTROEM)
--------------------------------
 C      0   0   0     0.000000000000     0.00000000     0.00000000
 C      1   0   0     1.530431896820     0.00000000     0.00000000
 O      2   1   0     1.443574495398   111.83293492     0.00000000
 C      3   2   1     1.367911070335   113.72883840   179.99999879
 O      4   3   2     1.222648006866   121.70124385   359.38294431
 C      4   3   2     1.496530745038   117.55041695   182.85210754
 C      6   4   3     1.360486090239   127.83651653   340.78507666
 C      7   6   4     1.512888397945   128.91762772     7.87267839
 N      7   6   4     1.409874153674   118.80818543   195.52527689
 C      9   7   6     1.379921767680   126.00663264   356.77225158
 S     10   9   7     1.654767270251   121.95203749   176.33274462
 N     10   9   7     1.375811101404   116.22511208   349.80662138
 C     12  10   9     1.471941325384   122.25071408    16.08404793
 C     13  12  10     1.571923986778    91.77262101   256.81287083
 C     14  13  12     1.418958107716   113.87302914   212.96658601
 C     15  14  13     1.402653928233   122.55874810   196.01937031
 C     16  15  14     1.399808622463   119.54891342   359.45835635
 C     17  16  15     1.398747253789   119.41275346   357.51238914
 O     18  17  16     1.356458380662   119.55226019   178.75690649
 C     18  17  16     1.399863095578   120.89150443     2.36652243
 H      1   2   3     1.097134151787   112.40658627    42.37771938
 H      1   2   3     1.096424475180   109.21859612   280.94924682
 H      1   2   3     1.099100792806   108.33323709   162.82235804
 H      2   1   3     1.096698825147   108.12677226   120.74651036
 H      2   1   3     1.097153684008   110.10455695   237.47508567
 H      8   7   6     1.095460080106   112.60676200   321.02862774
 H      8   7   6     1.098175803085   111.88095073   200.37757108
 H      8   7   6     1.097303228429   109.49173428    81.50445236
 H      9   7   6     1.006702542436   119.14510929   173.72995238
 H     12  10   9     1.011481780566   115.94837504   182.90373669
 H     13  12  10     1.096949740118   121.20228146   156.16174286
 H     15  14  13     1.088756936223   120.04092093    10.54021038
 H     16  15  14     1.089738609591   119.80468917   176.86389146
 H     17  16  15     1.085058706796   119.95834034   177.51854625
 H     19  18  17     0.968753086151   107.12700927   357.77431172
 H     20  18  17     1.080476623914   116.26346891   176.95718059

---------------------------
INTERNAL COORDINATES (A.U.)
---------------------------
 C      0   0   0     0.000000000000     0.00000000     0.00000000
 C      1   0   0     2.892097151608     0.00000000     0.00000000
 O      2   1   0     2.727960450215   111.83293492     0.00000000
 C      3   2   1     2.584977298492   113.72883840   179.99999879
 O      4   3   2     2.310469891161   121.70124385   359.38294431
 C      4   3   2     2.828033259116   117.55041695   182.85210754
 C      6   4   3     2.570946119560   127.83651653   340.78507666
 C      7   6   4     2.858944743304   128.91762772     7.87267839
 N      7   6   4     2.664276033738   118.80818543   195.52527689
 C      9   7   6     2.607674227152   126.00663264   356.77225158
 S     10   9   7     3.127056956151   121.95203749   176.33274462
 N     10   9   7     2.599906193662   116.22511208   349.80662138
 C     12  10   9     2.781565990177   122.25071408    16.08404793
 C     13  12  10     2.970505838352    91.77262101   256.81287083
 C     14  13  12     2.681442219090   113.87302914   212.96658601
 C     15  14  13     2.650631785029   122.55874810   196.01937031
 C     16  15  14     2.645254936356   119.54891342   359.45835635
 C     17  16  15     2.643249240237   119.41275346   357.51238914
 O     18  17  16     2.563334851514   119.55226019   178.75690649
 C     18  17  16     2.645357875626   120.89150443     2.36652243
 H      1   2   3     2.073283079049   112.40658627    42.37771938
 H      1   2   3     2.071941984619   109.21859612   280.94924682
 H      1   2   3     2.076999491979   108.33323709   162.82235804
 H      2   1   3     2.072460430920   108.12677226   120.74651036
 H      2   1   3     2.073319989598   110.10455695   237.47508567
 H      8   7   6     2.070119542044   112.60676200   321.02862774
 H      8   7   6     2.075251514730   111.88095073   200.37757108
 H      8   7   6     2.073602587598   109.49173428    81.50445236
 H      9   7   6     1.902392103527   119.14510929   173.72995238
 H     12  10   9     1.911423554721   115.94837504   182.90373669
 H     13  12  10     2.072934591500   121.20228146   156.16174286
 H     15  14  13     2.057452435869   120.04092093    10.54021038
 H     16  15  14     2.059307529687   119.80468917   176.86389146
 H     17  16  15     2.050463795072   119.95834034   177.51854625
 H     19  18  17     1.830678024217   107.12700927   357.77431172
 H     20  18  17     2.041804913301   116.26346891   176.95718059

---------------------
BASIS SET INFORMATION
---------------------
There are 5 groups of distinct atoms

 Group   1 Type C   : 18s5p2d1f contracted to 4s3p2d1f pattern {8811/311/11/1}
 Group   2 Type O   : 18s5p2d1f contracted to 4s3p2d1f pattern {8811/311/11/1}
 Group   3 Type N   : 18s5p2d1f contracted to 4s3p2d1f pattern {8811/311/11/1}
 Group   4 Type S   : 41s16p2d1f contracted to 5s4p2d1f pattern {13131311/7711/11/1}
 Group   5 Type H   : 5s2p1d contracted to 3s2p1d pattern {311/11/1}

Atom   0C    basis set group =>   1
Atom   1C    basis set group =>   1
Atom   2O    basis set group =>   2
Atom   3C    basis set group =>   1
Atom   4O    basis set group =>   2
Atom   5C    basis set group =>   1
Atom   6C    basis set group =>   1
Atom   7C    basis set group =>   1
Atom   8N    basis set group =>   3
Atom   9C    basis set group =>   1
Atom  10S    basis set group =>   4
Atom  11N    basis set group =>   3
Atom  12C    basis set group =>   1
Atom  13C    basis set group =>   1
Atom  14C    basis set group =>   1
Atom  15C    basis set group =>   1
Atom  16C    basis set group =>   1
Atom  17C    basis set group =>   1
Atom  18O    basis set group =>   2
Atom  19C    basis set group =>   1
Atom  20H    basis set group =>   5
Atom  21H    basis set group =>   5
Atom  22H    basis set group =>   5
Atom  23H    basis set group =>   5
Atom  24H    basis set group =>   5
Atom  25H    basis set group =>   5
Atom  26H    basis set group =>   5
Atom  27H    basis set group =>   5
Atom  28H    basis set group =>   5
Atom  29H    basis set group =>   5
Atom  30H    basis set group =>   5
Atom  31H    basis set group =>   5
Atom  32H    basis set group =>   5
Atom  33H    basis set group =>   5
Atom  34H    basis set group =>   5
Atom  35H    basis set group =>   5
---------------------------------
AUXILIARY/C BASIS SET INFORMATION
---------------------------------
There are 5 groups of distinct atoms

 Group   1 Type C   : 8s6p5d3f1g contracted to 8s6p5d3f1g pattern {11111111/111111/11111/111/1}
 Group   2 Type O   : 8s6p5d3f1g contracted to 8s6p5d3f1g pattern {11111111/111111/11111/111/1}
 Group   3 Type N   : 8s6p5d3f1g contracted to 8s6p5d3f1g pattern {11111111/111111/11111/111/1}
 Group   4 Type S   : 10s8p7d5f2g contracted to 10s8p7d5f2g pattern {1111111111/11111111/1111111/11111/11}
 Group   5 Type H   : 4s3p2d1f contracted to 4s3p2d1f pattern {1111/111/11/1}

Atom   0C    basis set group =>   1
Atom   1C    basis set group =>   1
Atom   2O    basis set group =>   2
Atom   3C    basis set group =>   1
Atom   4O    basis set group =>   2
Atom   5C    basis set group =>   1
Atom   6C    basis set group =>   1
Atom   7C    basis set group =>   1
Atom   8N    basis set group =>   3
Atom   9C    basis set group =>   1
Atom  10S    basis set group =>   4
Atom  11N    basis set group =>   3
Atom  12C    basis set group =>   1
Atom  13C    basis set group =>   1
Atom  14C    basis set group =>   1
Atom  15C    basis set group =>   1
Atom  16C    basis set group =>   1
Atom  17C    basis set group =>   1
Atom  18O    basis set group =>   2
Atom  19C    basis set group =>   1
Atom  20H    basis set group =>   5
Atom  21H    basis set group =>   5
Atom  22H    basis set group =>   5
Atom  23H    basis set group =>   5
Atom  24H    basis set group =>   5
Atom  25H    basis set group =>   5
Atom  26H    basis set group =>   5
Atom  27H    basis set group =>   5
Atom  28H    basis set group =>   5
Atom  29H    basis set group =>   5
Atom  30H    basis set group =>   5
Atom  31H    basis set group =>   5
Atom  32H    basis set group =>   5
Atom  33H    basis set group =>   5
Atom  34H    basis set group =>   5
Atom  35H    basis set group =>   5
------------------------------------------------------------------------------
                           ORCA GTO INTEGRAL CALCULATION
------------------------------------------------------------------------------

                         BASIS SET STATISTICS AND STARTUP INFO

 # of primitive gaussian shells          ...  682
 # of primitive gaussian functions       ... 1312
 # of contracted shells                  ...  298
 # of contracted basis functions         ...  828
 Highest angular momentum                ...    3
 Maximum contraction depth               ...   13
 Integral package used                   ... LIBINT
 Integral threshhold            Thresh   ...  2.500e-11
 Primitive cut-off              TCut     ...  2.500e-12


------------------------------ INTEGRAL EVALUATION ----------------------------


 * One electron integrals 
 Pre-screening matrix                    ... done
 Shell pair data                         ... done (   0.014 sec)

-------------------------------------------------------------------------------
                                 ORCA SCF
-------------------------------------------------------------------------------

------------
SCF SETTINGS
------------
Hamiltonian:
 Ab initio Hamiltonian  Method          .... Hartree-Fock(GTOs)


General Settings:
 Integral files         IntName         .... G2_CONFS/Conf962.orca
 Hartree-Fock type      HFTyp           .... RHF
 Total Charge           Charge          ....    0
 Multiplicity           Mult            ....    1
 Number of Electrons    NEL             ....  154
 Basis Dimension        Dim             ....  828
 Nuclear Repulsion      ENuc            ....   1717.7112039256 Eh

Convergence Acceleration:
 DIIS                   CNVDIIS         .... on
   Start iteration      DIISMaxIt       ....    12
   Startup error        DIISStart       ....  0.200000
   # of expansion vecs  DIISMaxEq       ....     5
   Bias factor          DIISBfac        ....   1.050
   Max. coefficient     DIISMaxC        ....  10.000
 Newton-Raphson         CNVNR           .... off
 SOSCF                  CNVSOSCF        .... on
   Start iteration      SOSCFMaxIt      ....   150
   Startup grad/error   SOSCFStart      ....  0.003300
 Level Shifting         CNVShift        .... on
   Level shift para.    LevelShift      ....    0.2500
   Turn off err/grad.   ShiftErr        ....    0.0010
 Zerner damping         CNVZerner       .... off
 Static damping         CNVDamp         .... on
   Fraction old density DampFac         ....    0.7000
   Max. Damping (<1)    DampMax         ....    0.9800
   Min. Damping (>=0)   DampMin         ....    0.0000
   Turn off err/grad.   DampErr         ....    0.1000
 Fernandez-Rico         CNVRico         .... off

SCF Procedure:
 Maximum # iterations   MaxIter         ....   125
 SCF integral mode      SCFMode         .... Direct
   Integral package                     .... LIBINT
 Reset frequency        DirectResetFreq ....    20
 Integral Threshold     Thresh          ....  2.500e-11 Eh
 Primitive CutOff       TCut            ....  2.500e-12 Eh

Convergence Tolerance:
 Convergence Check Mode ConvCheckMode   .... Total+1el-Energy
 Convergence forced     ConvForced      .... 1
 Energy Change          TolE            ....  1.000e-08 Eh
 1-El. energy change                    ....  1.000e-05 Eh
 Orbital Gradient       TolG            ....  1.000e-05
 Orbital Rotation angle TolX            ....  1.000e-05
 DIIS Error             TolErr          ....  5.000e-07


Diagonalization of the overlap matrix:
Smallest eigenvalue                        ... 3.292e-05
Time for diagonalization                   ...    0.112 sec
Threshold for overlap eigenvalues          ... 1.000e-08
Number of eigenvalues below threshold      ... 0
Time for construction of square roots      ...    0.102 sec
Total time needed                          ...    0.217 sec

-------------------
DFT GRID GENERATION
-------------------

General Integration Accuracy     IntAcc      ...  4.340
Radial Grid Type                 RadialGrid  ... Gauss-Chebyshev
Angular Grid (max. acc.)         AngularGrid ... Lebedev-110
Angular grid pruning method      GridPruning ... 3 (G Style)
Weight generation scheme         WeightScheme... Becke
Basis function cutoff            BFCut       ...    1.0000e-11
Integration weight cutoff        WCut        ...    1.0000e-14
Grids for H and He will be reduced by one unit

# of grid points (after initial pruning)     ...  46246 (   0.0 sec)
# of grid points (after weights+screening)   ...  41292 (   0.3 sec)
nearest neighbour list constructed           ...    0.0 sec
Grid point re-assignment to atoms done       ...    0.0 sec
Grid point division into batches done        ...    0.0 sec
Reduced shell lists constructed in    0.9 sec

Total number of grid points                  ...    41292
Total number of batches                      ...      661
Average number of points per batch           ...       62
Average number of grid points per atom       ...     1147
Average number of shells per batch           ...   148.98 (49.99%)
Average number of basis functions per batch  ...   379.14 (45.79%)
Average number of large shells per batch     ...    95.55 (64.14%)
Average number of large basis fcns per batch ...   246.28 (64.96%)
Maximum spatial batch extension              ...  22.36, 19.38, 20.51 au
Average spatial batch extension              ...   3.57,  3.29,  3.40 au

Time for grid setup =    1.247 sec

------------------------------
INITIAL GUESS: MODEL POTENTIAL
------------------------------
Loading Hartree-Fock densities                     ... done
Calculating cut-offs                               ... done
Setting up the integral package                    ... done
Initializing the effective Hamiltonian             ... done
Starting the Coulomb interaction                   ... done (   3.1 sec)
Reading the grid                                   ... done
Mapping shells                                     ... done
Starting the XC term evaluation                    ... done (   1.3 sec)
Transforming the Hamiltonian                       ... done (   0.1 sec)
Diagonalizing the Hamiltonian                      ... done (   0.1 sec)
Back transforming the eigenvectors                 ... done (   0.0 sec)
Now organizing SCF variables                       ... done
                      ------------------
                      INITIAL GUESS DONE (   5.9 sec)
                      ------------------
--------------
SCF ITERATIONS
--------------
ITER       Energy         Delta-E        Max-DP      RMS-DP      [F,P]     Damp
               ***  Starting incremental Fock matrix formation  ***
  0  -1269.9335048253   0.000000000000 0.04968023  0.00045007  0.3125178 0.7000
  1  -1270.2022984000  -0.268793574692 0.03631332  0.00036342  0.1832972 0.7000
                               ***Turning on DIIS***
  2  -1270.3695356110  -0.167237210980 0.02598454  0.00024295  0.1096280 0.7000
  3  -1272.4915256764  -2.121990065358 0.06340928  0.00052485  0.0828886 0.0000
  4  -1270.6817899823   1.809735694067 0.00769470  0.00010399  0.0068672 0.0000
  5  -1270.7434925259  -0.061702543614 0.00351875  0.00005307  0.0036376 0.0000
                      *** Initiating the SOSCF procedure ***
                           *** Shutting down DIIS ***
                      *** Re-Reading the Fockian *** 
                      *** Removing any level shift *** 
ITER      Energy       Delta-E        Grad      Rot      Max-DP    RMS-DP
  6  -1270.71889082   0.0246017025  0.001963  0.001963  0.001770  0.000027
               *** Restarting incremental Fock matrix formation ***
  7  -1270.73315008  -0.0142592526  0.001084  0.002625  0.001251  0.000017
  8  -1270.73320359  -0.0000535096  0.000534  0.003217  0.001356  0.000018
  9  -1270.73322380  -0.0000202109  0.000148  0.000380  0.000330  0.000005
 10  -1270.73322645  -0.0000026557  0.000042  0.000131  0.000164  0.000002
 11  -1270.73322673  -0.0000002797  0.000023  0.000157  0.000117  0.000001
 12  -1270.73322682  -0.0000000836  0.000011  0.000041  0.000027  0.000000
 13  -1270.73322682  -0.0000000014  0.000003  0.000007  0.000008  0.000000
                  ***Gradient check signals convergence***
              ***Rediagonalizing the Fockian in SOSCF/NRSCF***

               *****************************************************
               *                     SUCCESS                       *
               *           SCF CONVERGED AFTER  14 CYCLES          *
               *****************************************************


----------------
TOTAL SCF ENERGY
----------------

Total Energy       :        -1270.73322681 Eh          -34578.40903 eV

Components:
Nuclear Repulsion  :         1717.71120393 Eh           46741.29814 eV
Electronic Energy  :        -2988.44443074 Eh          -81319.70717 eV
One Electron Energy:        -5156.65251053 Eh         -140319.64852 eV
Two Electron Energy:         2168.20807979 Eh           58999.94135 eV

Virial components:
Potential Energy   :        -2539.71790695 Eh          -69109.23769 eV
Kinetic Energy     :         1268.98468014 Eh           34530.82866 eV
Virial Ratio       :            2.00137791


---------------
SCF CONVERGENCE
---------------

  Last Energy change         ...    4.5175e-09  Tolerance :   1.0000e-08
  Last MAX-Density change    ...    3.2912e-06  Tolerance :   1.0000e-07
  Last RMS-Density change    ...    4.4528e-08  Tolerance :   5.0000e-09
  Last Orbital Gradient      ...    1.2904e-06  Tolerance :   1.0000e-05
  Last Orbital Rotation      ...    5.0570e-06  Tolerance :   1.0000e-05

             **** THE GBW FILE WAS UPDATED (G2_CONFS/Conf962.orca.gbw) ****
             **** DENSITY FILE WAS UPDATED (G2_CONFS/Conf962.orca.scfp) ****
             **** ENERGY FILE WAS UPDATED (G2_CONFS/Conf962.orca.en.tmp) ****
             **** THE GBW FILE WAS UPDATED (G2_CONFS/Conf962.orca.gbw) ****
             **** DENSITY FILE WAS UPDATED (G2_CONFS/Conf962.orca.scfp) ****
----------------
ORBITAL ENERGIES
----------------

  NO   OCC          E(Eh)            E(eV) 
   0   2.0000     -91.891399     -2500.4921 
   1   2.0000     -20.611723      -560.8735 
   2   2.0000     -20.590549      -560.2973 
   3   2.0000     -20.546721      -559.1047 
   4   2.0000     -15.628118      -425.2627 
   5   2.0000     -15.609234      -424.7488 
   6   2.0000     -11.399125      -310.1859 
   7   2.0000     -11.385411      -309.8128 
   8   2.0000     -11.336158      -308.4725 
   9   2.0000     -11.311293      -307.7959 
  10   2.0000     -11.305354      -307.6343 
  11   2.0000     -11.296128      -307.3833 
  12   2.0000     -11.270704      -306.6915 
  13   2.0000     -11.260196      -306.4055 
  14   2.0000     -11.256276      -306.2988 
  15   2.0000     -11.244227      -305.9710 
  16   2.0000     -11.235597      -305.7361 
  17   2.0000     -11.230905      -305.6085 
  18   2.0000     -11.228825      -305.5519 
  19   2.0000     -11.221771      -305.3599 
  20   2.0000      -8.896274      -242.0799 
  21   2.0000      -6.577816      -178.9915 
  22   2.0000      -6.575856      -178.9381 
  23   2.0000      -6.575242      -178.9214 
  24   2.0000      -1.458828       -39.6967 
  25   2.0000      -1.410838       -38.3909 
  26   2.0000      -1.358841       -36.9759 
  27   2.0000      -1.338800       -36.4306 
  28   2.0000      -1.240852       -33.7653 
  29   2.0000      -1.153317       -31.3833 
  30   2.0000      -1.118979       -30.4490 
  31   2.0000      -1.044539       -28.4234 
  32   2.0000      -1.036818       -28.2133 
  33   2.0000      -1.007288       -27.4097 
  34   2.0000      -0.995762       -27.0961 
  35   2.0000      -0.984432       -26.7877 
  36   2.0000      -0.921580       -25.0775 
  37   2.0000      -0.889280       -24.1985 
  38   2.0000      -0.847302       -23.0563 
  39   2.0000      -0.832808       -22.6619 
  40   2.0000      -0.822707       -22.3870 
  41   2.0000      -0.817651       -22.2494 
  42   2.0000      -0.765006       -20.8169 
  43   2.0000      -0.736871       -20.0513 
  44   2.0000      -0.717059       -19.5122 
  45   2.0000      -0.696038       -18.9401 
  46   2.0000      -0.688692       -18.7403 
  47   2.0000      -0.683679       -18.6039 
  48   2.0000      -0.679954       -18.5025 
  49   2.0000      -0.662116       -18.0171 
  50   2.0000      -0.654558       -17.8114 
  51   2.0000      -0.642569       -17.4852 
  52   2.0000      -0.632560       -17.2128 
  53   2.0000      -0.601405       -16.3651 
  54   2.0000      -0.597329       -16.2542 
  55   2.0000      -0.593418       -16.1477 
  56   2.0000      -0.591002       -16.0820 
  57   2.0000      -0.586482       -15.9590 
  58   2.0000      -0.570091       -15.5130 
  59   2.0000      -0.567277       -15.4364 
  60   2.0000      -0.557016       -15.1572 
  61   2.0000      -0.554070       -15.0770 
  62   2.0000      -0.542490       -14.7619 
  63   2.0000      -0.521402       -14.1881 
  64   2.0000      -0.511126       -13.9085 
  65   2.0000      -0.509667       -13.8688 
  66   2.0000      -0.506062       -13.7706 
  67   2.0000      -0.497333       -13.5331 
  68   2.0000      -0.484827       -13.1928 
  69   2.0000      -0.464031       -12.6269 
  70   2.0000      -0.462790       -12.5931 
  71   2.0000      -0.449852       -12.2411 
  72   2.0000      -0.347770        -9.4633 
  73   2.0000      -0.335747        -9.1361 
  74   2.0000      -0.324597        -8.8327 
  75   2.0000      -0.316078        -8.6009 
  76   2.0000      -0.301700        -8.2097 
  77   0.0000       0.065947         1.7945 
  78   0.0000       0.120216         3.2712 
  79   0.0000       0.125414         3.4127 
  80   0.0000       0.136320         3.7095 
  81   0.0000       0.137275         3.7354 
  82   0.0000       0.140215         3.8154 
  83   0.0000       0.148499         4.0408 
  84   0.0000       0.160420         4.3653 
  85   0.0000       0.161833         4.4037 
  86   0.0000       0.172220         4.6864 
  87   0.0000       0.183069         4.9816 
  88   0.0000       0.187551         5.1035 
  89   0.0000       0.196045         5.3347 
  90   0.0000       0.200427         5.4539 
  91   0.0000       0.204906         5.5758 
  92   0.0000       0.213508         5.8098 
  93   0.0000       0.225888         6.1467 
  94   0.0000       0.232705         6.3322 
  95   0.0000       0.238845         6.4993 
  96   0.0000       0.245888         6.6910 
  97   0.0000       0.247318         6.7299 
  98   0.0000       0.261204         7.1077 
  99   0.0000       0.269114         7.3230 
 100   0.0000       0.285824         7.7777 
 101   0.0000       0.294637         8.0175 
 102   0.0000       0.310128         8.4390 
 103   0.0000       0.323173         8.7940 
 104   0.0000       0.327036         8.8991 
 105   0.0000       0.335460         9.1283 
 106   0.0000       0.347229         9.4486 
 107   0.0000       0.353067         9.6074 
 108   0.0000       0.354784         9.6542 
 109   0.0000       0.364264         9.9121 
 110   0.0000       0.373322        10.1586 
 111   0.0000       0.381716        10.3870 
 112   0.0000       0.386938        10.5291 
 113   0.0000       0.390763        10.6332 
 114   0.0000       0.397314        10.8115 
 115   0.0000       0.406429        11.0595 
 116   0.0000       0.421894        11.4803 
 117   0.0000       0.423432        11.5222 
 118   0.0000       0.431185        11.7331 
 119   0.0000       0.433143        11.7864 
 120   0.0000       0.445430        12.1208 
 121   0.0000       0.451548        12.2872 
 122   0.0000       0.455350        12.3907 
 123   0.0000       0.462876        12.5955 
 124   0.0000       0.468243        12.7415 
 125   0.0000       0.471440        12.8285 
 126   0.0000       0.473638        12.8883 
 127   0.0000       0.479458        13.0467 
 128   0.0000       0.483903        13.1677 
 129   0.0000       0.489353        13.3160 
 130   0.0000       0.497064        13.5258 
 131   0.0000       0.504436        13.7264 
 132   0.0000       0.506630        13.7861 
 133   0.0000       0.512230        13.9385 
 134   0.0000       0.520375        14.1601 
 135   0.0000       0.526465        14.3258 
 136   0.0000       0.534847        14.5539 
 137   0.0000       0.537482        14.6256 
 138   0.0000       0.539692        14.6858 
 139   0.0000       0.549589        14.9551 
 140   0.0000       0.554345        15.0845 
 141   0.0000       0.556732        15.1495 
 142   0.0000       0.565748        15.3948 
 143   0.0000       0.570247        15.5172 
 144   0.0000       0.573451        15.6044 
 145   0.0000       0.577255        15.7079 
 146   0.0000       0.584326        15.9003 
 147   0.0000       0.587951        15.9990 
 148   0.0000       0.595179        16.1956 
 149   0.0000       0.602486        16.3945 
 150   0.0000       0.606047        16.4914 
 151   0.0000       0.610148        16.6030 
 152   0.0000       0.611592        16.6423 
 153   0.0000       0.616365        16.7721 
 154   0.0000       0.622957        16.9515 
 155   0.0000       0.623829        16.9753 
 156   0.0000       0.633046        17.2261 
 157   0.0000       0.635987        17.3061 
 158   0.0000       0.639787        17.4095 
 159   0.0000       0.650739        17.7075 
 160   0.0000       0.651999        17.7418 
 161   0.0000       0.652721        17.7614 
 162   0.0000       0.656977        17.8772 
 163   0.0000       0.659962        17.9585 
 164   0.0000       0.668323        18.1860 
 165   0.0000       0.673248        18.3200 
 166   0.0000       0.681044        18.5321 
 167   0.0000       0.686863        18.6905 
 168   0.0000       0.690049        18.7772 
 169   0.0000       0.694908        18.9094 
 170   0.0000       0.696623        18.9561 
 171   0.0000       0.699315        19.0293 
 172   0.0000       0.709128        19.2964 
 173   0.0000       0.717408        19.5217 
 174   0.0000       0.724461        19.7136 
 175   0.0000       0.725163        19.7327 
 176   0.0000       0.742599        20.2071 
 177   0.0000       0.743023        20.2187 
 178   0.0000       0.755893        20.5689 
 179   0.0000       0.765064        20.8185 
 180   0.0000       0.773626        21.0514 
 181   0.0000       0.777278        21.1508 
 182   0.0000       0.782928        21.3045 
 183   0.0000       0.790293        21.5050 
 184   0.0000       0.807229        21.9658 
 185   0.0000       0.810299        22.0493 
 186   0.0000       0.821651        22.3583 
 187   0.0000       0.828476        22.5440 
 188   0.0000       0.834854        22.7175 
 189   0.0000       0.841162        22.8892 
 190   0.0000       0.850233        23.1360 
 191   0.0000       0.856662        23.3110 
 192   0.0000       0.863117        23.4866 
 193   0.0000       0.868098        23.6221 
 194   0.0000       0.878736        23.9116 
 195   0.0000       0.882586        24.0164 
 196   0.0000       0.884503        24.0686 
 197   0.0000       0.889625        24.2079 
 198   0.0000       0.902919        24.5697 
 199   0.0000       0.908289        24.7158 
 200   0.0000       0.911072        24.7915 
 201   0.0000       0.917419        24.9642 
 202   0.0000       0.926057        25.1993 
 203   0.0000       0.928304        25.2604 
 204   0.0000       0.933587        25.4042 
 205   0.0000       0.955380        25.9972 
 206   0.0000       0.958339        26.0777 
 207   0.0000       0.964790        26.2533 
 208   0.0000       0.978304        26.6210 
 209   0.0000       0.983449        26.7610 
 210   0.0000       0.989171        26.9167 
 211   0.0000       1.000896        27.2358 
 212   0.0000       1.009150        27.4604 
 213   0.0000       1.011727        27.5305 
 214   0.0000       1.015496        27.6331 
 215   0.0000       1.021865        27.8064 
 216   0.0000       1.027301        27.9543 
 217   0.0000       1.031698        28.0739 
 218   0.0000       1.038635        28.2627 
 219   0.0000       1.043007        28.3817 
 220   0.0000       1.044302        28.4169 
 221   0.0000       1.050894        28.5963 
 222   0.0000       1.065592        28.9962 
 223   0.0000       1.075100        29.2550 
 224   0.0000       1.079668        29.3793 
 225   0.0000       1.089790        29.6547 
 226   0.0000       1.103145        30.0181 
 227   0.0000       1.105158        30.0729 
 228   0.0000       1.108957        30.1762 
 229   0.0000       1.125322        30.6216 
 230   0.0000       1.132355        30.8129 
 231   0.0000       1.144371        31.1399 
 232   0.0000       1.147076        31.2135 
 233   0.0000       1.152276        31.3550 
 234   0.0000       1.168033        31.7838 
 235   0.0000       1.172428        31.9034 
 236   0.0000       1.178675        32.0734 
 237   0.0000       1.180749        32.1298 
 238   0.0000       1.190497        32.3951 
 239   0.0000       1.195721        32.5372 
 240   0.0000       1.199194        32.6317 
 241   0.0000       1.210960        32.9519 
 242   0.0000       1.211988        32.9799 
 243   0.0000       1.221103        33.2279 
 244   0.0000       1.223070        33.2814 
 245   0.0000       1.230272        33.4774 
 246   0.0000       1.236234        33.6396 
 247   0.0000       1.240882        33.7661 
 248   0.0000       1.251641        34.0589 
 249   0.0000       1.260464        34.2990 
 250   0.0000       1.261674        34.3319 
 251   0.0000       1.268372        34.5141 
 252   0.0000       1.282811        34.9071 
 253   0.0000       1.289479        35.0885 
 254   0.0000       1.294486        35.2247 
 255   0.0000       1.302919        35.4542 
 256   0.0000       1.311448        35.6863 
 257   0.0000       1.314740        35.7759 
 258   0.0000       1.328707        36.1560 
 259   0.0000       1.329808        36.1859 
 260   0.0000       1.333254        36.2797 
 261   0.0000       1.348518        36.6950 
 262   0.0000       1.353248        36.8237 
 263   0.0000       1.364493        37.1297 
 264   0.0000       1.384299        37.6687 
 265   0.0000       1.386012        37.7153 
 266   0.0000       1.394230        37.9389 
 267   0.0000       1.399548        38.0836 
 268   0.0000       1.411481        38.4084 
 269   0.0000       1.419156        38.6172 
 270   0.0000       1.427644        38.8482 
 271   0.0000       1.433596        39.0101 
 272   0.0000       1.445766        39.3413 
 273   0.0000       1.447369        39.3849 
 274   0.0000       1.453366        39.5481 
 275   0.0000       1.466951        39.9178 
 276   0.0000       1.471501        40.0416 
 277   0.0000       1.478129        40.2219 
 278   0.0000       1.480565        40.2882 
 279   0.0000       1.490618        40.5618 
 280   0.0000       1.496925        40.7334 
 281   0.0000       1.508490        41.0481 
 282   0.0000       1.516431        41.2642 
 283   0.0000       1.518901        41.3314 
 284   0.0000       1.521944        41.4142 
 285   0.0000       1.526103        41.5274 
 286   0.0000       1.538298        41.8592 
 287   0.0000       1.544324        42.0232 
 288   0.0000       1.551391        42.2155 
 289   0.0000       1.554065        42.2883 
 290   0.0000       1.561863        42.5005 
 291   0.0000       1.567336        42.6494 
 292   0.0000       1.570636        42.7392 
 293   0.0000       1.590811        43.2882 
 294   0.0000       1.591304        43.3016 
 295   0.0000       1.605027        43.6750 
 296   0.0000       1.607351        43.7382 
 297   0.0000       1.612740        43.8849 
 298   0.0000       1.618090        44.0305 
 299   0.0000       1.620514        44.0964 
 300   0.0000       1.636735        44.5378 
 301   0.0000       1.644807        44.7575 
 302   0.0000       1.646384        44.8004 
 303   0.0000       1.655256        45.0418 
 304   0.0000       1.665222        45.3130 
 305   0.0000       1.666577        45.3499 
 306   0.0000       1.671350        45.4798 
 307   0.0000       1.684822        45.8463 
 308   0.0000       1.701310        46.2950 
 309   0.0000       1.703513        46.3550 
 310   0.0000       1.721739        46.8509 
 311   0.0000       1.723714        46.9047 
 312   0.0000       1.725108        46.9426 
 313   0.0000       1.750039        47.6210 
 314   0.0000       1.753405        47.7126 
 315   0.0000       1.758612        47.8543 
 316   0.0000       1.768618        48.1266 
 317   0.0000       1.777723        48.3743 
 318   0.0000       1.781737        48.4835 
 319   0.0000       1.796026        48.8724 
 320   0.0000       1.808250        49.2050 
 321   0.0000       1.827010        49.7155 
 322   0.0000       1.834215        49.9115 
 323   0.0000       1.843818        50.1728 
 324   0.0000       1.870146        50.8893 
 325   0.0000       1.881842        51.2075 
 326   0.0000       1.886049        51.3220 
 327   0.0000       1.894745        51.5586 
 328   0.0000       1.907309        51.9005 
 329   0.0000       1.911863        52.0244 
 330   0.0000       1.929012        52.4911 
 331   0.0000       1.936031        52.6821 
 332   0.0000       1.952386        53.1271 
 333   0.0000       1.962988        53.4156 
 334   0.0000       1.967322        53.5335 
 335   0.0000       1.992180        54.2100 
 336   0.0000       2.001108        54.4529 
 337   0.0000       2.005637        54.5762 
 338   0.0000       2.007727        54.6330 
 339   0.0000       2.015412        54.8421 
 340   0.0000       2.028581        55.2005 
 341   0.0000       2.052595        55.8540 
 342   0.0000       2.067817        56.2681 
 343   0.0000       2.079490        56.5858 
 344   0.0000       2.096382        57.0455 
 345   0.0000       2.112264        57.4776 
 346   0.0000       2.141455        58.2720 
 347   0.0000       2.155953        58.6665 
 348   0.0000       2.166534        58.9544 
 349   0.0000       2.172713        59.1225 
 350   0.0000       2.191554        59.6352 
 351   0.0000       2.194767        59.7227 
 352   0.0000       2.209989        60.1369 
 353   0.0000       2.225514        60.5593 
 354   0.0000       2.251447        61.2650 
 355   0.0000       2.271883        61.8211 
 356   0.0000       2.287497        62.2460 
 357   0.0000       2.289387        62.2974 
 358   0.0000       2.300182        62.5911 
 359   0.0000       2.304145        62.6990 
 360   0.0000       2.324953        63.2652 
 361   0.0000       2.336750        63.5862 
 362   0.0000       2.347787        63.8865 
 363   0.0000       2.359969        64.2180 
 364   0.0000       2.373550        64.5876 
 365   0.0000       2.379143        64.7398 
 366   0.0000       2.382588        64.8335 
 367   0.0000       2.396153        65.2026 
 368   0.0000       2.414849        65.7114 
 369   0.0000       2.421436        65.8906 
 370   0.0000       2.431265        66.1581 
 371   0.0000       2.445595        66.5480 
 372   0.0000       2.461590        66.9833 
 373   0.0000       2.476822        67.3978 
 374   0.0000       2.488443        67.7140 
 375   0.0000       2.503664        68.1282 
 376   0.0000       2.506804        68.2136 
 377   0.0000       2.530097        68.8474 
 378   0.0000       2.540236        69.1233 
 379   0.0000       2.544436        69.2376 
 380   0.0000       2.553121        69.4740 
 381   0.0000       2.561866        69.7119 
 382   0.0000       2.583315        70.2956 
 383   0.0000       2.588311        70.4315 
 384   0.0000       2.597714        70.6874 
 385   0.0000       2.610932        71.0471 
 386   0.0000       2.619621        71.2835 
 387   0.0000       2.640574        71.8537 
 388   0.0000       2.643547        71.9346 
 389   0.0000       2.671896        72.7060 
 390   0.0000       2.681652        72.9714 
 391   0.0000       2.688162        73.1486 
 392   0.0000       2.704947        73.6053 
 393   0.0000       2.711208        73.7757 
 394   0.0000       2.726527        74.1926 
 395   0.0000       2.731448        74.3265 
 396   0.0000       2.736640        74.4678 
 397   0.0000       2.751161        74.8629 
 398   0.0000       2.753339        74.9222 
 399   0.0000       2.760171        75.1081 
 400   0.0000       2.782406        75.7131 
 401   0.0000       2.787319        75.8468 
 402   0.0000       2.796586        76.0990 
 403   0.0000       2.806520        76.3693 
 404   0.0000       2.807398        76.3932 
 405   0.0000       2.815341        76.6093 
 406   0.0000       2.834236        77.1235 
 407   0.0000       2.843015        77.3624 
 408   0.0000       2.855725        77.7082 
 409   0.0000       2.868102        78.0450 
 410   0.0000       2.868910        78.0670 
 411   0.0000       2.879345        78.3509 
 412   0.0000       2.893447        78.7347 
 413   0.0000       2.908192        79.1359 
 414   0.0000       2.911877        79.2362 
 415   0.0000       2.916578        79.3641 
 416   0.0000       2.928348        79.6844 
 417   0.0000       2.936463        79.9052 
 418   0.0000       2.941179        80.0335 
 419   0.0000       2.955351        80.4192 
 420   0.0000       2.963376        80.6376 
 421   0.0000       2.974461        80.9392 
 422   0.0000       2.979325        81.0716 
 423   0.0000       2.985448        81.2382 
 424   0.0000       3.006080        81.7996 
 425   0.0000       3.010479        81.9193 
 426   0.0000       3.021834        82.2283 
 427   0.0000       3.026126        82.3451 
 428   0.0000       3.039644        82.7129 
 429   0.0000       3.049719        82.9871 
 430   0.0000       3.052717        83.0687 
 431   0.0000       3.061686        83.3127 
 432   0.0000       3.069641        83.5292 
 433   0.0000       3.078360        83.7664 
 434   0.0000       3.083374        83.9029 
 435   0.0000       3.085041        83.9482 
 436   0.0000       3.092825        84.1600 
 437   0.0000       3.096674        84.2648 
 438   0.0000       3.102222        84.4158 
 439   0.0000       3.103034        84.4378 
 440   0.0000       3.115926        84.7886 
 441   0.0000       3.124172        85.0130 
 442   0.0000       3.129188        85.1495 
 443   0.0000       3.134891        85.3047 
 444   0.0000       3.147431        85.6460 
 445   0.0000       3.155568        85.8674 
 446   0.0000       3.164667        86.1150 
 447   0.0000       3.170851        86.2832 
 448   0.0000       3.177249        86.4573 
 449   0.0000       3.185854        86.6915 
 450   0.0000       3.191311        86.8400 
 451   0.0000       3.207329        87.2759 
 452   0.0000       3.217582        87.5549 
 453   0.0000       3.218655        87.5841 
 454   0.0000       3.228710        87.8577 
 455   0.0000       3.235553        88.0439 
 456   0.0000       3.238743        88.1307 
 457   0.0000       3.248187        88.3876 
 458   0.0000       3.258136        88.6584 
 459   0.0000       3.259440        88.6939 
 460   0.0000       3.269580        88.9698 
 461   0.0000       3.272767        89.0565 
 462   0.0000       3.277111        89.1747 
 463   0.0000       3.283818        89.3572 
 464   0.0000       3.288523        89.4853 
 465   0.0000       3.294800        89.6561 
 466   0.0000       3.308213        90.0211 
 467   0.0000       3.316665        90.2510 
 468   0.0000       3.324004        90.4507 
 469   0.0000       3.332221        90.6744 
 470   0.0000       3.333630        90.7127 
 471   0.0000       3.340854        90.9093 
 472   0.0000       3.344200        91.0003 
 473   0.0000       3.353010        91.2401 
 474   0.0000       3.358413        91.3871 
 475   0.0000       3.362718        91.5042 
 476   0.0000       3.373451        91.7963 
 477   0.0000       3.380838        91.9973 
 478   0.0000       3.381367        92.0117 
 479   0.0000       3.387463        92.1775 
 480   0.0000       3.401338        92.5551 
 481   0.0000       3.403772        92.6213 
 482   0.0000       3.407318        92.7178 
 483   0.0000       3.412312        92.8537 
 484   0.0000       3.421122        93.0935 
 485   0.0000       3.427262        93.2605 
 486   0.0000       3.430434        93.3469 
 487   0.0000       3.431408        93.3733 
 488   0.0000       3.436639        93.5157 
 489   0.0000       3.441082        93.6366 
 490   0.0000       3.444405        93.7270 
 491   0.0000       3.452380        93.9440 
 492   0.0000       3.459204        94.1297 
 493   0.0000       3.465267        94.2947 
 494   0.0000       3.469781        94.4176 
 495   0.0000       3.477368        94.6240 
 496   0.0000       3.486497        94.8724 
 497   0.0000       3.499482        95.2257 
 498   0.0000       3.504717        95.3682 
 499   0.0000       3.511283        95.5469 
 500   0.0000       3.516298        95.6833 
 501   0.0000       3.523715        95.8852 
 502   0.0000       3.533902        96.1624 
 503   0.0000       3.548616        96.5628 
 504   0.0000       3.555562        96.7518 
 505   0.0000       3.557861        96.8143 
 506   0.0000       3.562268        96.9343 
 507   0.0000       3.564906        97.0060 
 508   0.0000       3.579126        97.3930 
 509   0.0000       3.594359        97.8075 
 510   0.0000       3.603566        98.0580 
 511   0.0000       3.606901        98.1488 
 512   0.0000       3.611073        98.2623 
 513   0.0000       3.620114        98.5083 
 514   0.0000       3.625078        98.6434 
 515   0.0000       3.631002        98.8046 
 516   0.0000       3.638627        99.0121 
 517   0.0000       3.642871        99.1276 
 518   0.0000       3.655145        99.4616 
 519   0.0000       3.657932        99.5374 
 520   0.0000       3.664033        99.7034 
 521   0.0000       3.668531        99.8258 
 522   0.0000       3.676867       100.0526 
 523   0.0000       3.682131       100.1959 
 524   0.0000       3.683213       100.2253 
 525   0.0000       3.690749       100.4304 
 526   0.0000       3.700919       100.7071 
 527   0.0000       3.707451       100.8849 
 528   0.0000       3.708635       100.9171 
 529   0.0000       3.715245       101.0970 
 530   0.0000       3.724956       101.3612 
 531   0.0000       3.726705       101.4088 
 532   0.0000       3.731200       101.5311 
 533   0.0000       3.740326       101.7794 
 534   0.0000       3.748560       102.0035 
 535   0.0000       3.755697       102.1977 
 536   0.0000       3.760549       102.3297 
 537   0.0000       3.768045       102.5337 
 538   0.0000       3.771702       102.6332 
 539   0.0000       3.780219       102.8650 
 540   0.0000       3.787386       103.0600 
 541   0.0000       3.797451       103.3339 
 542   0.0000       3.806820       103.5888 
 543   0.0000       3.812288       103.7376 
 544   0.0000       3.816854       103.8619 
 545   0.0000       3.820292       103.9554 
 546   0.0000       3.824809       104.0783 
 547   0.0000       3.832076       104.2761 
 548   0.0000       3.841800       104.5407 
 549   0.0000       3.853730       104.8653 
 550   0.0000       3.858309       104.9899 
 551   0.0000       3.866265       105.2064 
 552   0.0000       3.870740       105.3282 
 553   0.0000       3.882978       105.6612 
 554   0.0000       3.892836       105.9295 
 555   0.0000       3.898510       106.0838 
 556   0.0000       3.908221       106.3481 
 557   0.0000       3.931862       106.9914 
 558   0.0000       3.935744       107.0970 
 559   0.0000       3.942155       107.2715 
 560   0.0000       3.947621       107.4202 
 561   0.0000       3.953627       107.5837 
 562   0.0000       3.967171       107.9522 
 563   0.0000       3.969590       108.0180 
 564   0.0000       3.977496       108.2332 
 565   0.0000       3.983363       108.3928 
 566   0.0000       3.994013       108.6826 
 567   0.0000       4.011129       109.1484 
 568   0.0000       4.018166       109.3399 
 569   0.0000       4.028095       109.6100 
 570   0.0000       4.033732       109.7634 
 571   0.0000       4.040699       109.9530 
 572   0.0000       4.049576       110.1946 
 573   0.0000       4.057183       110.4016 
 574   0.0000       4.065120       110.6175 
 575   0.0000       4.080194       111.0277 
 576   0.0000       4.081753       111.0701 
 577   0.0000       4.092751       111.3694 
 578   0.0000       4.099280       111.5471 
 579   0.0000       4.111310       111.8744 
 580   0.0000       4.120665       112.1290 
 581   0.0000       4.127448       112.3136 
 582   0.0000       4.128871       112.3523 
 583   0.0000       4.133974       112.4911 
 584   0.0000       4.151337       112.9636 
 585   0.0000       4.156715       113.1100 
 586   0.0000       4.167161       113.3942 
 587   0.0000       4.170748       113.4918 
 588   0.0000       4.178691       113.7080 
 589   0.0000       4.184473       113.8653 
 590   0.0000       4.188700       113.9803 
 591   0.0000       4.192950       114.0960 
 592   0.0000       4.199078       114.2627 
 593   0.0000       4.203978       114.3961 
 594   0.0000       4.206742       114.4713 
 595   0.0000       4.213385       114.6520 
 596   0.0000       4.219524       114.8191 
 597   0.0000       4.235399       115.2511 
 598   0.0000       4.247973       115.5932 
 599   0.0000       4.252591       115.7189 
 600   0.0000       4.261998       115.9749 
 601   0.0000       4.265392       116.0672 
 602   0.0000       4.270561       116.2079 
 603   0.0000       4.278726       116.4300 
 604   0.0000       4.289668       116.7278 
 605   0.0000       4.299843       117.0047 
 606   0.0000       4.308943       117.2523 
 607   0.0000       4.316136       117.4480 
 608   0.0000       4.321550       117.5953 
 609   0.0000       4.333338       117.9161 
 610   0.0000       4.335114       117.9645 
 611   0.0000       4.349226       118.3485 
 612   0.0000       4.354784       118.4997 
 613   0.0000       4.357360       118.5698 
 614   0.0000       4.368394       118.8700 
 615   0.0000       4.377093       119.1068 
 616   0.0000       4.382335       119.2494 
 617   0.0000       4.387751       119.3968 
 618   0.0000       4.394384       119.5773 
 619   0.0000       4.409139       119.9788 
 620   0.0000       4.420867       120.2979 
 621   0.0000       4.424047       120.3844 
 622   0.0000       4.429750       120.5396 
 623   0.0000       4.438341       120.7734 
 624   0.0000       4.447948       121.0348 
 625   0.0000       4.455491       121.2401 
 626   0.0000       4.456193       121.2592 
 627   0.0000       4.466304       121.5343 
 628   0.0000       4.472432       121.7011 
 629   0.0000       4.482447       121.9736 
 630   0.0000       4.494348       122.2974 
 631   0.0000       4.501256       122.4854 
 632   0.0000       4.518771       122.9620 
 633   0.0000       4.527240       123.1925 
 634   0.0000       4.529868       123.2640 
 635   0.0000       4.538738       123.5053 
 636   0.0000       4.540997       123.5668 
 637   0.0000       4.542944       123.6198 
 638   0.0000       4.559876       124.0805 
 639   0.0000       4.561586       124.1271 
 640   0.0000       4.570676       124.3744 
 641   0.0000       4.578279       124.5813 
 642   0.0000       4.585863       124.7877 
 643   0.0000       4.598865       125.1415 
 644   0.0000       4.618895       125.6865 
 645   0.0000       4.624166       125.8300 
 646   0.0000       4.630493       126.0021 
 647   0.0000       4.643663       126.3605 
 648   0.0000       4.647344       126.4607 
 649   0.0000       4.656371       126.7063 
 650   0.0000       4.660942       126.8307 
 651   0.0000       4.662352       126.8690 
 652   0.0000       4.678497       127.3084 
 653   0.0000       4.690358       127.6311 
 654   0.0000       4.701803       127.9426 
 655   0.0000       4.705845       128.0525 
 656   0.0000       4.709562       128.1537 
 657   0.0000       4.720897       128.4622 
 658   0.0000       4.727707       128.6474 
 659   0.0000       4.737427       128.9120 
 660   0.0000       4.747227       129.1786 
 661   0.0000       4.752169       129.3131 
 662   0.0000       4.777642       130.0063 
 663   0.0000       4.794177       130.4562 
 664   0.0000       4.798180       130.5651 
 665   0.0000       4.831813       131.4803 
 666   0.0000       4.843868       131.8084 
 667   0.0000       4.860471       132.2601 
 668   0.0000       4.883983       132.8999 
 669   0.0000       4.896582       133.2428 
 670   0.0000       4.909544       133.5955 
 671   0.0000       4.918525       133.8399 
 672   0.0000       4.930538       134.1668 
 673   0.0000       4.944182       134.5380 
 674   0.0000       4.974362       135.3593 
 675   0.0000       4.996218       135.9540 
 676   0.0000       5.015463       136.4777 
 677   0.0000       5.030408       136.8844 
 678   0.0000       5.035094       137.0119 
 679   0.0000       5.048673       137.3814 
 680   0.0000       5.058235       137.6416 
 681   0.0000       5.075354       138.1074 
 682   0.0000       5.079867       138.2302 
 683   0.0000       5.099949       138.7767 
 684   0.0000       5.105096       138.9167 
 685   0.0000       5.123413       139.4152 
 686   0.0000       5.136455       139.7700 
 687   0.0000       5.139281       139.8469 
 688   0.0000       5.146024       140.0304 
 689   0.0000       5.156663       140.3199 
 690   0.0000       5.161599       140.4543 
 691   0.0000       5.187590       141.1615 
 692   0.0000       5.204622       141.6250 
 693   0.0000       5.209886       141.7682 
 694   0.0000       5.216094       141.9371 
 695   0.0000       5.220263       142.0506 
 696   0.0000       5.228311       142.2696 
 697   0.0000       5.230060       142.3172 
 698   0.0000       5.239881       142.5844 
 699   0.0000       5.257339       143.0595 
 700   0.0000       5.273132       143.4892 
 701   0.0000       5.285816       143.8344 
 702   0.0000       5.307545       144.4257 
 703   0.0000       5.332164       145.0955 
 704   0.0000       5.335217       145.1786 
 705   0.0000       5.345236       145.4513 
 706   0.0000       5.354494       145.7032 
 707   0.0000       5.359796       145.8475 
 708   0.0000       5.376514       146.3024 
 709   0.0000       5.393795       146.7726 
 710   0.0000       5.399980       146.9409 
 711   0.0000       5.406368       147.1148 
 712   0.0000       5.437464       147.9609 
 713   0.0000       5.461385       148.6118 
 714   0.0000       5.467030       148.7655 
 715   0.0000       5.495480       149.5396 
 716   0.0000       5.499665       149.6535 
 717   0.0000       5.506061       149.8275 
 718   0.0000       5.514370       150.0536 
 719   0.0000       5.523933       150.3139 
 720   0.0000       5.530017       150.4794 
 721   0.0000       5.540294       150.7591 
 722   0.0000       5.548769       150.9897 
 723   0.0000       5.572311       151.6303 
 724   0.0000       5.586725       152.0225 
 725   0.0000       5.589838       152.1072 
 726   0.0000       5.612308       152.7187 
 727   0.0000       5.622682       153.0010 
 728   0.0000       5.631569       153.2428 
 729   0.0000       5.640193       153.4774 
 730   0.0000       5.649607       153.7336 
 731   0.0000       5.657331       153.9438 
 732   0.0000       5.666598       154.1960 
 733   0.0000       5.675758       154.4452 
 734   0.0000       5.686150       154.7280 
 735   0.0000       5.718500       155.6083 
 736   0.0000       5.724547       155.7729 
 737   0.0000       5.734941       156.0557 
 738   0.0000       5.762147       156.7960 
 739   0.0000       5.767003       156.9281 
 740   0.0000       5.776183       157.1779 
 741   0.0000       5.801416       157.8646 
 742   0.0000       5.807984       158.0433 
 743   0.0000       5.809928       158.0962 
 744   0.0000       5.831057       158.6711 
 745   0.0000       5.852012       159.2413 
 746   0.0000       5.881572       160.0457 
 747   0.0000       5.887500       160.2070 
 748   0.0000       5.927990       161.3088 
 749   0.0000       5.942219       161.6960 
 750   0.0000       5.950257       161.9147 
 751   0.0000       5.953219       161.9953 
 752   0.0000       5.990471       163.0090 
 753   0.0000       6.005141       163.4082 
 754   0.0000       6.011494       163.5811 
 755   0.0000       6.047239       164.5537 
 756   0.0000       6.078500       165.4044 
 757   0.0000       6.089474       165.7030 
 758   0.0000       6.093095       165.8015 
 759   0.0000       6.123028       166.6161 
 760   0.0000       6.164111       167.7340 
 761   0.0000       6.169787       167.8884 
 762   0.0000       6.209743       168.9757 
 763   0.0000       6.216760       169.1666 
 764   0.0000       6.238903       169.7692 
 765   0.0000       6.243716       169.9001 
 766   0.0000       6.257956       170.2876 
 767   0.0000       6.309355       171.6863 
 768   0.0000       6.319623       171.9657 
 769   0.0000       6.352215       172.8526 
 770   0.0000       6.356209       172.9612 
 771   0.0000       6.378812       173.5763 
 772   0.0000       6.404167       174.2662 
 773   0.0000       6.436503       175.1461 
 774   0.0000       6.456395       175.6874 
 775   0.0000       6.505265       177.0172 
 776   0.0000       6.526781       177.6028 
 777   0.0000       6.547939       178.1785 
 778   0.0000       6.596438       179.4982 
 779   0.0000       6.618823       180.1073 
 780   0.0000       6.659296       181.2087 
 781   0.0000       6.669499       181.4863 
 782   0.0000       6.717922       182.8040 
 783   0.0000       6.739129       183.3810 
 784   0.0000       6.785174       184.6340 
 785   0.0000       6.863433       186.7635 
 786   0.0000       6.890328       187.4954 
 787   0.0000       6.925065       188.4406 
 788   0.0000       6.927307       188.5016 
 789   0.0000       7.033404       191.3886 
 790   0.0000       7.054849       191.9722 
 791   0.0000       7.086303       192.8281 
 792   0.0000       7.089974       192.9280 
 793   0.0000       7.138884       194.2589 
 794   0.0000       7.254830       197.4140 
 795   0.0000       7.255469       197.4313 
 796   0.0000       7.277942       198.0429 
 797   0.0000       7.289767       198.3646 
 798   0.0000       7.345206       199.8732 
 799   0.0000       7.357845       200.2171 
 800   0.0000       7.439381       202.4359 
 801   0.0000       7.458880       202.9664 
 802   0.0000       7.595411       206.6816 
 803   0.0000       7.601396       206.8445 
 804   0.0000       7.679992       208.9832 
 805   0.0000       7.822530       212.8619 
 806   0.0000       7.837037       213.2566 
 807   0.0000       7.940067       216.0602 
 808   0.0000       7.948596       216.2923 
 809   0.0000       9.491061       258.2649 
 810   0.0000      10.049748       273.4676 
 811   0.0000      10.922257       297.2097 
 812   0.0000      11.318230       307.9847 
 813   0.0000      11.859209       322.7055 
 814   0.0000      12.605737       343.0196 
 815   0.0000      12.794837       348.1652 
 816   0.0000      13.019832       354.2876 
 817   0.0000      13.048081       355.0563 
 818   0.0000      13.244789       360.4090 
 819   0.0000      13.412567       364.9745 
 820   0.0000      13.543215       368.5296 
 821   0.0000      13.838293       376.5591 
 822   0.0000      13.876777       377.6063 
 823   0.0000      13.941664       379.3720 
 824   0.0000      14.040753       382.0683 
 825   0.0000      14.502327       394.6284 
 826   0.0000      14.736795       401.0086 
 827   0.0000      15.882738       432.1913 

                    ********************************
                    * MULLIKEN POPULATION ANALYSIS *
                    ********************************

-----------------------
MULLIKEN ATOMIC CHARGES
-----------------------
   0 C :   -0.264085
   1 C :    0.054060
   2 O :   -0.336783
   3 C :    0.456815
   4 O :   -0.446396
   5 C :   -0.119285
   6 C :    0.111893
   7 C :   -0.276326
   8 N :   -0.137181
   9 C :    0.189086
  10 S :   -0.419686
  11 N :   -0.209097
  12 C :    0.067609
  13 C :    0.072735
  14 C :   -0.229955
  15 C :   -0.134067
  16 C :   -0.284022
  17 C :    0.307118
  18 O :   -0.359854
  19 C :   -0.277501
  20 H :    0.093960
  21 H :    0.095850
  22 H :    0.095728
  23 H :    0.091051
  24 H :    0.089678
  25 H :    0.126581
  26 H :    0.099127
  27 H :    0.125978
  28 H :    0.195502
  29 H :    0.191062
  30 H :    0.189643
  31 H :    0.151652
  32 H :    0.156841
  33 H :    0.125386
  34 H :    0.240828
  35 H :    0.166055
Sum of atomic charges:    0.0000000

--------------------------------
MULLIKEN REDUCED ORBITAL CHARGES
--------------------------------
  0 C s       :     3.260037  s :     3.260037
      pz      :     0.976023  p :     2.925884
      px      :     0.936375
      py      :     1.013486
      dz2     :     0.005623  d :     0.073669
      dxz     :     0.023946
      dyz     :     0.017554
      dx2y2   :     0.020766
      dxy     :     0.005780
      f0      :     0.000317  f :     0.004495
      f+1     :     0.000688
      f-1     :     0.000069
      f+2     :     0.002330
      f-2     :     0.000522
      f+3     :     0.000373
      f-3     :     0.000196
  1 C s       :     3.170162  s :     3.170162
      pz      :     0.933881  p :     2.618543
      px      :     0.978327
      py      :     0.706335
      dz2     :     0.019104  d :     0.145843
      dxz     :     0.027390
      dyz     :     0.039677
      dx2y2   :     0.036276
      dxy     :     0.023397
      f0      :     0.000881  f :     0.011393
      f+1     :     0.000602
      f-1     :     0.002124
      f+2     :     0.003227
      f-2     :     0.001264
      f+3     :     0.001752
      f-3     :     0.001543
  2 O s       :     3.719179  s :     3.719179
      pz      :     1.602990  p :     4.580217
      px      :     1.499164
      py      :     1.478063
      dz2     :     0.004339  d :     0.035228
      dxz     :     0.008246
      dyz     :     0.005060
      dx2y2   :     0.013020
      dxy     :     0.004563
      f0      :     0.000339  f :     0.002160
      f+1     :     0.000288
      f-1     :     0.000156
      f+2     :     0.000600
      f-2     :     0.000279
      f+3     :     0.000230
      f-3     :     0.000267
  3 C s       :     3.058607  s :     3.058607
      pz      :     0.673548  p :     2.153219
      px      :     0.675408
      py      :     0.804263
      dz2     :     0.035119  d :     0.305056
      dxz     :     0.061723
      dyz     :     0.052295
      dx2y2   :     0.102050
      dxy     :     0.053868
      f0      :     0.002414  f :     0.026303
      f+1     :     0.003931
      f-1     :     0.001821
      f+2     :     0.002591
      f-2     :     0.005041
      f+3     :     0.004775
      f-3     :     0.005731
  4 O s       :     3.776654  s :     3.776654
      pz      :     1.587128  p :     4.631871
      px      :     1.521855
      py      :     1.522888
      dz2     :     0.003969  d :     0.035463
      dxz     :     0.004407
      dyz     :     0.006302
      dx2y2   :     0.008604
      dxy     :     0.012181
      f0      :     0.000238  f :     0.002409
      f+1     :     0.000202
      f-1     :     0.000225
      f+2     :     0.000035
      f-2     :     0.000430
      f+3     :     0.000621
      f-3     :     0.000657
  5 C s       :     3.150461  s :     3.150461
      pz      :     1.032921  p :     2.866170
      px      :     0.971000
      py      :     0.862250
      dz2     :     0.020677  d :     0.091549
      dxz     :     0.014028
      dyz     :     0.021535
      dx2y2   :     0.020248
      dxy     :     0.015061
      f0      :     0.001461  f :     0.011105
      f+1     :     0.001272
      f-1     :     0.000963
      f+2     :     0.002295
      f-2     :     0.001539
      f+3     :     0.001544
      f-3     :     0.002032
  6 C s       :     3.218279  s :     3.218279
      pz      :     0.873852  p :     2.480613
      px      :     0.848527
      py      :     0.758233
      dz2     :     0.023453  d :     0.175156
      dxz     :     0.017494
      dyz     :     0.051408
      dx2y2   :     0.037661
      dxy     :     0.045140
      f0      :     0.001378  f :     0.014059
      f+1     :     0.001403
      f-1     :     0.001859
      f+2     :     0.002246
      f-2     :     0.002191
      f+3     :     0.002376
      f-3     :     0.002606
  7 C s       :     3.277498  s :     3.277498
      pz      :     0.979442  p :     2.925192
      px      :     0.928722
      py      :     1.017028
      dz2     :     0.013760  d :     0.069007
      dxz     :     0.016557
      dyz     :     0.011679
      dx2y2   :     0.022172
      dxy     :     0.004838
      f0      :     0.000314  f :     0.004629
      f+1     :     0.000660
      f-1     :     0.000654
      f+2     :     0.001565
      f-2     :     0.000482
      f+3     :     0.000294
      f-3     :     0.000660
  8 N s       :     3.347166  s :     3.347166
      pz      :     1.420729  p :     3.726555
      px      :     1.246422
      py      :     1.059404
      dz2     :     0.008176  d :     0.058629
      dxz     :     0.008643
      dyz     :     0.011275
      dx2y2   :     0.014833
      dxy     :     0.015703
      f0      :     0.000604  f :     0.004831
      f+1     :     0.000824
      f-1     :     0.000410
      f+2     :     0.000898
      f-2     :     0.000922
      f+3     :     0.000629
      f-3     :     0.000546
  9 C s       :     3.170731  s :     3.170731
      pz      :     0.713105  p :     2.362247
      px      :     0.753567
      py      :     0.895575
      dz2     :     0.046570  d :     0.260436
      dxz     :     0.029700
      dyz     :     0.058823
      dx2y2   :     0.061837
      dxy     :     0.063505
      f0      :     0.001486  f :     0.017501
      f+1     :     0.002911
      f-1     :     0.002226
      f+2     :     0.003177
      f-2     :     0.002038
      f+3     :     0.002719
      f-3     :     0.002943
 10 S s       :     5.857669  s :     5.857669
      pz      :     3.626273  p :    10.467973
      px      :     3.669467
      py      :     3.172233
      dz2     :     0.011042  d :     0.083941
      dxz     :     0.002520
      dyz     :     0.023673
      dx2y2   :     0.020968
      dxy     :     0.025738
      f0      :     0.001072  f :     0.010104
      f+1     :     0.000334
      f-1     :     0.001403
      f+2     :     0.001713
      f-2     :     0.001076
      f+3     :     0.003024
      f-3     :     0.001482
 11 N s       :     3.392945  s :     3.392945
      pz      :     1.347561  p :     3.750678
      px      :     1.382733
      py      :     1.020384
      dz2     :     0.005379  d :     0.061017
      dxz     :     0.007716
      dyz     :     0.018961
      dx2y2   :     0.015213
      dxy     :     0.013747
      f0      :     0.000506  f :     0.004458
      f+1     :     0.000378
      f-1     :     0.000507
      f+2     :     0.000928
      f-2     :     0.000717
      f+3     :     0.000669
      f-3     :     0.000752
 12 C s       :     3.120110  s :     3.120110
      pz      :     0.871853  p :     2.635348
      px      :     0.913830
      py      :     0.849665
      dz2     :     0.036007  d :     0.165977
      dxz     :     0.029199
      dyz     :     0.029310
      dx2y2   :     0.030012
      dxy     :     0.041449
      f0      :     0.001160  f :     0.010956
      f+1     :     0.001745
      f-1     :     0.001435
      f+2     :     0.002197
      f-2     :     0.001427
      f+3     :     0.001711
      f-3     :     0.001282
 13 C s       :     3.122136  s :     3.122136
      pz      :     0.860616  p :     2.676091
      px      :     0.900709
      py      :     0.914766
      dz2     :     0.026621  d :     0.118087
      dxz     :     0.014813
      dyz     :     0.024332
      dx2y2   :     0.026155
      dxy     :     0.026166
      f0      :     0.001174  f :     0.010950
      f+1     :     0.001763
[...]
      f+2     :     0.007095
      f-2     :     0.005602
      f+3     :     0.010163
      f-3     :     0.006280
 15 C s       :     2.705454  s :     2.705454
      pz      :     0.866961  p :     2.793334
      px      :     0.956505
      py      :     0.969868
      dz2     :     0.069967  d :     0.424079
      dxz     :     0.073676
      dyz     :     0.051713
      dx2y2   :     0.139811
      dxy     :     0.088912
      f0      :     0.003202  f :     0.041789
      f+1     :     0.004388
      f-1     :     0.004856
      f+2     :     0.005485
      f-2     :     0.007320
      f+3     :     0.008698
      f-3     :     0.007840
 16 C s       :     2.700074  s :     2.700074
      pz      :     0.931467  p :     2.878445
      px      :     0.959833
      py      :     0.987145
      dz2     :     0.031453  d :     0.393564
      dxz     :     0.052198
      dyz     :     0.080142
      dx2y2   :     0.120710
      dxy     :     0.109061
      f0      :     0.003567  f :     0.040942
      f+1     :     0.002012
      f-1     :     0.005595
      f+2     :     0.005934
      f-2     :     0.004801
      f+3     :     0.010946
      f-3     :     0.008086
 17 C s       :     2.701329  s :     2.701329
      pz      :     0.849413  p :     2.681553
      px      :     0.865095
      py      :     0.967046
      dz2     :     0.101744  d :     0.713456
      dxz     :     0.100008
      dyz     :     0.136375
      dx2y2   :     0.175839
      dxy     :     0.199489
      f0      :     0.007791  f :     0.099918
      f+1     :     0.010289
      f-1     :     0.011269
      f+2     :     0.012546
      f-2     :     0.015322
      f+3     :     0.026167
      f-3     :     0.016534
 18 O s       :     3.176574  s :     3.176574
      pz      :     1.543385  p :     4.349345
      px      :     1.294643
      py      :     1.511317
      dz2     :     0.006489  d :     0.075612
      dxz     :     0.014207
      dyz     :     0.011829
      dx2y2   :     0.014225
      dxy     :     0.028863
      f0      :     0.000526  f :     0.005094
      f+1     :     0.000622
      f-1     :     0.000333
      f+2     :     0.000279
      f-2     :     0.000928
      f+3     :     0.001305
      f-3     :     0.001102
 19 C s       :     2.696861  s :     2.696861
      pz      :     0.929547  p :     2.859312
      px      :     0.961522
      py      :     0.968243
      dz2     :     0.058196  d :     0.382747
      dxz     :     0.067514
      dyz     :     0.049656
      dx2y2   :     0.121489
      dxy     :     0.085892
      f0      :     0.003307  f :     0.039941
      f+1     :     0.004441
      f-1     :     0.004066
      f+2     :     0.006019
      f-2     :     0.006868
      f+3     :     0.007631
      f-3     :     0.007609
 20 H s       :     0.850550  s :     0.850550
      pz      :     0.049613  p :     0.150199
      px      :     0.039950
      py      :     0.060636
      dz2     :     0.005238  d :     0.027314
      dxz     :     0.003588
      dyz     :     0.007250
      dx2y2   :     0.005556
      dxy     :     0.005683
 21 H s       :     0.848270  s :     0.848270
      pz      :     0.051170  p :     0.151220
      px      :     0.059870
      py      :     0.040180
      dz2     :     0.005866  d :     0.027528
      dxz     :     0.006979
      dyz     :     0.004301
      dx2y2   :     0.005301
      dxy     :     0.005081
 22 H s       :     0.842491  s :     0.842491
      pz      :     0.051219  p :     0.149244
      px      :     0.038117
      py      :     0.059909
      dz2     :     0.005777  d :     0.027277
      dxz     :     0.003943
      dyz     :     0.007140
      dx2y2   :     0.005312
      dxy     :     0.005104
 23 H s       :     0.852814  s :     0.852814
      pz      :     0.057222  p :     0.145900
      px      :     0.039737
      py      :     0.048941
      dz2     :     0.005318  d :     0.027588
      dxz     :     0.006107
      dyz     :     0.007856
      dx2y2   :     0.004276
      dxy     :     0.004031
 24 H s       :     0.856117  s :     0.856117
      pz      :     0.050551  p :     0.146198
      px      :     0.067383
      py      :     0.028264
      dz2     :     0.005894  d :     0.027384
      dxz     :     0.008195
      dyz     :     0.003050
      dx2y2   :     0.005538
      dxy     :     0.004707
 25 H s       :     0.830797  s :     0.830797
      pz      :     0.063886  p :     0.153454
      px      :     0.037496
      py      :     0.052072
      dz2     :     0.008763  d :     0.027834
      dxz     :     0.006982
      dyz     :     0.007179
      dx2y2   :     0.003016
      dxy     :     0.001894
 26 H s       :     0.840803  s :     0.840803
      pz      :     0.041081  p :     0.149718
      px      :     0.037363
      py      :     0.071273
      dz2     :     0.002676  d :     0.027617
      dxz     :     0.000886
      dyz     :     0.009172
      dx2y2   :     0.006573
      dxy     :     0.008312
 27 H s       :     0.828282  s :     0.828282
      pz      :     0.044903  p :     0.151979
      px      :     0.064983
      py      :     0.042093
      dz2     :     0.004500  d :     0.027650
      dxz     :     0.007417
      dyz     :     0.002187
      dx2y2   :     0.006867
      dxy     :     0.006679
 28 H s       :     0.743712  s :     0.743712
      pz      :     0.079941  p :     0.257510
      px      :     0.072827
      py      :     0.104742
      dz2     :     0.007443  d :     0.062370
      dxz     :     0.003963
      dyz     :     0.018108
      dx2y2   :     0.015416
      dxy     :     0.017441
 29 H s       :     0.746940  s :     0.746940
      pz      :     0.099654  p :     0.256057
      px      :     0.113068
      py      :     0.043334
      dz2     :     0.018489  d :     0.061299
      dxz     :     0.015182
      dyz     :     0.006768
      dx2y2   :     0.012092
      dxy     :     0.008767
 30 H s       :     0.812642  s :     0.812642
      pz      :     0.041385  p :     0.162046
      px      :     0.049838
      py      :     0.070823
      dz2     :     0.003026  d :     0.029558
      dxz     :     0.004025
      dyz     :     0.006164
      dx2y2   :     0.007643
      dxy     :     0.008700
 31 H s       :     0.843000  s :     0.843000
      pz      :     0.050896  p :     0.160005
      px      :     0.057225
      py      :     0.051884
      dz2     :     0.004045  d :     0.027826
      dxz     :     0.004661
      dyz     :     0.004779
      dx2y2   :     0.007480
      dxy     :     0.006861
 32 H s       :     0.844206  s :     0.844206
      pz      :     0.039178  p :     0.150316
      px      :     0.034418
      py      :     0.076720
      dz2     :     0.002762  d :     0.026304
      dxz     :     0.000332
      dyz     :     0.007600
      dx2y2   :     0.007576
      dxy     :     0.008035
 33 H s       :     0.850439  s :     0.850439
      pz      :     0.057432  p :     0.159833
      px      :     0.063143
      py      :     0.039258
      dz2     :     0.005259  d :     0.027799
      dxz     :     0.006651
      dyz     :     0.003400
      dx2y2   :     0.006239
      dxy     :     0.006250
 34 H s       :     0.706858  s :     0.706858
      pz      :     0.113429  p :     0.348489
      px      :     0.112697
      py      :     0.122363
      dz2     :     0.018420  d :     0.099789
      dxz     :     0.018428
      dyz     :     0.016126
      dx2y2   :     0.023447
      dxy     :     0.023368
 35 H s       :     0.838731  s :     0.838731
      pz      :     0.048723  p :     0.167221
      px      :     0.037109
      py      :     0.081389
      dz2     :     0.003105  d :     0.029225
      dxz     :     0.000430
      dyz     :     0.009006
      dx2y2   :     0.007818
      dxy     :     0.008867


                      *****************************
                      * MAYER POPULATION ANALYSIS *
                      *****************************

  NA   - Mulliken gross atomic population
  ZA   - Total nuclear charge
  QA   - Mulliken gross atomic charge
  VA   - Mayer's total valence
  BVA  - Mayer's bonded valence
  FA   - Mayer's free valence

  ATOM       NA         ZA         QA         VA         BVA        FA
  0 C      6.2641     6.0000    -0.2641     3.8877     3.8877     0.0000
  1 C      5.9459     6.0000     0.0541     3.8508     3.8508     0.0000
  2 O      8.3368     8.0000    -0.3368     2.1009     2.1009     0.0000
  3 C      5.5432     6.0000     0.4568     4.1967     4.1967     0.0000
  4 O      8.4464     8.0000    -0.4464     2.0652     2.0652     0.0000
  5 C      6.1193     6.0000    -0.1193     3.6494     3.6494    -0.0000
  6 C      5.8881     6.0000     0.1119     3.8499     3.8499    -0.0000
  7 C      6.2763     6.0000    -0.2763     3.8901     3.8901     0.0000
  8 N      7.1372     7.0000    -0.1372     3.2688     3.2688    -0.0000
  9 C      5.8109     6.0000     0.1891     4.1337     4.1337    -0.0000
 10 S     16.4197    16.0000    -0.4197     1.7783     1.7783    -0.0000
 11 N      7.2091     7.0000    -0.2091     3.2260     3.2260     0.0000
 12 C      5.9324     6.0000     0.0676     3.8979     3.8979     0.0000
 13 C      5.9273     6.0000     0.0727     3.6732     3.6732    -0.0000
 14 C      6.2300     6.0000    -0.2300     3.8497     3.8497     0.0000
 15 C      6.1341     6.0000    -0.1341     3.8137     3.8137     0.0000
 16 C      6.2840     6.0000    -0.2840     3.7814     3.7814     0.0000
 17 C      5.6929     6.0000     0.3071     3.8784     3.8784     0.0000
 18 O      8.3599     8.0000    -0.3599     2.1142     2.1142    -0.0000
 19 C      6.2775     6.0000    -0.2775     3.8168     3.8168    -0.0000
 20 H      0.9060     1.0000     0.0940     0.9862     0.9862    -0.0000
 21 H      0.9041     1.0000     0.0959     0.9820     0.9820     0.0000
 22 H      0.9043     1.0000     0.0957     0.9835     0.9835     0.0000
 23 H      0.9089     1.0000     0.0911     0.9811     0.9811    -0.0000
 24 H      0.9103     1.0000     0.0897     0.9802     0.9802     0.0000
 25 H      0.8734     1.0000     0.1266     0.9896     0.9896     0.0000
 26 H      0.9009     1.0000     0.0991     0.9853     0.9853     0.0000
 27 H      0.8740     1.0000     0.1260     0.9772     0.9772     0.0000
 28 H      0.8045     1.0000     0.1955     1.0236     1.0236    -0.0000
 29 H      0.8089     1.0000     0.1911     1.0212     1.0212    -0.0000
 30 H      0.8104     1.0000     0.1896     0.9976     0.9976     0.0000
 31 H      0.8483     1.0000     0.1517     0.9902     0.9902     0.0000
 32 H      0.8432     1.0000     0.1568     0.9778     0.9778    -0.0000
 33 H      0.8746     1.0000     0.1254     0.9920     0.9920     0.0000
 34 H      0.7592     1.0000     0.2408     1.0106     1.0106     0.0000
 35 H      0.8339     1.0000     0.1661     0.9932     0.9932     0.0000

  Mayer bond orders larger than 0.100000
B(  0-C ,  1-C ) :   0.9575 B(  0-C , 20-H ) :   0.9763 B(  0-C , 21-H ) :   0.9831 
B(  0-C , 22-H ) :   0.9799 B(  1-C ,  2-O ) :   0.8993 B(  1-C , 23-H ) :   0.9781 
B(  1-C , 24-H ) :   0.9795 B(  2-O ,  3-C ) :   1.1777 B(  3-C ,  4-O ) :   1.9187 
B(  3-C ,  5-C ) :   1.0613 B(  5-C ,  6-C ) :   1.6199 B(  5-C , 12-C ) :   0.9941 
B(  6-C ,  7-C ) :   0.9575 B(  6-C ,  8-N ) :   1.1422 B(  7-C , 25-H ) :   0.9660 
B(  7-C , 26-H ) :   0.9884 B(  7-C , 27-H ) :   0.9635 B(  8-N ,  9-C ) :   1.1582 
B(  8-N , 28-H ) :   0.9491 B(  9-C , 10-S ) :   1.6331 B(  9-C , 11-N ) :   1.2893 
B( 11-N , 12-C ) :   0.9784 B( 11-N , 29-H ) :   0.9526 B( 12-C , 13-C ) :   0.8824 
B( 12-C , 30-H ) :   0.9817 B( 13-C , 14-C ) :   1.3902 B( 13-C , 19-C ) :   1.3486 
B( 14-C , 15-C ) :   1.3796 B( 14-C , 31-H ) :   0.9686 B( 15-C , 16-C ) :   1.3761 
B( 15-C , 32-H ) :   0.9718 B( 16-C , 17-C ) :   1.3173 B( 16-C , 33-H ) :   0.9864 
B( 17-C , 18-O ) :   1.1142 B( 17-C , 19-C ) :   1.3864 B( 18-O , 34-H ) :   0.9803 
B( 19-C , 35-H ) :   0.9497 

-------
TIMINGS
-------

Total SCF time: 0 days 1 hours 34 min 16 sec 

Total time                  ....    5656.727 sec
Sum of individual times     ....    5651.399 sec  ( 99.9%)

Fock matrix formation       ....    5639.378 sec  ( 99.7%)
Diagonalization             ....       1.152 sec  (  0.0%)
Density matrix formation    ....       0.209 sec  (  0.0%)
Population analysis         ....       0.208 sec  (  0.0%)
Initial guess               ....       4.681 sec  (  0.1%)
Orbital Transformation      ....       0.000 sec  (  0.0%)
Orbital Orthonormalization  ....       0.000 sec  (  0.0%)
DIIS solution               ....       2.814 sec  (  0.0%)
SOSCF solution              ....       1.710 sec  (  0.0%)

------------------------------------------------------------------------------
                                ORCA  MP2 
------------------------------------------------------------------------------

Freezing NCore=48 chemical core electrons

-------------
RI-MP2 ENERGY
-------------
Dimension of the basis                    ...  828
Memory devoted to MP2                     ...  256 MB   
Data format for buffers                   ... DOUBLE
Compression type for matrix containers    ... UNCOMPRESSED
Overall scaling of the MP2 energy         ...   1.000e+00
Calculating two index integrals           ... done (    0.040 sec)
Cholesky decomposition of V**-1           ... done (    0.329 sec)

-----------------
RI-TRANSFORMATION (AUX index driven)
-----------------

Dimension of the orbital-basis         ... 828
Dimension of the aux-basis             ... 2141
Transformation of internal/external MOs...   24-  76 to   77- 827
Number Format for Storage              ... Double (8 Byte)
Integral mode                          ... Direct

First Phase: integral generation and transformation of MO indices
  Aux angular momentum 0               ... done (    4.440 sec)
  Aux angular momentum 1               ... done (    7.251 sec)
  Aux angular momentum 2               ... done (    9.781 sec)
  Aux angular momentum 3               ... done (    7.716 sec)
  Aux angular momentum 4               ... done (    2.710 sec)
Closing buffer VIA ( 0.63 GB; CompressionRatio= 1.00)
  Phase 1 completed in    32.040 sec
Second Phase: sorting and transformation of aux index

IA-Transformation
Memory available                       ... 167 MB 
Max. # MO pairs treated in a batch     ... 12    
# of internal orbitals                 ... 53
# batches for internal orbitals        ... 5
Closing buffer IAV ( 0.63 GB; CompressionRatio= 1.00)
(ia|v) transformation done in    18.259 sec

  Phase 2 completed in    18.262 sec
RI-Integral transformation completed in    50.306 sec
Opening buffers                              ... done

Starting loop over batches of integrals:

Operator 0  - window                       ... ( 24- 76)x( 77-827)
Operator 0  - Memory available             ...   256 MB
Operator 0  - Memory needed per MO         ...  12.3 MB
Operator 0  - Number of orbitals per batch ... 13
Operator 0  - Number of batches            ... 5

OPERATOR  0   PASS   0:  MOs    24 ...   36
  Reading integrals       ... ok
  Internal MO  26
  Internal MO  29
  Internal MO  32
  Internal MO  35
OPERATOR  0   PASS   1:  MOs    37 ...   49
  Reading integrals       ... ok
  Internal MO  38
  Internal MO  41
  Internal MO  44
  Internal MO  47
OPERATOR  0   PASS   2:  MOs    50 ...   62
  Reading integrals       ... ok
  Internal MO  50
  Internal MO  53
  Internal MO  56
  Internal MO  59
  Internal MO  62
OPERATOR  0   PASS   3:  MOs    63 ...   75
  Reading integrals       ... ok
  Internal MO  65
  Internal MO  68
  Internal MO  71
  Internal MO  74
OPERATOR  0   PASS   4:  MOs    76 ...   76
  Reading integrals       ... ok
Time spent in pair loops =    83.706 sec
Deleting buffer (Ka|jb)[aa] ...done

-----------------------------------------------
 RI-MP2 CORRELATION ENERGY:     -3.553207660 Eh
-----------------------------------------------


-------
TIMINGS
-------

Total time                :  134.469 sec
Integral trafo            :   50.312 sec ( 37.4%)
I/O of integrals          :    0.975 sec (  0.7%)
K(i,j) Operators          :   52.292 sec ( 38.9%)
T(i,j) pair energies      :    8.665 sec (  6.4%)
V-calculation             :    0.040 sec (  0.0%)
V**(-1/2)                 :    0.329 sec (  0.2%)
Gamma(ia|P)               :    0.000 sec (  0.0%)
Gamma-Trafo               :    0.000 sec (  0.0%)
D(virtual)                :    0.000 sec (  0.0%)
D(internal)               :    0.000 sec (  0.0%)
W(virtual)                :    0.000 sec (  0.0%)
W(internal)               :    0.000 sec (  0.0%)
L(virtual)                :    0.000 sec (  0.0%)
L(internal)               :    0.000 sec (  0.0%)
G(D)                      :    0.000 sec (  0.0%)
G(Z)                      :    0.000 sec (  0.0%)
Z-Vector Solution         :    0.000 sec (  0.0%)
3-Index Derivative        :    0.000 sec (  0.0%)
2-Index Derivative        :    0.000 sec (  0.0%)
Separable Gradient        :    0.000 sec (  0.0%)


---------------------------------------
MP2 TOTAL ENERGY:    -1274.286434473 Eh
---------------------------------------

-------------------------   --------------------
FINAL SINGLE POINT ENERGY     -1274.286434472538
-------------------------   --------------------


                            ***************************************
                            *     ORCA property calculations      *
                            ***************************************


  WARNING: The energy has been calculated at the MP2 level but the densities
           used in the property calculations are still SCF densities
           MP2 response densities have not been calculated 
           use %mp2 Density relaxed end
           or  %mp2 Density unrelaxed end

                                    ---------------------
                                    Active property flags
                                    ---------------------
   (+) Dipole Moment


------------------------------------------------------------------------------
                       ORCA ELECTRIC PROPERTIES CALCULATION
------------------------------------------------------------------------------

Dipole Moment Calculation                       ... on
Quadrupole Moment Calculation                   ... off
Polarizability Calculation                      ... off
GBWName                                         ... G2_CONFS/Conf962.orca.gbw
Electron density file                           ... G2_CONFS/Conf962.orca.scfp
The origin for moment calculation is the CENTER OF MASS  = (32.976161, 31.658931 35.412200)

-------------
DIPOLE MOMENT
-------------
                                X             Y             Z
Electronic contribution:     11.67392      12.42046      10.19018
Nuclear contribution   :    -13.41228     -13.95980     -11.18356
                        -----------------------------------------
Total Dipole Moment    :     -1.73836      -1.53934      -0.99337
                        -----------------------------------------
Magnitude (a.u.)       :      2.52552
Magnitude (Debye)      :      6.41935



--------------------
Rotational spectrum 
--------------------
 
Rotational constants in cm-1:     0.012487     0.008273     0.006380 
Rotational constants in MHz :   374.353776   248.004696   191.282293 

 Dipole components along the rotational axes: 
x,y,z [a.u.] :    -2.297684     0.455180     0.944293 
x,y,z [Debye]:    -5.840249     1.156976     2.400201 

 

Timings for individual modules:

Sum of individual times         ...     5792.729 sec (=  96.545 min)
GTO integral calculation        ...        1.258 sec (=   0.021 min)   0.0 %
SCF iterations                  ...     5656.754 sec (=  94.279 min)  97.7 %
MP2 module                      ...      134.718 sec (=   2.245 min)   2.3 %
                             ****ORCA TERMINATED NORMALLY****
TOTAL RUN TIME: 0 days 1 hours 36 minutes 33 seconds 469 msec
