
                                 *****************
                                 * O   R   C   A *
                                 *****************

           --- An Ab Initio, DFT and Semiempirical electronic structure package ---

                  #######################################################
                  #                        -***-                        #
                  #          Department of theory and spectroscopy      #
                  #               Directorship: Frank Neese             #
                  #        Max Planck Institute fuer Kohlenforschung    #
                  #                Kaiser Wilhelm Platz 1               #
                  #                 D-45470 Muelheim/Ruhr               #
                  #                      Germany                        #
                  #                                                     #
                  #                  All rights reserved                #
                  #                        -***-                        #
                  #######################################################


                         Program Version 4.2.0 -  RELEASE  -


 With contributions from (in alphabetic order):
   Daniel Aravena         : Magnetic Suceptibility
   Michael Atanasov       : Ab Initio Ligand Field Theory (pilot matlab implementation)
   Alexander A. Auer      : GIAO ZORA, VPT2
   Ute Becker             : Parallelization
   Giovanni Bistoni       : ED, misc. LED, open-shell LED, HFLED
   Martin Brehm           : Molecular dynamics
   Dmytro Bykov           : SCF Hessian
   Vijay G. Chilkuri      : MRCI spin determinant printing, contributions to CSF-ICE
   Dipayan Datta          : RHF DLPNO-CCSD density
   Achintya Kumar Dutta   : EOM-CC, STEOM-CC
   Dmitry Ganyushin       : Spin-Orbit,Spin-Spin,Magnetic field MRCI
   Miquel Garcia          : C-PCM Hessian, Gaussian charge scheme
   Yang Guo               : DLPNO-NEVPT2, CIM, IAO-localization
   Andreas Hansen         : Spin unrestricted coupled pair/coupled cluster methods
   Benjamin Helmich-Paris : CASSCF linear response (MC-RPA)
   Lee Huntington         : MR-EOM, pCC
   Robert Izsak           : Overlap fitted RIJCOSX, COSX-SCS-MP3, EOM
   Christian Kollmar      : KDIIS, OOCD, Brueckner-CCSD(T), CCSD density
   Simone Kossmann        : Meta GGA functionals, TD-DFT gradient, OOMP2, MP2 Hessian
   Martin Krupicka        : AUTO-CI
   Lucas Lang             : DCDCAS
   Dagmar Lenk            : GEPOL surface, SMD
   Dimitrios Liakos       : Extrapolation schemes; Compound Job, initial MDCI parallelization
   Dimitrios Manganas     : Further ROCIS development; embedding schemes
   Dimitrios Pantazis     : SARC Basis sets
   Taras Petrenko         : DFT Hessian,TD-DFT gradient, ASA, ECA, R-Raman, ABS, FL, XAS/XES, NRVS
   Peter Pinski           : DLPNO-MP2, DLPNO-MP2 Gradient
   Christoph Reimann      : Effective Core Potentials
   Marius Retegan         : Local ZFS, SOC
   Christoph Riplinger    : Optimizer, TS searches, QM/MM, DLPNO-CCSD(T), (RO)-DLPNO pert. Triples
   Tobias Risthaus        : Range-separated hybrids, TD-DFT gradient, RPA, STAB
   Michael Roemelt        : Original ROCIS implementation
   Masaaki Saitow         : Open-shell DLPNO-CCSD energy and density
   Barbara Sandhoefer     : DKH picture change effects
   Avijit Sen             : IP-ROCIS
   Kantharuban Sivalingam : CASSCF convergence, NEVPT2, FIC-MRCI
   Bernardo de Souza      : ESD, SOC TD-DFT
   Georgi Stoychev        : AutoAux, RI-MP2 NMR
   Willem Van den Heuvel  : Paramagnetic NMR
   Boris Wezisla          : Elementary symmetry handling
   Frank Wennmohs         : Technical directorship


 We gratefully acknowledge several colleagues who have allowed us to
 interface, adapt or use parts of their codes:
   Stefan Grimme, W. Hujo, H. Kruse,             : VdW corrections, initial TS optimization,
                  C. Bannwarth                     DFT functionals, gCP, sTDA/sTD-DF
   Ed Valeev, F. Pavosevic, A. Kumar             : LibInt (2-el integral package), F12 methods
   Garnet Chan, S. Sharma, J. Yang, R. Olivares  : DMRG
   Ulf Ekstrom                                   : XCFun DFT Library
   Mihaly Kallay                                 : mrcc  (arbitrary order and MRCC methods)
   Andreas Klamt, Michael Diedenhofen            : otool_cosmo (COSMO solvation model)
   Jiri Pittner, Ondrej Demel                    : Mk-CCSD
   Frank Weinhold                                : gennbo (NPA and NBO analysis)
   Christopher J. Cramer and Donald G. Truhlar   : smd solvation model
   Lars Goerigk                                  : TD-DFT with DH, B97 family of functionals
   V. Asgeirsson, H. Jonsson                     : NEB implementation
   FAccTs GmbH                                   : IRC, NEB, NEB-TS, Multilevel, MM, QM/MM, CI optimization
   S Lehtola, MJT Oliveira, MAL Marques          : LibXC Library


 Your calculation uses the libint2 library for the computation of 2-el integrals
 For citations please refer to: http://libint.valeyev.net

 Your ORCA version has been built with support for libXC version: 4.2.3
 For citations please refer to: https://tddft.org/programs/libxc/

 This ORCA versions uses:
   CBLAS   interface :  Fast vector & matrix operations
   LAPACKE interface :  Fast linear algebra routines
   SCALAPACK package :  Parallel linear algebra routines


----- Orbital basis set information -----
Your calculation utilizes the basis: cc-pVTZ 
       H, B-Ne : Obtained from the ccRepo (grant-hill.group.shef.ac.uk/ccrepo) Feb. 2017
                 T. H. Dunning, Jr., J. Chem. Phys. 90, 1007 (1989)
            He : Obtained from the ccRepo (grant-hill.group.shef.ac.uk/ccrepo) Feb. 2017
                 D. E. Woon, T. H. Dunning, Jr., J. Chem. Phys. 100, 2975 (1994)
  Li-Be, Na-Mg : Obtained from the ccRepo (grant-hill.group.shef.ac.uk/ccrepo) Feb. 2017
                 B. P. Prascher, D. E. Woon, K. A. Peterson, T. H. Dunning, Jr., A. K. Wilson, Theor. Chem. Acc. 128, 69 (2011)
         Al-Ar : Obtained from the ccRepo (grant-hill.group.shef.ac.uk/ccrepo) Feb. 2017
                 D. E. Woon, T. H. Dunning, Jr., J. Chem. Phys. 98, 1358 (1993)
            Ca : Obtained from the Peterson Research Group Website (tyr0.chem.wsu.edu/~kipeters) Feb. 2017
                 J. Koput, K. A. Peterson, J. Phys. Chem. 106, 9595 (2002)
         Sc-Zn : Obtained from the ccRepo (grant-hill.group.shef.ac.uk/ccrepo) Feb. 2017
                 N. B. Balabanov, K. A. Peterson, J. Chem. Phys. 123, 064107 (2005)
                 N. B. Balabanov, K. A. Peterson, J. Chem. Phys. 125, 074110 (2006)
         Ga-Kr : Obtained from the ccRepo (grant-hill.group.shef.ac.uk/ccrepo) Feb. 2017
                 A. K. Wilson, D. E. Woon, K. A. Peterson, T. H. Dunning, Jr., J. Chem. Phys. 110, 7667 (1999)
             Y : Obtained from the ccRepo (grant-hill.group.shef.ac.uk/ccrepo) Feb. 2017
                 K. A. Peterson, D. Figgen, M. Dolg, H. Stoll, J. Chem. Phys. 126, 124101 (2007)
        Ag, Au : Obtained from the Peterson Research Group Website (tyr0.chem.wsu.edu/~kipeters) Feb. 2017
                 K. A. Peterson, C. Puzzarini, Theor. Chem. Acc. 114, 283 (2005)

----- AuxC basis set information -----
Your calculation utilizes the auxiliary basis: cc-pVTZ/C 
  Obtained from the EMSL Basis Set Exchange (bse.pnl.gov) Feb. 2017
  H-He, B-F, Al-Ar, Ga-Kr : F. Weigend, A. Kohn, C. Hattig, J. Chem. Phys. 116, 3175 (2002)
             Li-Be, Na-Mg : C. Haettig, Phys. Chem. Chem. Phys. 7, 59 (2005)
                       Ne : C. Haettig, Phys. Chem. Chem. Phys. 7, 59 (2005)
                            F. Weigend, A. Kohn, C. Hattig, J. Chem. Phys. 116, 3175 (2002)
                    Sc-Zn : J. G. Hill, J. A. Platts, J. Chem. Phys. 128, 044104 (2008)

================================================================================
                                        WARNINGS
                       Please study these warnings very carefully!
================================================================================


WARNING: No MP2 level density has been requested!
         To caclulate MP2 level properties use
         %mp2 Density relaxed end
         or
         %mp2 Density unrelaxed end

WARNING: Post HF methods need fully converged wavefunctions
  ===> : Setting SCFConvForced true
         You can overwrite this default with %scf ConvForced false 


INFO   : the flag for use of LIBINT has been found!

================================================================================
                                       INPUT FILE
================================================================================
NAME = G2_CONFS/Conf26.orca
|  1> ! ri-mp2 cc-pvtz cc-pvtz/c TightSCF  NoKeepInts
|  2> 
|  3> %scf
|  4>   MaxCore 4096
|  5> end
|  6> *xyz  0  1
|  7>     C       16.0367132   12.9675895   16.1866333
|  8>     C       15.7389911   14.4219800   15.7782443
|  9>     O       16.1926659   15.2650742   16.8411556
| 10>     C       16.0524098   16.6207042   16.7453250
| 11>     O       15.2046865   17.1268648   16.0321363
| 12>     C       17.0323079   17.3479552   17.6217696
| 13>     C       16.9238383   18.7008054   17.7834287
| 14>     C       15.9626228   19.6518943   17.0953927
| 15>     N       18.0458643   19.3452851   18.3289162
| 16>     C       19.2029606   18.7792264   18.7899437
| 17>     S       20.3991838   19.7157549   19.4507534
| 18>     N       19.3034854   17.4137127   18.6848128
| 19>     C       18.2756730   16.5517053   18.0514560
| 20>     C       17.8647603   15.8923456   19.4051865
| 21>     C       17.9860787   14.4732209   19.4351805
| 22>     C       17.4541364   13.6841044   20.4620097
| 23>     C       16.7803044   14.3035388   21.5165313
| 24>     C       16.6355612   15.6982328   21.5178118
| 25>     O       15.9457945   16.2706415   22.5353563
| 26>     C       17.1537927   16.4901579   20.4728365
| 27>     H       17.1084947   12.7559963   16.0928184
| 28>     H       15.4894423   12.2666668   15.5446457
| 29>     H       15.7377913   12.7810110   17.2268327
| 30>     H       16.1577563   14.6816102   14.7993857
| 31>     H       14.6454930   14.5348784   15.7326516
| 32>     H       16.0109614   19.5214424   16.0036179
| 33>     H       16.1857192   20.7080036   17.2877870
| 34>     H       14.9295459   19.4552315   17.4001252
| 35>     H       18.0431744   20.3545519   18.3610675
| 36>     H       20.1299758   17.0203707   19.1161606
| 37>     H       18.4892992   15.6068474   17.5497476
| 38>     H       18.4472937   13.9362993   18.6096110
| 39>     H       17.5439060   12.5980844   20.4199542
| 40>     H       16.3596327   13.6952380   22.3123447
| 41>     H       15.7118591   15.5592685   23.1538018
| 42>     H       16.9648284   17.5557065   20.4885685
| 43> *
| 44> 
| 45>                          ****END OF INPUT****
================================================================================

                       ****************************
                       * Single Point Calculation *
                       ****************************

---------------------------------
CARTESIAN COORDINATES (ANGSTROEM)
---------------------------------
  C     16.036713   12.967589   16.186633
  C     15.738991   14.421980   15.778244
  O     16.192666   15.265074   16.841156
  C     16.052410   16.620704   16.745325
  O     15.204686   17.126865   16.032136
  C     17.032308   17.347955   17.621770
  C     16.923838   18.700805   17.783429
  C     15.962623   19.651894   17.095393
  N     18.045864   19.345285   18.328916
  C     19.202961   18.779226   18.789944
  S     20.399184   19.715755   19.450753
  N     19.303485   17.413713   18.684813
  C     18.275673   16.551705   18.051456
  C     17.864760   15.892346   19.405186
  C     17.986079   14.473221   19.435180
  C     17.454136   13.684104   20.462010
  C     16.780304   14.303539   21.516531
  C     16.635561   15.698233   21.517812
  O     15.945794   16.270641   22.535356
  C     17.153793   16.490158   20.472836
  H     17.108495   12.755996   16.092818
  H     15.489442   12.266667   15.544646
  H     15.737791   12.781011   17.226833
  H     16.157756   14.681610   14.799386
  H     14.645493   14.534878   15.732652
  H     16.010961   19.521442   16.003618
  H     16.185719   20.708004   17.287787
  H     14.929546   19.455232   17.400125
  H     18.043174   20.354552   18.361067
  H     20.129976   17.020371   19.116161
  H     18.489299   15.606847   17.549748
  H     18.447294   13.936299   18.609611
  H     17.543906   12.598084   20.419954
  H     16.359633   13.695238   22.312345
  H     15.711859   15.559268   23.153802
  H     16.964828   17.555706   20.488568

----------------------------
CARTESIAN COORDINATES (A.U.)
----------------------------
  NO LB      ZA    FRAG     MASS         X           Y           Z
   0 C     6.0000    0    12.011   30.304996   24.505193   30.588304
   1 C     6.0000    0    12.011   29.742383   27.253593   29.816561
   2 O     8.0000    0    15.999   30.599704   28.846810   31.825172
   3 C     6.0000    0    12.011   30.334658   31.408579   31.644078
   4 O     8.0000    0    15.999   28.732693   32.365084   30.296347
   5 C     6.0000    0    12.011   32.186397   32.782884   33.300319
   6 C     6.0000    0    12.011   31.981420   35.339401   33.605810
   7 C     6.0000    0    12.011   30.164985   37.136698   32.305610
   8 N     7.0000    0    14.007   34.101741   36.557291   34.636632
   9 C     6.0000    0    12.011   36.288336   35.487595   35.507848
  10 S    16.0000    0    32.060   38.548871   37.257377   36.756597
  11 N     7.0000    0    14.007   36.478301   32.907148   35.309179
  12 C     6.0000    0    12.011   34.536017   31.278190   34.112308
  13 C     6.0000    0    12.011   33.759504   30.032181   36.670488
  14 C     6.0000    0    12.011   33.988763   27.350424   36.727169
  15 C     6.0000    0    12.011   32.983538   25.859210   38.667594
  16 C     6.0000    0    12.011   31.710180   27.029771   40.660352
  17 C     6.0000    0    12.011   31.436655   29.665361   40.662771
  18 O     8.0000    0    15.999   30.133185   30.747056   42.585652
  19 C     6.0000    0    12.011   32.415970   31.161882   38.688054
  20 H     1.0000    0     1.008   32.330370   24.105340   30.411019
  21 H     1.0000    0     1.008   29.270804   23.180641   29.375123
  22 H     1.0000    0     1.008   29.740116   24.152611   32.553996
  23 H     1.0000    0     1.008   30.533734   27.744222   27.966786
  24 H     1.0000    0     1.008   27.675971   27.466940   29.730403
  25 H     1.0000    0     1.008   30.256332   36.890180   30.242455
  26 H     1.0000    0     1.008   30.586577   39.132456   32.669183
  27 H     1.0000    0     1.008   28.212753   36.765059   32.881471
  28 H     1.0000    0     1.008   34.096658   38.464529   34.697389
  29 H     1.0000    0     1.008   38.040141   32.163839   36.124308
  30 H     1.0000    0     1.008   34.939712   29.492667   33.164217
  31 H     1.0000    0     1.008   34.860333   26.335789   35.167068
  32 H     1.0000    0     1.008   33.153178   23.806929   38.588121
  33 H     1.0000    0     1.008   30.915225   25.880249   42.164221
  34 H     1.0000    0     1.008   29.691111   29.402756   43.754344
  35 H     1.0000    0     1.008   32.058880   33.175477   38.717783

--------------------------------
INTERNAL COORDINATES (ANGSTROEM)
--------------------------------
 C      0   0   0     0.000000000000     0.00000000     0.00000000
 C      1   0   0     1.539698590842     0.00000000     0.00000000
 O      2   1   0     1.430527555099   107.35574128     0.00000000
 C      3   2   1     1.366231303398   120.00737781   180.00000000
 O      4   3   2     1.217978435016   121.65970836    23.99700997
 C      4   3   2     1.502414536755   111.86524447   203.08402800
 C      6   4   3     1.366785638781   119.75924878   188.35418985
 C      7   6   4     1.517200998694   128.10617864   355.12800621
 N      7   6   4     1.404226848143   115.90060176   195.33901513
 C      9   7   6     1.368152277737   128.08168167   355.84035574
 S     10   9   7     1.656715133976   120.74265113   182.15645227
 N     10   9   7     1.373239020141   116.58498524     1.55981776
 C     12  10   9     1.483440569539   124.04090605     3.09918003
 C     13  12  10     1.560830140546    93.30089270   248.57670061
 C     14  13  12     1.424616688223   114.62354020   237.55732576
 C     15  14  13     1.400016309574   122.99464936   191.41611385
 C     16  15  14     1.396339623800   119.15741547   359.49175887
 C     17  16  15     1.402185289918   119.45546109     0.79034816
 O     18  17  16     1.356033417636   118.23297217   178.25576526
 C     18  17  16     1.409851988406   121.33802934     0.17871020
 H      1   2   3     1.096489170713   110.40137500   285.34083983
 H      1   2   3     1.096789017047   110.60494358   165.46529946
 H      1   2   3     1.098262550906   111.04248879    45.49809433
 H      2   1   3     1.095872388683   112.75665111   126.07276973
 H      2   1   3     1.100255805583   107.46319703   245.67593280
 H      8   7   6     1.100602804094   110.34828716   307.85314015
 H      8   7   6     1.096428029518   113.28669874   188.91099483
 H      8   7   6     1.094890878021   111.03653849    66.61395033
 H      9   7   6     1.009782360331   117.96698269   172.91094782
 H     12  10   9     1.011862260795   114.43750537   185.69470434
 H     13  12  10     1.090918843521   124.33024528   150.41670263
 H     15  14  13     1.087459921147   120.79512155     7.13911271
 H     16  15  14     1.090535046005   120.11606243   177.83174441
 H     17  16  15     1.086422344248   119.45003548   179.57742490
 H     19  18  17     0.971211693181   106.92760541     3.96947629
 H     20  18  17     1.082288695987   118.55928541   176.35797171

---------------------------
INTERNAL COORDINATES (A.U.)
---------------------------
 C      0   0   0     0.000000000000     0.00000000     0.00000000
 C      1   0   0     2.909608665475     0.00000000     0.00000000
 O      2   1   0     2.703305306164   107.35574128     0.00000000
 C      3   2   1     2.581802999012   120.00737781   180.00000000
 O      4   3   2     2.301645679201   121.65970836    23.99700997
 C      4   3   2     2.839152014090   111.86524447   203.08402800
 C      6   4   3     2.582850541072   119.75924878   188.35418985
 C      7   6   4     2.867094377644   128.10617864   355.12800621
 N      7   6   4     2.653604172889   115.90060176   195.33901513
 C      9   7   6     2.585433114423   128.08168167   355.84035574
 S     10   9   7     3.130737885137   120.74265113   182.15645227
 N     10   9   7     2.595045664481   116.58498524     1.55981776
 C     12  10   9     2.803296412377   124.04090605     3.09918003
 C     13  12  10     2.949541507201    93.30089270   248.57670061
 C     14  13  12     2.692135386556   114.62354020   237.55732576
 C     15  14  13     2.645647408119   122.99464936   191.41611385
 C     16  15  14     2.638699478925   119.15741547   359.49175887
 C     17  16  15     2.649746186958   119.45546109     0.79034816
 O     18  17  16     2.562531787777   118.23297217   178.25576526
 C     18  17  16     2.664234147452   121.33802934     0.17871020
 H      1   2   3     2.072064241458   110.40137500   285.34083983
 H      1   2   3     2.072630868912   110.60494358   165.46529946
 H      1   2   3     2.075415444354   111.04248879    45.49809433
 H      2   1   3     2.070898692336   112.75665111   126.07276973
 H      2   1   3     2.079182149809   107.46319703   245.67593280
 H      8   7   6     2.079837881963   110.34828716   307.85314015
 H      8   7   6     2.071948701343   113.28669874   188.91099483
 H      8   7   6     2.069043905988   111.03653849    66.61395033
 H      9   7   6     1.908212115890   117.96698269   172.91094782
 H     12  10   9     1.912142558153   114.43750537   185.69470434
 H     13  12  10     2.061537848589   124.33024528   150.41670263
 H     15  14  13     2.055001432584   120.79512155     7.13911271
 H     16  15  14     2.060812576392   120.11606243   177.83174441
 H     17  16  15     2.053040696401   119.45003548   179.57742490
 H     19  18  17     1.835324118175   106.92760541     3.96947629
 H     20  18  17     2.045229233253   118.55928541   176.35797171

---------------------
BASIS SET INFORMATION
---------------------
There are 5 groups of distinct atoms

 Group   1 Type C   : 18s5p2d1f contracted to 4s3p2d1f pattern {8811/311/11/1}
 Group   2 Type O   : 18s5p2d1f contracted to 4s3p2d1f pattern {8811/311/11/1}
 Group   3 Type N   : 18s5p2d1f contracted to 4s3p2d1f pattern {8811/311/11/1}
 Group   4 Type S   : 41s16p2d1f contracted to 5s4p2d1f pattern {13131311/7711/11/1}
 Group   5 Type H   : 5s2p1d contracted to 3s2p1d pattern {311/11/1}

Atom   0C    basis set group =>   1
Atom   1C    basis set group =>   1
Atom   2O    basis set group =>   2
Atom   3C    basis set group =>   1
Atom   4O    basis set group =>   2
Atom   5C    basis set group =>   1
Atom   6C    basis set group =>   1
Atom   7C    basis set group =>   1
Atom   8N    basis set group =>   3
Atom   9C    basis set group =>   1
Atom  10S    basis set group =>   4
Atom  11N    basis set group =>   3
Atom  12C    basis set group =>   1
Atom  13C    basis set group =>   1
Atom  14C    basis set group =>   1
Atom  15C    basis set group =>   1
Atom  16C    basis set group =>   1
Atom  17C    basis set group =>   1
Atom  18O    basis set group =>   2
Atom  19C    basis set group =>   1
Atom  20H    basis set group =>   5
Atom  21H    basis set group =>   5
Atom  22H    basis set group =>   5
Atom  23H    basis set group =>   5
Atom  24H    basis set group =>   5
Atom  25H    basis set group =>   5
Atom  26H    basis set group =>   5
Atom  27H    basis set group =>   5
Atom  28H    basis set group =>   5
Atom  29H    basis set group =>   5
Atom  30H    basis set group =>   5
Atom  31H    basis set group =>   5
Atom  32H    basis set group =>   5
Atom  33H    basis set group =>   5
Atom  34H    basis set group =>   5
Atom  35H    basis set group =>   5
---------------------------------
AUXILIARY/C BASIS SET INFORMATION
---------------------------------
There are 5 groups of distinct atoms

 Group   1 Type C   : 8s6p5d3f1g contracted to 8s6p5d3f1g pattern {11111111/111111/11111/111/1}
 Group   2 Type O   : 8s6p5d3f1g contracted to 8s6p5d3f1g pattern {11111111/111111/11111/111/1}
 Group   3 Type N   : 8s6p5d3f1g contracted to 8s6p5d3f1g pattern {11111111/111111/11111/111/1}
 Group   4 Type S   : 10s8p7d5f2g contracted to 10s8p7d5f2g pattern {1111111111/11111111/1111111/11111/11}
 Group   5 Type H   : 4s3p2d1f contracted to 4s3p2d1f pattern {1111/111/11/1}

Atom   0C    basis set group =>   1
Atom   1C    basis set group =>   1
Atom   2O    basis set group =>   2
Atom   3C    basis set group =>   1
Atom   4O    basis set group =>   2
Atom   5C    basis set group =>   1
Atom   6C    basis set group =>   1
Atom   7C    basis set group =>   1
Atom   8N    basis set group =>   3
Atom   9C    basis set group =>   1
Atom  10S    basis set group =>   4
Atom  11N    basis set group =>   3
Atom  12C    basis set group =>   1
Atom  13C    basis set group =>   1
Atom  14C    basis set group =>   1
Atom  15C    basis set group =>   1
Atom  16C    basis set group =>   1
Atom  17C    basis set group =>   1
Atom  18O    basis set group =>   2
Atom  19C    basis set group =>   1
Atom  20H    basis set group =>   5
Atom  21H    basis set group =>   5
Atom  22H    basis set group =>   5
Atom  23H    basis set group =>   5
Atom  24H    basis set group =>   5
Atom  25H    basis set group =>   5
Atom  26H    basis set group =>   5
Atom  27H    basis set group =>   5
Atom  28H    basis set group =>   5
Atom  29H    basis set group =>   5
Atom  30H    basis set group =>   5
Atom  31H    basis set group =>   5
Atom  32H    basis set group =>   5
Atom  33H    basis set group =>   5
Atom  34H    basis set group =>   5
Atom  35H    basis set group =>   5
------------------------------------------------------------------------------
                           ORCA GTO INTEGRAL CALCULATION
------------------------------------------------------------------------------

                         BASIS SET STATISTICS AND STARTUP INFO

 # of primitive gaussian shells          ...  682
 # of primitive gaussian functions       ... 1312
 # of contracted shells                  ...  298
 # of contracted basis functions         ...  828
 Highest angular momentum                ...    3
 Maximum contraction depth               ...   13
 Integral package used                   ... LIBINT
 Integral threshhold            Thresh   ...  2.500e-11
 Primitive cut-off              TCut     ...  2.500e-12


------------------------------ INTEGRAL EVALUATION ----------------------------


 * One electron integrals 
 Pre-screening matrix                    ... done
 Shell pair data                         ... done (   0.014 sec)

-------------------------------------------------------------------------------
                                 ORCA SCF
-------------------------------------------------------------------------------

------------
SCF SETTINGS
------------
Hamiltonian:
 Ab initio Hamiltonian  Method          .... Hartree-Fock(GTOs)


General Settings:
 Integral files         IntName         .... G2_CONFS/Conf26.orca
 Hartree-Fock type      HFTyp           .... RHF
 Total Charge           Charge          ....    0
 Multiplicity           Mult            ....    1
 Number of Electrons    NEL             ....  154
 Basis Dimension        Dim             ....  828
 Nuclear Repulsion      ENuc            ....   1703.6101104976 Eh

Convergence Acceleration:
 DIIS                   CNVDIIS         .... on
   Start iteration      DIISMaxIt       ....    12
   Startup error        DIISStart       ....  0.200000
   # of expansion vecs  DIISMaxEq       ....     5
   Bias factor          DIISBfac        ....   1.050
   Max. coefficient     DIISMaxC        ....  10.000
 Newton-Raphson         CNVNR           .... off
 SOSCF                  CNVSOSCF        .... on
   Start iteration      SOSCFMaxIt      ....   150
   Startup grad/error   SOSCFStart      ....  0.003300
 Level Shifting         CNVShift        .... on
   Level shift para.    LevelShift      ....    0.2500
   Turn off err/grad.   ShiftErr        ....    0.0010
 Zerner damping         CNVZerner       .... off
 Static damping         CNVDamp         .... on
   Fraction old density DampFac         ....    0.7000
   Max. Damping (<1)    DampMax         ....    0.9800
   Min. Damping (>=0)   DampMin         ....    0.0000
   Turn off err/grad.   DampErr         ....    0.1000
 Fernandez-Rico         CNVRico         .... off

SCF Procedure:
 Maximum # iterations   MaxIter         ....   125
 SCF integral mode      SCFMode         .... Direct
   Integral package                     .... LIBINT
 Reset frequency        DirectResetFreq ....    20
 Integral Threshold     Thresh          ....  2.500e-11 Eh
 Primitive CutOff       TCut            ....  2.500e-12 Eh

Convergence Tolerance:
 Convergence Check Mode ConvCheckMode   .... Total+1el-Energy
 Convergence forced     ConvForced      .... 1
 Energy Change          TolE            ....  1.000e-08 Eh
 1-El. energy change                    ....  1.000e-05 Eh
 Orbital Gradient       TolG            ....  1.000e-05
 Orbital Rotation angle TolX            ....  1.000e-05
 DIIS Error             TolErr          ....  5.000e-07


Diagonalization of the overlap matrix:
Smallest eigenvalue                        ... 3.413e-05
Time for diagonalization                   ...    0.122 sec
Threshold for overlap eigenvalues          ... 1.000e-08
Number of eigenvalues below threshold      ... 0
Time for construction of square roots      ...    0.159 sec
Total time needed                          ...    0.284 sec

-------------------
DFT GRID GENERATION
-------------------

General Integration Accuracy     IntAcc      ...  4.340
Radial Grid Type                 RadialGrid  ... Gauss-Chebyshev
Angular Grid (max. acc.)         AngularGrid ... Lebedev-110
Angular grid pruning method      GridPruning ... 3 (G Style)
Weight generation scheme         WeightScheme... Becke
Basis function cutoff            BFCut       ...    1.0000e-11
Integration weight cutoff        WCut        ...    1.0000e-14
Grids for H and He will be reduced by one unit

# of grid points (after initial pruning)     ...  46246 (   0.0 sec)
# of grid points (after weights+screening)   ...  41324 (   0.3 sec)
nearest neighbour list constructed           ...    0.0 sec
Grid point re-assignment to atoms done       ...    0.0 sec
Grid point division into batches done        ...    0.0 sec
Reduced shell lists constructed in    1.0 sec

Total number of grid points                  ...    41324
Total number of batches                      ...      663
Average number of points per batch           ...       62
Average number of grid points per atom       ...     1148
Average number of shells per batch           ...   147.55 (49.51%)
Average number of basis functions per batch  ...   374.96 (45.28%)
Average number of large shells per batch     ...    94.43 (64.00%)
Average number of large basis fcns per batch ...   243.37 (64.90%)
Maximum spatial batch extension              ...  20.31, 22.19, 20.41 au
Average spatial batch extension              ...   3.61,  3.32,  3.53 au

Time for grid setup =    1.295 sec

------------------------------
INITIAL GUESS: MODEL POTENTIAL
------------------------------
Loading Hartree-Fock densities                     ... done
Calculating cut-offs                               ... done
Setting up the integral package                    ... done
Initializing the effective Hamiltonian             ... done
Starting the Coulomb interaction                   ... done (   3.2 sec)
Reading the grid                                   ... done
Mapping shells                                     ... done
Starting the XC term evaluation                    ... done (   1.4 sec)
Transforming the Hamiltonian                       ... done (   0.1 sec)
Diagonalizing the Hamiltonian                      ... done (   0.1 sec)
Back transforming the eigenvectors                 ... done (   0.0 sec)
Now organizing SCF variables                       ... done
                      ------------------
                      INITIAL GUESS DONE (   6.3 sec)
                      ------------------
--------------
SCF ITERATIONS
--------------
ITER       Energy         Delta-E        Max-DP      RMS-DP      [F,P]     Damp
               ***  Starting incremental Fock matrix formation  ***
  0  -1269.9543155112   0.000000000000 0.04934797  0.00043886  0.3051273 0.7000
  1  -1270.2229498777  -0.268634366464 0.03609967  0.00035617  0.1795738 0.7000
                               ***Turning on DIIS***
  2  -1270.3901406856  -0.167190807879 0.02584738  0.00024063  0.1096616 0.7000
  3  -1272.5026269368  -2.112486251284 0.06313421  0.00052008  0.0829415 0.0000
  4  -1270.7015408153   1.801086121505 0.00701303  0.00009341  0.0077064 0.0000
  5  -1270.7605834384  -0.059042623035 0.00309194  0.00004966  0.0047297 0.0000
                      *** Initiating the SOSCF procedure ***
                           *** Shutting down DIIS ***
                      *** Re-Reading the Fockian *** 
                      *** Removing any level shift *** 
ITER      Energy       Delta-E        Grad      Rot      Max-DP    RMS-DP
  6  -1270.73871326   0.0218701748  0.001514  0.001514  0.001653  0.000025
               *** Restarting incremental Fock matrix formation ***
  7  -1270.75337453  -0.0146612616  0.000774  0.001892  0.001236  0.000016
  8  -1270.75342410  -0.0000495775  0.000332  0.002116  0.001361  0.000017
  9  -1270.75344248  -0.0000183817  0.000163  0.000428  0.000335  0.000004
 10  -1270.75344490  -0.0000024129  0.000048  0.000150  0.000130  0.000002
 11  -1270.75344514  -0.0000002419  0.000029  0.000138  0.000109  0.000001
 12  -1270.75344522  -0.0000000806  0.000008  0.000040  0.000038  0.000000
 13  -1270.75344523  -0.0000000055  0.000003  0.000013  0.000008  0.000000
                  ***Gradient check signals convergence***
              ***Rediagonalizing the Fockian in SOSCF/NRSCF***

               *****************************************************
               *                     SUCCESS                       *
               *           SCF CONVERGED AFTER  14 CYCLES          *
               *****************************************************


----------------
TOTAL SCF ENERGY
----------------

Total Energy       :        -1270.75344522 Eh          -34578.95920 eV

Components:
Nuclear Repulsion  :         1703.61011050 Eh           46357.58788 eV
Electronic Energy  :        -2974.36355572 Eh          -80936.54709 eV
One Electron Energy:        -5128.40957593 Eh         -139551.11920 eV
Two Electron Energy:         2154.04602021 Eh           58614.57212 eV

Virial components:
Potential Energy   :        -2539.65021620 Eh          -69107.39573 eV
Kinetic Energy     :         1268.89677098 Eh           34528.43653 eV
Virial Ratio       :            2.00146322


---------------
SCF CONVERGENCE
---------------

  Last Energy change         ...    7.2905e-09  Tolerance :   1.0000e-08
  Last MAX-Density change    ...    2.7031e-06  Tolerance :   1.0000e-07
  Last RMS-Density change    ...    3.4491e-08  Tolerance :   5.0000e-09
  Last Orbital Gradient      ...    1.3444e-06  Tolerance :   1.0000e-05
  Last Orbital Rotation      ...    3.3052e-06  Tolerance :   1.0000e-05

             **** THE GBW FILE WAS UPDATED (G2_CONFS/Conf26.orca.gbw) ****
             **** DENSITY FILE WAS UPDATED (G2_CONFS/Conf26.orca.scfp) ****
             **** ENERGY FILE WAS UPDATED (G2_CONFS/Conf26.orca.en.tmp) ****
             **** THE GBW FILE WAS UPDATED (G2_CONFS/Conf26.orca.gbw) ****
             **** DENSITY FILE WAS UPDATED (G2_CONFS/Conf26.orca.scfp) ****
----------------
ORBITAL ENERGIES
----------------

  NO   OCC          E(Eh)            E(eV) 
   0   2.0000     -91.890024     -2500.4547 
   1   2.0000     -20.600761      -560.5752 
   2   2.0000     -20.591867      -560.3332 
   3   2.0000     -20.545041      -559.0590 
   4   2.0000     -15.626809      -425.2271 
   5   2.0000     -15.613433      -424.8631 
   6   2.0000     -11.394743      -310.0667 
   7   2.0000     -11.385465      -309.8143 
   8   2.0000     -11.339932      -308.5752 
   9   2.0000     -11.318774      -307.9995 
  10   2.0000     -11.311219      -307.7939 
  11   2.0000     -11.298617      -307.4510 
  12   2.0000     -11.265809      -306.5582 
  13   2.0000     -11.258724      -306.3655 
  14   2.0000     -11.256624      -306.3083 
  15   2.0000     -11.248013      -306.0740 
  16   2.0000     -11.236276      -305.7546 
  17   2.0000     -11.235222      -305.7259 
  18   2.0000     -11.233992      -305.6925 
  19   2.0000     -11.230436      -305.5957 
  20   2.0000      -8.894938      -242.0436 
  21   2.0000      -6.576499      -178.9556 
  22   2.0000      -6.574496      -178.9011 
  23   2.0000      -6.573914      -178.8853 
  24   2.0000      -1.455369       -39.6026 
  25   2.0000      -1.412000       -38.4225 
  26   2.0000      -1.357887       -36.9500 
  27   2.0000      -1.340040       -36.4643 
  28   2.0000      -1.241821       -33.7917 
  29   2.0000      -1.152252       -31.3544 
  30   2.0000      -1.119757       -30.4701 
  31   2.0000      -1.044584       -28.4246 
  32   2.0000      -1.039277       -28.2802 
  33   2.0000      -1.009481       -27.4694 
  34   2.0000      -0.995782       -27.0966 
  35   2.0000      -0.982224       -26.7277 
  36   2.0000      -0.925414       -25.1818 
  37   2.0000      -0.890474       -24.2310 
  38   2.0000      -0.850248       -23.1364 
  39   2.0000      -0.831179       -22.6175 
  40   2.0000      -0.827578       -22.5195 
  41   2.0000      -0.817967       -22.2580 
  42   2.0000      -0.765164       -20.8212 
  43   2.0000      -0.726929       -19.7807 
  44   2.0000      -0.721132       -19.6230 
  45   2.0000      -0.696463       -18.9517 
  46   2.0000      -0.691177       -18.8079 
  47   2.0000      -0.682016       -18.5586 
  48   2.0000      -0.677925       -18.4473 
  49   2.0000      -0.659613       -17.9490 
  50   2.0000      -0.650872       -17.7111 
  51   2.0000      -0.645586       -17.5673 
  52   2.0000      -0.633972       -17.2513 
  53   2.0000      -0.603357       -16.4182 
  54   2.0000      -0.598696       -16.2914 
  55   2.0000      -0.593953       -16.1623 
  56   2.0000      -0.591083       -16.0842 
  57   2.0000      -0.577652       -15.7187 
  58   2.0000      -0.571153       -15.5419 
  59   2.0000      -0.566938       -15.4272 
  60   2.0000      -0.553699       -15.0669 
  61   2.0000      -0.552410       -15.0318 
  62   2.0000      -0.548387       -14.9224 
  63   2.0000      -0.524703       -14.2779 
  64   2.0000      -0.517699       -14.0873 
  65   2.0000      -0.512169       -13.9368 
  66   2.0000      -0.506389       -13.7795 
  67   2.0000      -0.499596       -13.5947 
  68   2.0000      -0.486960       -13.2508 
  69   2.0000      -0.459792       -12.5116 
  70   2.0000      -0.455019       -12.3817 
  71   2.0000      -0.449996       -12.2450 
  72   2.0000      -0.346370        -9.4252 
  73   2.0000      -0.344028        -9.3615 
  74   2.0000      -0.328170        -8.9299 
  75   2.0000      -0.315780        -8.5928 
  76   2.0000      -0.308986        -8.4079 
  77   0.0000       0.065818         1.7910 
  78   0.0000       0.111553         3.0355 
  79   0.0000       0.123904         3.3716 
  80   0.0000       0.131890         3.5889 
  81   0.0000       0.138119         3.7584 
  82   0.0000       0.143921         3.9163 
  83   0.0000       0.152442         4.1482 
  84   0.0000       0.156448         4.2572 
  85   0.0000       0.166432         4.5288 
  86   0.0000       0.171749         4.6735 
  87   0.0000       0.180061         4.8997 
  88   0.0000       0.185050         5.0355 
  89   0.0000       0.197144         5.3645 
  90   0.0000       0.209131         5.6907 
  91   0.0000       0.209989         5.7141 
  92   0.0000       0.212317         5.7774 
  93   0.0000       0.219291         5.9672 
  94   0.0000       0.224307         6.1037 
  95   0.0000       0.236262         6.4290 
  96   0.0000       0.238635         6.4936 
  97   0.0000       0.244636         6.6569 
  98   0.0000       0.262125         7.1328 
  99   0.0000       0.274473         7.4688 
 100   0.0000       0.285905         7.7799 
 101   0.0000       0.297177         8.0866 
 102   0.0000       0.307453         8.3662 
 103   0.0000       0.315297         8.5797 
 104   0.0000       0.321245         8.7415 
 105   0.0000       0.330914         9.0046 
 106   0.0000       0.333496         9.0749 
 107   0.0000       0.355170         9.6647 
 108   0.0000       0.359296         9.7769 
 109   0.0000       0.366964         9.9856 
 110   0.0000       0.369036        10.0420 
 111   0.0000       0.384950        10.4750 
 112   0.0000       0.385742        10.4966 
 113   0.0000       0.390815        10.6346 
 114   0.0000       0.397243        10.8095 
 115   0.0000       0.406908        11.0725 
 116   0.0000       0.420995        11.4558 
 117   0.0000       0.421814        11.4781 
 118   0.0000       0.429780        11.6949 
 119   0.0000       0.434818        11.8320 
 120   0.0000       0.439070        11.9477 
 121   0.0000       0.450668        12.2633 
 122   0.0000       0.455413        12.3924 
 123   0.0000       0.463346        12.6083 
 124   0.0000       0.466511        12.6944 
 125   0.0000       0.468162        12.7393 
 126   0.0000       0.476457        12.9650 
 127   0.0000       0.479174        13.0390 
 128   0.0000       0.480310        13.0699 
 129   0.0000       0.491935        13.3862 
 130   0.0000       0.499135        13.5822 
 131   0.0000       0.505378        13.7520 
 132   0.0000       0.507545        13.8110 
 133   0.0000       0.518153        14.0997 
 134   0.0000       0.522874        14.2281 
 135   0.0000       0.526504        14.3269 
 136   0.0000       0.528449        14.3798 
 137   0.0000       0.539555        14.6820 
 138   0.0000       0.542392        14.7592 
 139   0.0000       0.548358        14.9216 
 140   0.0000       0.553748        15.0683 
 141   0.0000       0.557191        15.1619 
 142   0.0000       0.562758        15.3134 
 143   0.0000       0.569301        15.4915 
 144   0.0000       0.573980        15.6188 
 145   0.0000       0.576326        15.6826 
 146   0.0000       0.584622        15.9084 
 147   0.0000       0.589454        16.0399 
 148   0.0000       0.595677        16.2092 
 149   0.0000       0.599043        16.3008 
 150   0.0000       0.606781        16.5114 
 151   0.0000       0.609305        16.5800 
 152   0.0000       0.613885        16.7047 
 153   0.0000       0.619546        16.8587 
 154   0.0000       0.621292        16.9062 
 155   0.0000       0.627661        17.0795 
 156   0.0000       0.631681        17.1889 
 157   0.0000       0.634652        17.2698 
 158   0.0000       0.636432        17.3182 
 159   0.0000       0.644147        17.5281 
 160   0.0000       0.648437        17.6449 
 161   0.0000       0.649508        17.6740 
 162   0.0000       0.657571        17.8934 
 163   0.0000       0.658406        17.9161 
 164   0.0000       0.660661        17.9775 
 165   0.0000       0.668650        18.1949 
 166   0.0000       0.673444        18.3253 
 167   0.0000       0.678916        18.4742 
 168   0.0000       0.685220        18.6458 
 169   0.0000       0.692693        18.8491 
 170   0.0000       0.697413        18.9776 
 171   0.0000       0.702307        19.1107 
 172   0.0000       0.709533        19.3074 
 173   0.0000       0.718428        19.5494 
 174   0.0000       0.727498        19.7962 
 175   0.0000       0.737218        20.0607 
 176   0.0000       0.738206        20.0876 
 177   0.0000       0.746839        20.3225 
 178   0.0000       0.753346        20.4996 
 179   0.0000       0.758906        20.6509 
 180   0.0000       0.760795        20.7023 
 181   0.0000       0.770429        20.9644 
 182   0.0000       0.780780        21.2461 
 183   0.0000       0.787629        21.4325 
 184   0.0000       0.795391        21.6437 
 185   0.0000       0.805332        21.9142 
 186   0.0000       0.816094        22.2070 
 187   0.0000       0.823652        22.4127 
 188   0.0000       0.832102        22.6426 
 189   0.0000       0.837532        22.7904 
 190   0.0000       0.845879        23.0175 
 191   0.0000       0.851614        23.1736 
 192   0.0000       0.855105        23.2686 
 193   0.0000       0.861068        23.4309 
 194   0.0000       0.872497        23.7419 
 195   0.0000       0.876883        23.8612 
 196   0.0000       0.882621        24.0173 
 197   0.0000       0.888044        24.1649 
 198   0.0000       0.891144        24.2493 
 199   0.0000       0.900030        24.4911 
 200   0.0000       0.904214        24.6049 
 201   0.0000       0.909525        24.7494 
 202   0.0000       0.919495        25.0207 
 203   0.0000       0.932130        25.3645 
 204   0.0000       0.938877        25.5481 
 205   0.0000       0.947367        25.7792 
 206   0.0000       0.951490        25.8913 
 207   0.0000       0.958522        26.0827 
 208   0.0000       0.974172        26.5086 
 209   0.0000       0.977594        26.6017 
 210   0.0000       0.985048        26.8045 
 211   0.0000       0.989538        26.9267 
 212   0.0000       0.996640        27.1199 
 213   0.0000       1.006536        27.3892 
 214   0.0000       1.008989        27.4560 
 215   0.0000       1.014606        27.6088 
 216   0.0000       1.026281        27.9265 
 217   0.0000       1.033728        28.1292 
 218   0.0000       1.037583        28.2341 
 219   0.0000       1.046621        28.4800 
 220   0.0000       1.050615        28.5887 
 221   0.0000       1.060087        28.8464 
 222   0.0000       1.065645        28.9977 
 223   0.0000       1.071850        29.1665 
 224   0.0000       1.079751        29.3815 
 225   0.0000       1.086410        29.5627 
 226   0.0000       1.097039        29.8519 
 227   0.0000       1.098862        29.9016 
 228   0.0000       1.118684        30.4409 
 229   0.0000       1.122214        30.5370 
 230   0.0000       1.123496        30.5719 
 231   0.0000       1.133995        30.8576 
 232   0.0000       1.137418        30.9507 
 233   0.0000       1.143671        31.1209 
 234   0.0000       1.148945        31.2644 
 235   0.0000       1.156857        31.4797 
 236   0.0000       1.160046        31.5665 
 237   0.0000       1.170356        31.8470 
 238   0.0000       1.182842        32.1868 
 239   0.0000       1.190961        32.4077 
 240   0.0000       1.196381        32.5552 
 241   0.0000       1.205919        32.8147 
 242   0.0000       1.211313        32.9615 
 243   0.0000       1.215076        33.0639 
 244   0.0000       1.223276        33.2870 
 245   0.0000       1.231588        33.5132 
 246   0.0000       1.234511        33.5928 
 247   0.0000       1.242659        33.8145 
 248   0.0000       1.248830        33.9824 
 249   0.0000       1.252748        34.0890 
 250   0.0000       1.259971        34.2856 
 251   0.0000       1.266631        34.4668 
 252   0.0000       1.269753        34.5517 
 253   0.0000       1.277291        34.7569 
 254   0.0000       1.283568        34.9277 
 255   0.0000       1.294957        35.2376 
 256   0.0000       1.301913        35.4269 
 257   0.0000       1.313625        35.7456 
 258   0.0000       1.324527        36.0422 
 259   0.0000       1.337419        36.3930 
 260   0.0000       1.338099        36.4115 
 261   0.0000       1.346904        36.6511 
 262   0.0000       1.356484        36.9118 
 263   0.0000       1.364106        37.1192 
 264   0.0000       1.370094        37.2821 
 265   0.0000       1.371905        37.3314 
 266   0.0000       1.392549        37.8932 
 267   0.0000       1.394970        37.9591 
 268   0.0000       1.407496        38.2999 
 269   0.0000       1.415391        38.5148 
 270   0.0000       1.419490        38.6263 
 271   0.0000       1.427875        38.8545 
 272   0.0000       1.436872        39.0993 
 273   0.0000       1.441686        39.2303 
 274   0.0000       1.444438        39.3052 
 275   0.0000       1.462148        39.7871 
 276   0.0000       1.467873        39.9428 
 277   0.0000       1.470130        40.0043 
 278   0.0000       1.481613        40.3167 
 279   0.0000       1.488879        40.5144 
 280   0.0000       1.494070        40.6557 
 281   0.0000       1.498092        40.7652 
 282   0.0000       1.501482        40.8574 
 283   0.0000       1.503219        40.9047 
 284   0.0000       1.512057        41.1452 
 285   0.0000       1.522029        41.4165 
 286   0.0000       1.529850        41.6293 
 287   0.0000       1.533673        41.7334 
 288   0.0000       1.537329        41.8328 
 289   0.0000       1.549152        42.1546 
 290   0.0000       1.553836        42.2820 
 291   0.0000       1.559694        42.4414 
 292   0.0000       1.575868        42.8816 
 293   0.0000       1.583369        43.0857 
 294   0.0000       1.592536        43.3351 
 295   0.0000       1.596396        43.4401 
 296   0.0000       1.602935        43.6181 
 297   0.0000       1.612823        43.8871 
 298   0.0000       1.622190        44.1420 
 299   0.0000       1.630722        44.3742 
 300   0.0000       1.635911        44.5154 
 301   0.0000       1.639345        44.6088 
 302   0.0000       1.649284        44.8793 
 303   0.0000       1.651695        44.9449 
 304   0.0000       1.661669        45.2163 
 305   0.0000       1.668922        45.4137 
 306   0.0000       1.677796        45.6552 
 307   0.0000       1.684228        45.8302 
 308   0.0000       1.693177        46.0737 
 309   0.0000       1.706477        46.4356 
 310   0.0000       1.713953        46.6390 
 311   0.0000       1.715649        46.6852 
 312   0.0000       1.724737        46.9325 
 313   0.0000       1.744478        47.4697 
 314   0.0000       1.754059        47.7304 
 315   0.0000       1.764207        48.0065 
 316   0.0000       1.771644        48.2089 
 317   0.0000       1.778786        48.4032 
 318   0.0000       1.787218        48.6327 
 319   0.0000       1.792496        48.7763 
 320   0.0000       1.803665        49.0802 
 321   0.0000       1.806825        49.1662 
 322   0.0000       1.827873        49.7390 
 323   0.0000       1.831980        49.8507 
 324   0.0000       1.841934        50.1216 
 325   0.0000       1.863654        50.7126 
 326   0.0000       1.864042        50.7232 
 327   0.0000       1.884352        51.2758 
 328   0.0000       1.900076        51.7037 
 329   0.0000       1.911814        52.0231 
 330   0.0000       1.927914        52.4612 
 331   0.0000       1.934388        52.6374 
 332   0.0000       1.942961        52.8707 
 333   0.0000       1.960440        53.3463 
 334   0.0000       1.965030        53.4712 
 335   0.0000       1.975629        53.7596 
 336   0.0000       1.980058        53.8801 
 337   0.0000       1.989716        54.1429 
 338   0.0000       2.005913        54.5837 
 339   0.0000       2.017627        54.9024 
 340   0.0000       2.027986        55.1843 
 341   0.0000       2.034139        55.3517 
 342   0.0000       2.054364        55.9021 
 343   0.0000       2.064957        56.1903 
 344   0.0000       2.086367        56.7729 
 345   0.0000       2.112646        57.4880 
 346   0.0000       2.129668        57.9512 
 347   0.0000       2.142405        58.2978 
 348   0.0000       2.162706        58.8502 
 349   0.0000       2.178378        59.2767 
 350   0.0000       2.182451        59.3875 
 351   0.0000       2.199878        59.8617 
 352   0.0000       2.220222        60.4153 
 353   0.0000       2.223339        60.5001 
 354   0.0000       2.233893        60.7873 
 355   0.0000       2.251552        61.2679 
 356   0.0000       2.282268        62.1037 
 357   0.0000       2.286598        62.2215 
 358   0.0000       2.288506        62.2734 
 359   0.0000       2.304920        62.7201 
 360   0.0000       2.318288        63.0838 
 361   0.0000       2.329764        63.3961 
 362   0.0000       2.344216        63.7893 
 363   0.0000       2.354364        64.0655 
 364   0.0000       2.365925        64.3801 
 365   0.0000       2.371652        64.5359 
 366   0.0000       2.378435        64.7205 
 367   0.0000       2.382717        64.8370 
 368   0.0000       2.405133        65.4470 
 369   0.0000       2.429139        66.1002 
 370   0.0000       2.434995        66.2596 
 371   0.0000       2.455866        66.8275 
 372   0.0000       2.471473        67.2522 
 373   0.0000       2.481685        67.5301 
 374   0.0000       2.488011        67.7022 
 375   0.0000       2.497977        67.9734 
 376   0.0000       2.514218        68.4154 
 377   0.0000       2.521773        68.6209 
 378   0.0000       2.528378        68.8007 
 379   0.0000       2.538147        69.0665 
 380   0.0000       2.549642        69.3793 
 381   0.0000       2.564546        69.7848 
 382   0.0000       2.581367        70.2426 
 383   0.0000       2.597461        70.6805 
 384   0.0000       2.602470        70.8168 
 385   0.0000       2.607308        70.9485 
 386   0.0000       2.633006        71.6477 
 387   0.0000       2.639173        71.8155 
 388   0.0000       2.646655        72.0191 
 389   0.0000       2.667886        72.5969 
 390   0.0000       2.674452        72.7755 
 391   0.0000       2.682124        72.9843 
 392   0.0000       2.690965        73.2249 
 393   0.0000       2.706971        73.6604 
 394   0.0000       2.722891        74.0936 
 395   0.0000       2.728260        74.2397 
 396   0.0000       2.732182        74.3465 
 397   0.0000       2.744423        74.6795 
 398   0.0000       2.746228        74.7287 
 399   0.0000       2.760731        75.1233 
 400   0.0000       2.768652        75.3388 
 401   0.0000       2.781215        75.6807 
 402   0.0000       2.793449        76.0136 
 403   0.0000       2.797117        76.1134 
 404   0.0000       2.804924        76.3259 
 405   0.0000       2.815219        76.6060 
 406   0.0000       2.828034        76.9547 
 407   0.0000       2.843373        77.3721 
 408   0.0000       2.853170        77.6387 
 409   0.0000       2.869908        78.0942 
 410   0.0000       2.874749        78.2259 
 411   0.0000       2.879452        78.3539 
 412   0.0000       2.884233        78.4840 
 413   0.0000       2.903608        79.0112 
 414   0.0000       2.913506        79.2805 
 415   0.0000       2.922332        79.5207 
 416   0.0000       2.926693        79.6394 
 417   0.0000       2.937049        79.9212 
 418   0.0000       2.942082        80.0581 
 419   0.0000       2.946472        80.1776 
 420   0.0000       2.959944        80.5442 
 421   0.0000       2.973153        80.9036 
 422   0.0000       2.979590        81.0788 
 423   0.0000       2.988194        81.3129 
 424   0.0000       2.990134        81.3657 
 425   0.0000       3.007071        81.8266 
 426   0.0000       3.019478        82.1642 
 427   0.0000       3.023781        82.2813 
 428   0.0000       3.025025        82.3151 
 429   0.0000       3.038069        82.6701 
 430   0.0000       3.043472        82.8171 
 431   0.0000       3.053818        83.0986 
 432   0.0000       3.062969        83.3476 
 433   0.0000       3.069163        83.5162 
 434   0.0000       3.081931        83.8636 
 435   0.0000       3.088074        84.0308 
 436   0.0000       3.097521        84.2878 
 437   0.0000       3.100940        84.3809 
 438   0.0000       3.102041        84.4108 
 439   0.0000       3.108338        84.5822 
 440   0.0000       3.121180        84.9316 
 441   0.0000       3.126813        85.0849 
 442   0.0000       3.130658        85.1895 
 443   0.0000       3.134450        85.2927 
 444   0.0000       3.146241        85.6136 
 445   0.0000       3.149883        85.7127 
 446   0.0000       3.156835        85.9018 
 447   0.0000       3.173109        86.3447 
 448   0.0000       3.176324        86.4322 
 449   0.0000       3.183177        86.6187 
 450   0.0000       3.191927        86.8567 
 451   0.0000       3.195948        86.9662 
 452   0.0000       3.204956        87.2113 
 453   0.0000       3.210335        87.3576 
 454   0.0000       3.222174        87.6798 
 455   0.0000       3.236047        88.0573 
 456   0.0000       3.245024        88.3016 
 457   0.0000       3.252038        88.4924 
 458   0.0000       3.257261        88.6346 
 459   0.0000       3.258234        88.6610 
 460   0.0000       3.268508        88.9406 
 461   0.0000       3.276724        89.1642 
 462   0.0000       3.284511        89.3761 
 463   0.0000       3.285823        89.4118 
 464   0.0000       3.291309        89.5611 
 465   0.0000       3.300694        89.8165 
 466   0.0000       3.311095        90.0995 
 467   0.0000       3.314190        90.1837 
 468   0.0000       3.324522        90.4648 
 469   0.0000       3.330346        90.6233 
 470   0.0000       3.334235        90.7292 
 471   0.0000       3.338648        90.8492 
 472   0.0000       3.350512        91.1721 
 473   0.0000       3.354151        91.2711 
 474   0.0000       3.358176        91.3806 
 475   0.0000       3.368513        91.6619 
 476   0.0000       3.372598        91.7730 
 477   0.0000       3.374258        91.8182 
 478   0.0000       3.379625        91.9643 
 479   0.0000       3.386627        92.1548 
 480   0.0000       3.391172        92.2785 
 481   0.0000       3.399384        92.5019 
 482   0.0000       3.401844        92.5689 
 483   0.0000       3.407601        92.7255 
 484   0.0000       3.409884        92.7877 
 485   0.0000       3.418046        93.0098 
 486   0.0000       3.424575        93.1874 
 487   0.0000       3.427279        93.2610 
 488   0.0000       3.431812        93.3844 
 489   0.0000       3.442737        93.6816 
 490   0.0000       3.448981        93.8515 
 491   0.0000       3.452292        93.9416 
 492   0.0000       3.457638        94.0871 
 493   0.0000       3.459436        94.1360 
 494   0.0000       3.465622        94.3044 
 495   0.0000       3.477632        94.6312 
 496   0.0000       3.481413        94.7341 
 497   0.0000       3.486424        94.8704 
 498   0.0000       3.490442        94.9798 
 499   0.0000       3.501821        95.2894 
 500   0.0000       3.509187        95.4898 
 501   0.0000       3.523273        95.8731 
 502   0.0000       3.527923        95.9997 
 503   0.0000       3.531027        96.0841 
 504   0.0000       3.546966        96.5178 
 505   0.0000       3.552952        96.6807 
 506   0.0000       3.563803        96.9760 
 507   0.0000       3.570696        97.1636 
 508   0.0000       3.572721        97.2187 
 509   0.0000       3.579222        97.3956 
 510   0.0000       3.593346        97.7799 
 511   0.0000       3.596130        97.8557 
 512   0.0000       3.607381        98.1618 
 513   0.0000       3.609203        98.2114 
 514   0.0000       3.612636        98.3048 
 515   0.0000       3.621588        98.5484 
 516   0.0000       3.629575        98.7658 
 517   0.0000       3.631989        98.8314 
 518   0.0000       3.639627        99.0393 
 519   0.0000       3.643029        99.1319 
 520   0.0000       3.653417        99.4145 
 521   0.0000       3.657944        99.5377 
 522   0.0000       3.661524        99.6351 
 523   0.0000       3.667776        99.8053 
 524   0.0000       3.680428       100.1495 
 525   0.0000       3.684577       100.2624 
 526   0.0000       3.691619       100.4540 
 527   0.0000       3.698600       100.6440 
 528   0.0000       3.706748       100.8657 
 529   0.0000       3.707560       100.8878 
 530   0.0000       3.714292       101.0710 
 531   0.0000       3.721222       101.2596 
 532   0.0000       3.732631       101.5701 
 533   0.0000       3.735564       101.6499 
 534   0.0000       3.739795       101.7650 
 535   0.0000       3.747480       101.9741 
 536   0.0000       3.752541       102.1118 
 537   0.0000       3.755171       102.1834 
 538   0.0000       3.768485       102.5457 
 539   0.0000       3.771051       102.6155 
 540   0.0000       3.776777       102.7713 
 541   0.0000       3.783332       102.9497 
 542   0.0000       3.788053       103.0782 
 543   0.0000       3.801616       103.4472 
 544   0.0000       3.808440       103.6329 
 545   0.0000       3.811625       103.7196 
 546   0.0000       3.819738       103.9404 
 547   0.0000       3.823862       104.0526 
 548   0.0000       3.834684       104.3471 
 549   0.0000       3.842476       104.5591 
 550   0.0000       3.846185       104.6600 
 551   0.0000       3.856529       104.9415 
 552   0.0000       3.860510       105.0498 
 553   0.0000       3.866228       105.2054 
 554   0.0000       3.883066       105.6636 
 555   0.0000       3.894729       105.9810 
 556   0.0000       3.900394       106.1351 
 557   0.0000       3.904876       106.2571 
 558   0.0000       3.924359       106.7872 
 559   0.0000       3.926984       106.8587 
 560   0.0000       3.935331       107.0858 
 561   0.0000       3.942006       107.2674 
 562   0.0000       3.954193       107.5991 
 563   0.0000       3.959493       107.7433 
 564   0.0000       3.968827       107.9973 
 565   0.0000       3.975123       108.1686 
 566   0.0000       3.979715       108.2936 
 567   0.0000       4.011873       109.1686 
 568   0.0000       4.014109       109.2295 
 569   0.0000       4.022217       109.4501 
 570   0.0000       4.025346       109.5352 
 571   0.0000       4.031267       109.6963 
 572   0.0000       4.038699       109.8986 
 573   0.0000       4.054753       110.3354 
 574   0.0000       4.061403       110.5164 
 575   0.0000       4.065596       110.6305 
 576   0.0000       4.081830       111.0722 
 577   0.0000       4.092837       111.3718 
 578   0.0000       4.098476       111.5252 
 579   0.0000       4.102798       111.6428 
 580   0.0000       4.107930       111.7825 
 581   0.0000       4.112354       111.9029 
 582   0.0000       4.120686       112.1296 
 583   0.0000       4.126024       112.2748 
 584   0.0000       4.138918       112.6257 
 585   0.0000       4.144975       112.7905 
 586   0.0000       4.153025       113.0096 
 587   0.0000       4.158505       113.1587 
 588   0.0000       4.164326       113.3171 
 589   0.0000       4.171259       113.5057 
 590   0.0000       4.173188       113.5582 
 591   0.0000       4.185460       113.8922 
 592   0.0000       4.189218       113.9944 
 593   0.0000       4.194845       114.1475 
 594   0.0000       4.205065       114.4256 
 595   0.0000       4.208334       114.5146 
 596   0.0000       4.219260       114.8119 
 597   0.0000       4.226902       115.0198 
 598   0.0000       4.230599       115.1204 
 599   0.0000       4.232798       115.1803 
 600   0.0000       4.243725       115.4776 
 601   0.0000       4.265649       116.0742 
 602   0.0000       4.270765       116.2134 
 603   0.0000       4.274440       116.3134 
 604   0.0000       4.283430       116.5581 
 605   0.0000       4.293004       116.8186 
 606   0.0000       4.301237       117.0426 
 607   0.0000       4.313770       117.3836 
 608   0.0000       4.319415       117.5373 
 609   0.0000       4.325565       117.7046 
 610   0.0000       4.331634       117.8698 
 611   0.0000       4.339964       118.0964 
 612   0.0000       4.351334       118.4058 
 613   0.0000       4.368298       118.8674 
 614   0.0000       4.372962       118.9943 
 615   0.0000       4.379129       119.1622 
 616   0.0000       4.384130       119.2982 
 617   0.0000       4.390370       119.4680 
 618   0.0000       4.395746       119.6143 
 619   0.0000       4.403792       119.8333 
 620   0.0000       4.407578       119.9363 
 621   0.0000       4.418703       120.2390 
 622   0.0000       4.421464       120.3142 
 623   0.0000       4.424688       120.4019 
 624   0.0000       4.429450       120.5315 
 625   0.0000       4.437159       120.7412 
 626   0.0000       4.451669       121.1361 
 627   0.0000       4.456853       121.2771 
 628   0.0000       4.471575       121.6777 
 629   0.0000       4.474010       121.7440 
 630   0.0000       4.490769       122.2000 
 631   0.0000       4.498546       122.4117 
 632   0.0000       4.503695       122.5518 
 633   0.0000       4.515986       122.8862 
 634   0.0000       4.522847       123.0729 
 635   0.0000       4.535764       123.4244 
 636   0.0000       4.545254       123.6826 
 637   0.0000       4.551941       123.8646 
 638   0.0000       4.560949       124.1097 
 639   0.0000       4.563858       124.1889 
 640   0.0000       4.568753       124.3221 
 641   0.0000       4.577673       124.5648 
 642   0.0000       4.592131       124.9582 
 643   0.0000       4.600438       125.1843 
 644   0.0000       4.603783       125.2753 
 645   0.0000       4.617128       125.6384 
 646   0.0000       4.619815       125.7116 
 647   0.0000       4.628368       125.9443 
 648   0.0000       4.630779       126.0099 
 649   0.0000       4.638385       126.2169 
 650   0.0000       4.643767       126.3633 
 651   0.0000       4.658237       126.7571 
 652   0.0000       4.663309       126.8951 
 653   0.0000       4.678195       127.3002 
 654   0.0000       4.686685       127.5312 
 655   0.0000       4.690495       127.6349 
 656   0.0000       4.702732       127.9679 
 657   0.0000       4.712930       128.2453 
 658   0.0000       4.719375       128.4207 
 659   0.0000       4.739219       128.9607 
 660   0.0000       4.751799       129.3030 
 661   0.0000       4.759030       129.4998 
 662   0.0000       4.785911       130.2313 
 663   0.0000       4.794770       130.4723 
 664   0.0000       4.806509       130.7917 
 665   0.0000       4.820583       131.1747 
 666   0.0000       4.828637       131.3939 
 667   0.0000       4.834503       131.5535 
 668   0.0000       4.871576       132.5623 
 669   0.0000       4.878261       132.7442 
 670   0.0000       4.888003       133.0093 
 671   0.0000       4.917989       133.8253 
 672   0.0000       4.935011       134.2885 
 673   0.0000       4.969482       135.2265 
 674   0.0000       4.976053       135.4053 
 675   0.0000       4.991894       135.8363 
 676   0.0000       5.006739       136.2403 
 677   0.0000       5.008759       136.2953 
 678   0.0000       5.023806       136.7047 
 679   0.0000       5.029030       136.8469 
 680   0.0000       5.043088       137.2294 
 681   0.0000       5.057197       137.6133 
 682   0.0000       5.065925       137.8508 
 683   0.0000       5.092430       138.5721 
 684   0.0000       5.107952       138.9944 
 685   0.0000       5.124922       139.4562 
 686   0.0000       5.132203       139.6543 
 687   0.0000       5.135257       139.7374 
 688   0.0000       5.150125       140.1420 
 689   0.0000       5.162108       140.4681 
 690   0.0000       5.171291       140.7180 
 691   0.0000       5.177909       140.8981 
 692   0.0000       5.183709       141.0559 
 693   0.0000       5.193899       141.3332 
 694   0.0000       5.202885       141.5777 
 695   0.0000       5.220926       142.0686 
 696   0.0000       5.223427       142.1367 
 697   0.0000       5.227909       142.2586 
 698   0.0000       5.234653       142.4422 
 699   0.0000       5.243412       142.6805 
 700   0.0000       5.259961       143.1308 
 701   0.0000       5.281901       143.7278 
 702   0.0000       5.285347       143.8216 
 703   0.0000       5.314749       144.6217 
 704   0.0000       5.321108       144.7947 
 705   0.0000       5.339826       145.3041 
 706   0.0000       5.346143       145.4759 
 707   0.0000       5.355867       145.7406 
 708   0.0000       5.362162       145.9119 
 709   0.0000       5.376627       146.3055 
 710   0.0000       5.382931       146.4770 
 711   0.0000       5.396681       146.8512 
 712   0.0000       5.420145       147.4896 
 713   0.0000       5.463638       148.6732 
 714   0.0000       5.465383       148.7206 
 715   0.0000       5.475543       148.9971 
 716   0.0000       5.495511       149.5405 
 717   0.0000       5.499736       149.6554 
 718   0.0000       5.506035       149.8268 
 719   0.0000       5.520044       150.2080 
 720   0.0000       5.525231       150.3492 
 721   0.0000       5.538865       150.7202 
 722   0.0000       5.546456       150.9267 
 723   0.0000       5.568964       151.5392 
 724   0.0000       5.584038       151.9494 
 725   0.0000       5.598203       152.3348 
 726   0.0000       5.602926       152.4634 
 727   0.0000       5.613548       152.7524 
 728   0.0000       5.625162       153.0684 
 729   0.0000       5.637021       153.3911 
 730   0.0000       5.656157       153.9119 
 731   0.0000       5.661154       154.0478 
 732   0.0000       5.662524       154.0851 
 733   0.0000       5.669653       154.2791 
 734   0.0000       5.680625       154.5777 
 735   0.0000       5.688154       154.7825 
 736   0.0000       5.715323       155.5218 
 737   0.0000       5.720566       155.6645 
 738   0.0000       5.747027       156.3845 
 739   0.0000       5.758819       156.7054 
 740   0.0000       5.777548       157.2151 
 741   0.0000       5.787909       157.4970 
 742   0.0000       5.807697       158.0355 
 743   0.0000       5.816476       158.2743 
 744   0.0000       5.841378       158.9520 
 745   0.0000       5.857565       159.3925 
 746   0.0000       5.866190       159.6271 
 747   0.0000       5.878098       159.9512 
 748   0.0000       5.904919       160.6810 
 749   0.0000       5.930794       161.3851 
 750   0.0000       5.951029       161.9357 
 751   0.0000       5.974490       162.5741 
 752   0.0000       5.981628       162.7684 
 753   0.0000       6.000328       163.2772 
 754   0.0000       6.008281       163.4937 
 755   0.0000       6.024060       163.9230 
 756   0.0000       6.060163       164.9054 
 757   0.0000       6.066010       165.0645 
 758   0.0000       6.082083       165.5019 
 759   0.0000       6.103190       166.0762 
 760   0.0000       6.157643       167.5580 
 761   0.0000       6.188697       168.4030 
 762   0.0000       6.201575       168.7534 
 763   0.0000       6.217006       169.1733 
 764   0.0000       6.230298       169.5350 
 765   0.0000       6.262320       170.4064 
 766   0.0000       6.282904       170.9665 
 767   0.0000       6.285500       171.0371 
 768   0.0000       6.309555       171.6917 
 769   0.0000       6.332150       172.3066 
 770   0.0000       6.356040       172.9566 
 771   0.0000       6.368021       173.2827 
 772   0.0000       6.390982       173.9075 
 773   0.0000       6.457308       175.7123 
 774   0.0000       6.495254       176.7448 
 775   0.0000       6.503408       176.9667 
 776   0.0000       6.555455       178.3830 
 777   0.0000       6.567972       178.7236 
 778   0.0000       6.578819       179.0188 
 779   0.0000       6.615390       180.0139 
 780   0.0000       6.641121       180.7141 
 781   0.0000       6.688537       182.0043 
 782   0.0000       6.750946       183.7026 
 783   0.0000       6.760692       183.9678 
 784   0.0000       6.792229       184.8259 
 785   0.0000       6.877298       187.1408 
 786   0.0000       6.886897       187.4020 
 787   0.0000       6.914927       188.1647 
 788   0.0000       6.916917       188.2189 
 789   0.0000       7.005507       190.6295 
 790   0.0000       7.051376       191.8777 
 791   0.0000       7.089796       192.9232 
 792   0.0000       7.107815       193.4135 
 793   0.0000       7.137988       194.2345 
 794   0.0000       7.241927       197.0628 
 795   0.0000       7.248381       197.2385 
 796   0.0000       7.285449       198.2472 
 797   0.0000       7.288205       198.3221 
 798   0.0000       7.339750       199.7247 
 799   0.0000       7.363148       200.3614 
 800   0.0000       7.424364       202.0272 
 801   0.0000       7.522160       204.6884 
 802   0.0000       7.582467       206.3294 
 803   0.0000       7.595052       206.6719 
 804   0.0000       7.701409       209.5660 
 805   0.0000       7.820241       212.7996 
 806   0.0000       7.871753       214.2013 
 807   0.0000       7.930759       215.8069 
 808   0.0000       7.942157       216.1171 
 809   0.0000       9.381346       255.2794 
 810   0.0000       9.509514       258.7670 
 811   0.0000      10.790359       293.6206 
 812   0.0000      11.389315       309.9190 
 813   0.0000      11.903220       323.9031 
 814   0.0000      12.645235       344.0943 
 815   0.0000      12.770856       347.5127 
 816   0.0000      12.990490       353.4892 
 817   0.0000      13.174491       358.4961 
 818   0.0000      13.259161       360.8001 
 819   0.0000      13.356745       363.4555 
 820   0.0000      13.568097       369.2067 
 821   0.0000      13.669955       371.9784 
 822   0.0000      13.827457       376.2642 
 823   0.0000      13.872114       377.4794 
 824   0.0000      13.967928       380.0866 
 825   0.0000      14.518520       395.0690 
 826   0.0000      14.645424       398.5222 
 827   0.0000      15.862188       431.6321 

                    ********************************
                    * MULLIKEN POPULATION ANALYSIS *
                    ********************************

-----------------------
MULLIKEN ATOMIC CHARGES
-----------------------
   0 C :   -0.285544
   1 C :    0.038734
   2 O :   -0.337843
   3 C :    0.448109
   4 O :   -0.427031
   5 C :   -0.201307
   6 C :    0.132502
   7 C :   -0.274209
   8 N :   -0.116695
   9 C :    0.202216
  10 S :   -0.436264
  11 N :   -0.198346
  12 C :    0.075321
  13 C :    0.052480
  14 C :   -0.196780
  15 C :   -0.126757
  16 C :   -0.282249
  17 C :    0.315434
  18 O :   -0.359732
  19 C :   -0.257397
  20 H :    0.088327
  21 H :    0.105583
  22 H :    0.109931
  23 H :    0.092893
  24 H :    0.099464
  25 H :    0.138053
  26 H :    0.098712
  27 H :    0.132761
  28 H :    0.193159
  29 H :    0.187229
  30 H :    0.178198
  31 H :    0.127578
  32 H :    0.155593
  33 H :    0.125160
  34 H :    0.243119
  35 H :    0.159599
Sum of atomic charges:    0.0000000

--------------------------------
MULLIKEN REDUCED ORBITAL CHARGES
--------------------------------
  0 C s       :     3.258306  s :     3.258306
      pz      :     1.025085  p :     2.949417
      px      :     1.007925
      py      :     0.916407
      dz2     :     0.017767  d :     0.073351
      dxz     :     0.008092
      dyz     :     0.013234
      dx2y2   :     0.018537
      dxy     :     0.015721
      f0      :     0.000768  f :     0.004471
      f+1     :     0.000643
      f-1     :     0.000511
      f+2     :     0.000468
      f-2     :     0.000226
      f+3     :     0.000967
      f-3     :     0.000887
  1 C s       :     3.172296  s :     3.172296
      pz      :     0.807741  p :     2.625045
      px      :     0.984864
      py      :     0.832440
      dz2     :     0.035401  d :     0.152070
      dxz     :     0.021151
      dyz     :     0.037037
      dx2y2   :     0.035315
      dxy     :     0.023166
      f0      :     0.001680  f :     0.011854
      f+1     :     0.001570
      f-1     :     0.002308
      f+2     :     0.002076
      f-2     :     0.001705
      f+3     :     0.001315
      f-3     :     0.001201
  2 O s       :     3.709987  s :     3.709987
      pz      :     1.571906  p :     4.590414
      px      :     1.776095
      py      :     1.242413
      dz2     :     0.007964  d :     0.035149
      dxz     :     0.003831
      dyz     :     0.008725
      dx2y2   :     0.008875
      dxy     :     0.005755
      f0      :     0.000175  f :     0.002293
      f+1     :     0.000135
      f-1     :     0.000429
      f+2     :     0.000376
      f-2     :     0.000222
      f+3     :     0.000375
      f-3     :     0.000581
  3 C s       :     3.062506  s :     3.062506
      pz      :     0.727255  p :     2.164499
      px      :     0.746673
      py      :     0.690570
      dz2     :     0.063978  d :     0.298167
      dxz     :     0.031962
      dyz     :     0.055134
      dx2y2   :     0.076309
      dxy     :     0.070785
      f0      :     0.002352  f :     0.026720
      f+1     :     0.003715
      f-1     :     0.002684
      f+2     :     0.005242
      f-2     :     0.002717
      f+3     :     0.006166
      f-3     :     0.003844
  4 O s       :     3.767853  s :     3.767853
      pz      :     1.452041  p :     4.621758
      px      :     1.428225
      py      :     1.741493
      dz2     :     0.007808  d :     0.035019
      dxz     :     0.008622
      dyz     :     0.005399
      dx2y2   :     0.006439
      dxy     :     0.006751
      f0      :     0.000230  f :     0.002401
      f+1     :     0.000416
      f-1     :     0.000222
      f+2     :     0.000354
      f-2     :     0.000565
      f+3     :     0.000258
      f-3     :     0.000357
  5 C s       :     3.184495  s :     3.184495
      pz      :     1.107296  p :     2.921594
      px      :     0.941868
      py      :     0.872430
      dz2     :     0.008894  d :     0.084571
      dxz     :     0.008435
      dyz     :     0.022055
      dx2y2   :     0.014571
      dxy     :     0.030615
      f0      :     0.001256  f :     0.010648
      f+1     :     0.000980
      f-1     :     0.001344
      f+2     :     0.001567
      f-2     :     0.001715
      f+3     :     0.001924
      f-3     :     0.001861
  6 C s       :     3.202447  s :     3.202447
      pz      :     0.789325  p :     2.477556
      px      :     0.830862
      py      :     0.857368
      dz2     :     0.024592  d :     0.173444
      dxz     :     0.023322
      dyz     :     0.044145
      dx2y2   :     0.035191
      dxy     :     0.046195
      f0      :     0.001488  f :     0.014051
      f+1     :     0.001916
      f-1     :     0.001240
      f+2     :     0.002087
      f-2     :     0.001927
      f+3     :     0.002763
      f-3     :     0.002631
  7 C s       :     3.273780  s :     3.273780
      pz      :     1.015111  p :     2.925364
      px      :     0.972005
      py      :     0.938248
      dz2     :     0.020706  d :     0.070420
      dxz     :     0.008740
      dyz     :     0.010103
      dx2y2   :     0.018415
      dxy     :     0.012456
      f0      :     0.001239  f :     0.004645
      f+1     :     0.000268
      f-1     :     0.000411
      f+2     :     0.000190
      f-2     :     0.000831
      f+3     :     0.000902
      f-3     :     0.000804
  8 N s       :     3.336142  s :     3.336142
      pz      :     1.546384  p :     3.716118
      px      :     1.087605
      py      :     1.082130
      dz2     :     0.006659  d :     0.059469
      dxz     :     0.010258
      dyz     :     0.005324
      dx2y2   :     0.021681
      dxy     :     0.015547
      f0      :     0.000708  f :     0.004965
      f+1     :     0.000887
      f-1     :     0.000440
      f+2     :     0.000634
      f-2     :     0.000673
      f+3     :     0.000767
      f-3     :     0.000854
  9 C s       :     3.163794  s :     3.163794
      pz      :     0.713010  p :     2.352558
      px      :     0.826678
      py      :     0.812871
      dz2     :     0.030990  d :     0.263779
      dxz     :     0.039611
      dyz     :     0.055961
      dx2y2   :     0.077903
      dxy     :     0.059315
      f0      :     0.001901  f :     0.017653
      f+1     :     0.002446
      f-1     :     0.001647
      f+2     :     0.002958
      f-2     :     0.001763
      f+3     :     0.003676
      f-3     :     0.003262
 10 S s       :     5.857281  s :     5.857281
      pz      :     3.518559  p :    10.484441
      px      :     3.372239
      py      :     3.593643
      dz2     :     0.011430  d :     0.084434
      dxz     :     0.018662
      dyz     :     0.013379
      dx2y2   :     0.007684
      dxy     :     0.033279
      f0      :     0.001029  f :     0.010108
      f+1     :     0.001207
      f-1     :     0.000704
      f+2     :     0.000572
      f-2     :     0.002805
      f+3     :     0.001175
      f-3     :     0.002615
 11 N s       :     3.375994  s :     3.375994
      pz      :     1.497000  p :     3.758457
      px      :     1.239975
      py      :     1.021483
      dz2     :     0.004870  d :     0.059477
      dxz     :     0.007828
      dyz     :     0.013247
      dx2y2   :     0.015222
      dxy     :     0.018309
      f0      :     0.000700  f :     0.004417
      f+1     :     0.000337
      f-1     :     0.000607
      f+2     :     0.000637
      f-2     :     0.000600
      f+3     :     0.000702
      f-3     :     0.000835
 12 C s       :     3.106678  s :     3.106678
      pz      :     0.902433  p :     2.634150
      px      :     0.805156
      py      :     0.926561
      dz2     :     0.028161  d :     0.173085
      dxz     :     0.028315
      dyz     :     0.045936
      dx2y2   :     0.034908
      dxy     :     0.035765
      f0      :     0.001408  f :     0.010767
      f+1     :     0.001642
      f-1     :     0.001433
      f+2     :     0.001154
      f-2     :     0.002190
      f+3     :     0.001345
      f-3     :     0.001595
 13 C s       :     3.120889  s :     3.120889
      pz      :     0.867163  p :     2.701755
      px      :     0.891169
      py      :     0.943424
      dz2     :     0.027367  d :     0.113781
      dxz     :     0.013048
      dyz     :     0.029803
      dx2y2   :     0.015052
      dxy     :     0.028510
      f0      :     0.001783  f :     0.011095
      f+1     :     0.001514
      f-1     :     0.001989
[...]
      f+2     :     0.007810
      f-2     :     0.004547
      f+3     :     0.005765
      f-3     :     0.005237
 15 C s       :     2.703825  s :     2.703825
      pz      :     0.959355  p :     2.794873
      px      :     0.863043
      py      :     0.972475
      dz2     :     0.125367  d :     0.425659
      dxz     :     0.075474
      dyz     :     0.090594
      dx2y2   :     0.090479
      dxy     :     0.043745
      f0      :     0.006399  f :     0.042248
      f+1     :     0.005385
      f-1     :     0.008406
      f+2     :     0.007557
      f-2     :     0.007156
      f+3     :     0.002758
      f-3     :     0.004587
 16 C s       :     2.700497  s :     2.700497
      pz      :     0.962619  p :     2.875086
      px      :     0.933131
      py      :     0.979336
      dz2     :     0.074064  d :     0.393490
      dxz     :     0.046505
      dyz     :     0.120151
      dx2y2   :     0.074303
      dxy     :     0.078467
      f0      :     0.006847  f :     0.040975
      f+1     :     0.004544
      f-1     :     0.006170
      f+2     :     0.007241
      f-2     :     0.004558
      f+3     :     0.006636
      f-3     :     0.004980
 17 C s       :     2.704568  s :     2.704568
      pz      :     0.854034  p :     2.676599
      px      :     0.812501
      py      :     1.010063
      dz2     :     0.160850  d :     0.705865
      dxz     :     0.105845
      dyz     :     0.190039
      dx2y2   :     0.115931
      dxy     :     0.133198
      f0      :     0.018498  f :     0.098928
      f+1     :     0.012149
      f-1     :     0.015544
      f+2     :     0.019019
      f-2     :     0.014298
      f+3     :     0.010731
      f-3     :     0.008688
 18 O s       :     3.178625  s :     3.178625
      pz      :     1.311479  p :     4.350069
      px      :     1.536680
      py      :     1.501910
      dz2     :     0.014026  d :     0.075684
      dxz     :     0.015126
      dyz     :     0.027809
      dx2y2   :     0.008657
      dxy     :     0.010066
      f0      :     0.000797  f :     0.005095
      f+1     :     0.000557
      f-1     :     0.000919
      f+2     :     0.001079
      f-2     :     0.000981
      f+3     :     0.000385
      f-3     :     0.000378
 19 C s       :     2.699012  s :     2.699012
      pz      :     0.965328  p :     2.855379
      px      :     0.921562
      py      :     0.968489
      dz2     :     0.102071  d :     0.380197
      dxz     :     0.065727
      dyz     :     0.090285
      dx2y2   :     0.074297
      dxy     :     0.047817
      f0      :     0.005880  f :     0.039486
      f+1     :     0.006095
      f-1     :     0.007611
      f+2     :     0.006654
      f-2     :     0.006722
      f+3     :     0.002967
      f-3     :     0.003558
 20 H s       :     0.853393  s :     0.853393
      pz      :     0.040033  p :     0.152303
      px      :     0.071726
      py      :     0.040543
      dz2     :     0.002554  d :     0.027543
      dxz     :     0.008909
      dyz     :     0.000237
      dx2y2   :     0.007109
      dxy     :     0.008734
 21 H s       :     0.845613  s :     0.845613
      pz      :     0.050912  p :     0.150532
      px      :     0.047377
      py      :     0.052243
      dz2     :     0.006757  d :     0.027373
      dxz     :     0.004029
      dyz     :     0.005337
      dx2y2   :     0.006499
      dxy     :     0.004752
 22 H s       :     0.844816  s :     0.844816
      pz      :     0.070912  p :     0.149728
      px      :     0.041313
      py      :     0.037503
      dz2     :     0.009081  d :     0.027438
      dxz     :     0.008037
      dyz     :     0.008430
      dx2y2   :     0.001308
      dxy     :     0.000582
 23 H s       :     0.860197  s :     0.860197
      pz      :     0.067933  p :     0.145018
      px      :     0.042645
      py      :     0.034441
      dz2     :     0.008885  d :     0.026828
      dxz     :     0.007443
      dyz     :     0.006937
      dx2y2   :     0.002618
      dxy     :     0.000945
 24 H s       :     0.853285  s :     0.853285
      pz      :     0.030748  p :     0.146654
      px      :     0.080210
      py      :     0.035696
      dz2     :     0.002588  d :     0.027290
      dxz     :     0.008115
      dyz     :     0.000178
      dx2y2   :     0.008158
      dxy     :     0.008251
 25 H s       :     0.820961  s :     0.820961
      pz      :     0.075051  p :     0.151377
      px      :     0.038280
      py      :     0.038046
      dz2     :     0.009645  d :     0.027680
      dxz     :     0.009034
      dyz     :     0.008439
      dx2y2   :     0.000425
      dxy     :     0.000137
 26 H s       :     0.843664  s :     0.843664
      pz      :     0.041678  p :     0.150550
      px      :     0.038997
      py      :     0.069875
      dz2     :     0.003089  d :     0.027662
      dxz     :     0.000428
      dyz     :     0.008507
      dx2y2   :     0.007307
      dxy     :     0.008331
 27 H s       :     0.828150  s :     0.828150
      pz      :     0.041706  p :     0.151227
      px      :     0.071281
      py      :     0.038240
      dz2     :     0.003815  d :     0.027829
      dxz     :     0.008336
      dyz     :     0.000603
      dx2y2   :     0.007071
      dxy     :     0.008004
 28 H s       :     0.743263  s :     0.743263
      pz      :     0.083441  p :     0.254320
      px      :     0.049044
      py      :     0.121835
      dz2     :     0.004990  d :     0.061731
      dxz     :     0.000237
      dyz     :     0.023175
      dx2y2   :     0.016294
      dxy     :     0.017034
 29 H s       :     0.747678  s :     0.747678
      pz      :     0.094184  p :     0.254525
      px      :     0.108688
      py      :     0.051653
      dz2     :     0.011496  d :     0.061617
      dxz     :     0.015124
      dyz     :     0.006860
      dx2y2   :     0.015303
      dxy     :     0.012835
 30 H s       :     0.814813  s :     0.814813
      pz      :     0.057700  p :     0.172777
      px      :     0.033284
      py      :     0.081793
      dz2     :     0.006801  d :     0.030928
      dxz     :     0.002415
      dyz     :     0.009082
      dx2y2   :     0.006964
      dxy     :     0.005666
 31 H s       :     0.848093  s :     0.848093
      pz      :     0.063566  p :     0.160806
      px      :     0.054160
      py      :     0.043080
      dz2     :     0.007832  d :     0.028033
      dxz     :     0.005980
      dyz     :     0.006989
      dx2y2   :     0.003604
      dxy     :     0.003628
 32 H s       :     0.844047  s :     0.844047
      pz      :     0.034341  p :     0.149850
      px      :     0.038054
      py      :     0.077455
      dz2     :     0.002708  d :     0.026218
      dxz     :     0.000122
      dyz     :     0.008258
      dx2y2   :     0.007579
      dxy     :     0.007551
 33 H s       :     0.849065  s :     0.849065
      pz      :     0.060398  p :     0.158903
      px      :     0.051580
      py      :     0.046924
      dz2     :     0.007462  d :     0.027663
      dxz     :     0.005526
      dyz     :     0.006759
      dx2y2   :     0.004043
      dxy     :     0.003873
 34 H s       :     0.705474  s :     0.705474
      pz      :     0.105261  p :     0.346098
      px      :     0.097097
      py      :     0.143740
      dz2     :     0.023501  d :     0.099094
      dxz     :     0.014206
      dyz     :     0.024326
      dx2y2   :     0.017434
      dxy     :     0.019626
 35 H s       :     0.842745  s :     0.842745
      pz      :     0.036617  p :     0.160061
      px      :     0.043920
      py      :     0.079524
      dz2     :     0.002783  d :     0.028497
      dxz     :     0.000333
      dyz     :     0.008756
      dx2y2   :     0.007874
      dxy     :     0.008750


                      *****************************
                      * MAYER POPULATION ANALYSIS *
                      *****************************

  NA   - Mulliken gross atomic population
  ZA   - Total nuclear charge
  QA   - Mulliken gross atomic charge
  VA   - Mayer's total valence
  BVA  - Mayer's bonded valence
  FA   - Mayer's free valence

  ATOM       NA         ZA         QA         VA         BVA        FA
  0 C      6.2855     6.0000    -0.2855     3.8871     3.8871    -0.0000
  1 C      5.9613     6.0000     0.0387     3.8690     3.8690     0.0000
  2 O      8.3378     8.0000    -0.3378     2.0720     2.0720    -0.0000
  3 C      5.5519     6.0000     0.4481     4.2506     4.2506     0.0000
  4 O      8.4270     8.0000    -0.4270     2.0877     2.0877    -0.0000
  5 C      6.2013     6.0000    -0.2013     3.6469     3.6469     0.0000
  6 C      5.8675     6.0000     0.1325     3.8925     3.8925    -0.0000
  7 C      6.2742     6.0000    -0.2742     3.9043     3.9043     0.0000
  8 N      7.1167     7.0000    -0.1167     3.2908     3.2908     0.0000
  9 C      5.7978     6.0000     0.2022     4.1477     4.1477     0.0000
 10 S     16.4363    16.0000    -0.4363     1.7565     1.7565    -0.0000
 11 N      7.1983     7.0000    -0.1983     3.2676     3.2676     0.0000
 12 C      5.9247     6.0000     0.0753     3.9076     3.9076     0.0000
 13 C      5.9475     6.0000     0.0525     3.7221     3.7221    -0.0000
 14 C      6.1968     6.0000    -0.1968     3.8508     3.8508    -0.0000
 15 C      6.1268     6.0000    -0.1268     3.8099     3.8099     0.0000
 16 C      6.2822     6.0000    -0.2822     3.7858     3.7858    -0.0000
 17 C      5.6846     6.0000     0.3154     3.8730     3.8730     0.0000
 18 O      8.3597     8.0000    -0.3597     2.1145     2.1145     0.0000
 19 C      6.2574     6.0000    -0.2574     3.8534     3.8534    -0.0000
 20 H      0.9117     1.0000     0.0883     0.9824     0.9824     0.0000
 21 H      0.8944     1.0000     0.1056     0.9833     0.9833    -0.0000
 22 H      0.8901     1.0000     0.1099     0.9825     0.9825    -0.0000
 23 H      0.9071     1.0000     0.0929     0.9793     0.9793    -0.0000
 24 H      0.9005     1.0000     0.0995     0.9811     0.9811    -0.0000
 25 H      0.8619     1.0000     0.1381     0.9803     0.9803     0.0000
 26 H      0.9013     1.0000     0.0987     0.9845     0.9845    -0.0000
 27 H      0.8672     1.0000     0.1328     0.9796     0.9796    -0.0000
 28 H      0.8068     1.0000     0.1932     1.0246     1.0246    -0.0000
 29 H      0.8128     1.0000     0.1872     1.0264     1.0264     0.0000
 30 H      0.8218     1.0000     0.1782     0.9939     0.9939     0.0000
 31 H      0.8724     1.0000     0.1276     0.9891     0.9891    -0.0000
 32 H      0.8444     1.0000     0.1556     0.9786     0.9786     0.0000
 33 H      0.8748     1.0000     0.1252     0.9928     0.9928    -0.0000
 34 H      0.7569     1.0000     0.2431     1.0089     1.0089    -0.0000
 35 H      0.8404     1.0000     0.1596     0.9917     0.9917    -0.0000

  Mayer bond orders larger than 0.100000
B(  0-C ,  1-C ) :   0.9681 B(  0-C , 20-H ) :   0.9808 B(  0-C , 21-H ) :   0.9795 
B(  0-C , 22-H ) :   0.9720 B(  1-C ,  2-O ) :   0.9104 B(  1-C , 23-H ) :   0.9737 
B(  1-C , 24-H ) :   0.9832 B(  2-O ,  3-C ) :   1.1738 B(  3-C ,  4-O ) :   1.9784 
B(  3-C ,  5-C ) :   1.0478 B(  5-C ,  6-C ) :   1.6672 B(  5-C , 12-C ) :   0.9823 
B(  6-C ,  7-C ) :   0.9718 B(  6-C ,  8-N ) :   1.1457 B(  7-C , 25-H ) :   0.9524 
B(  7-C , 26-H ) :   0.9854 B(  7-C , 27-H ) :   0.9674 B(  8-N ,  9-C ) :   1.1848 
B(  8-N , 28-H ) :   0.9501 B(  9-C , 10-S ) :   1.6034 B(  9-C , 11-N ) :   1.3070 
B( 11-N , 12-C ) :   0.9891 B( 11-N , 29-H ) :   0.9527 B( 12-C , 13-C ) :   0.9047 
B( 12-C , 30-H ) :   0.9812 B( 13-C , 14-C ) :   1.3654 B( 13-C , 19-C ) :   1.3842 
B( 14-C , 15-C ) :   1.3857 B( 14-C , 31-H ) :   0.9772 B( 15-C , 16-C ) :   1.3646 
B( 15-C , 32-H ) :   0.9717 B( 16-C , 17-C ) :   1.3198 B( 16-C , 33-H ) :   0.9882 
B( 17-C , 18-O ) :   1.1030 B( 17-C , 19-C ) :   1.3859 B( 18-O , 34-H ) :   0.9781 
B( 19-C , 35-H ) :   0.9553 

-------
TIMINGS
-------

Total SCF time: 0 days 1 hours 34 min 38 sec 

Total time                  ....    5678.590 sec
Sum of individual times     ....    5673.163 sec  ( 99.9%)

Fock matrix formation       ....    5659.555 sec  ( 99.7%)
Diagonalization             ....       1.277 sec  (  0.0%)
Density matrix formation    ....       0.215 sec  (  0.0%)
Population analysis         ....       0.391 sec  (  0.0%)
Initial guess               ....       5.017 sec  (  0.1%)
Orbital Transformation      ....       0.000 sec  (  0.0%)
Orbital Orthonormalization  ....       0.000 sec  (  0.0%)
DIIS solution               ....       3.588 sec  (  0.1%)
SOSCF solution              ....       1.825 sec  (  0.0%)

------------------------------------------------------------------------------
                                ORCA  MP2 
------------------------------------------------------------------------------

Freezing NCore=48 chemical core electrons

-------------
RI-MP2 ENERGY
-------------
Dimension of the basis                    ...  828
Memory devoted to MP2                     ...  256 MB   
Data format for buffers                   ... DOUBLE
Compression type for matrix containers    ... UNCOMPRESSED
Overall scaling of the MP2 energy         ...   1.000e+00
Calculating two index integrals           ... done (    0.041 sec)
Cholesky decomposition of V**-1           ... done (    0.355 sec)

-----------------
RI-TRANSFORMATION (AUX index driven)
-----------------

Dimension of the orbital-basis         ... 828
Dimension of the aux-basis             ... 2141
Transformation of internal/external MOs...   24-  76 to   77- 827
Number Format for Storage              ... Double (8 Byte)
Integral mode                          ... Direct

First Phase: integral generation and transformation of MO indices
  Aux angular momentum 0               ... done (    4.931 sec)
  Aux angular momentum 1               ... done (    7.995 sec)
  Aux angular momentum 2               ... done (   10.845 sec)
  Aux angular momentum 3               ... done (    8.780 sec)
  Aux angular momentum 4               ... done (    3.027 sec)
Closing buffer VIA ( 0.63 GB; CompressionRatio= 1.00)
  Phase 1 completed in    35.812 sec
Second Phase: sorting and transformation of aux index

IA-Transformation
Memory available                       ... 167 MB 
Max. # MO pairs treated in a batch     ... 12    
# of internal orbitals                 ... 53
# batches for internal orbitals        ... 5
Closing buffer IAV ( 0.63 GB; CompressionRatio= 1.00)
(ia|v) transformation done in    21.817 sec

  Phase 2 completed in    21.820 sec
RI-Integral transformation completed in    57.637 sec
Opening buffers                              ... done

Starting loop over batches of integrals:

Operator 0  - window                       ... ( 24- 76)x( 77-827)
Operator 0  - Memory available             ...   256 MB
Operator 0  - Memory needed per MO         ...  12.3 MB
Operator 0  - Number of orbitals per batch ... 13
Operator 0  - Number of batches            ... 5

OPERATOR  0   PASS   0:  MOs    24 ...   36
  Reading integrals       ... ok
  Internal MO  26
  Internal MO  29
  Internal MO  32
  Internal MO  35
OPERATOR  0   PASS   1:  MOs    37 ...   49
  Reading integrals       ... ok
  Internal MO  38
  Internal MO  41
  Internal MO  44
  Internal MO  47
OPERATOR  0   PASS   2:  MOs    50 ...   62
  Reading integrals       ... ok
  Internal MO  50
  Internal MO  53
  Internal MO  56
  Internal MO  59
  Internal MO  62
OPERATOR  0   PASS   3:  MOs    63 ...   75
  Reading integrals       ... ok
  Internal MO  65
  Internal MO  68
  Internal MO  71
  Internal MO  74
OPERATOR  0   PASS   4:  MOs    76 ...   76
  Reading integrals       ... ok
Time spent in pair loops =    90.763 sec
Deleting buffer (Ka|jb)[aa] ...done

-----------------------------------------------
 RI-MP2 CORRELATION ENERGY:     -3.543984787 Eh
-----------------------------------------------


-------
TIMINGS
-------

Total time                :  148.923 sec
Integral trafo            :   57.653 sec ( 38.7%)
I/O of integrals          :    1.551 sec (  1.0%)
K(i,j) Operators          :   55.362 sec ( 37.2%)
T(i,j) pair energies      :    8.708 sec (  5.8%)
V-calculation             :    0.041 sec (  0.0%)
V**(-1/2)                 :    0.355 sec (  0.2%)
Gamma(ia|P)               :    0.000 sec (  0.0%)
Gamma-Trafo               :    0.000 sec (  0.0%)
D(virtual)                :    0.000 sec (  0.0%)
D(internal)               :    0.000 sec (  0.0%)
W(virtual)                :    0.000 sec (  0.0%)
W(internal)               :    0.000 sec (  0.0%)
L(virtual)                :    0.000 sec (  0.0%)
L(internal)               :    0.000 sec (  0.0%)
G(D)                      :    0.000 sec (  0.0%)
G(Z)                      :    0.000 sec (  0.0%)
Z-Vector Solution         :    0.000 sec (  0.0%)
3-Index Derivative        :    0.000 sec (  0.0%)
2-Index Derivative        :    0.000 sec (  0.0%)
Separable Gradient        :    0.000 sec (  0.0%)


---------------------------------------
MP2 TOTAL ENERGY:    -1274.297430005 Eh
---------------------------------------

-------------------------   --------------------
FINAL SINGLE POINT ENERGY     -1274.297430004929
-------------------------   --------------------


                            ***************************************
                            *     ORCA property calculations      *
                            ***************************************


  WARNING: The energy has been calculated at the MP2 level but the densities
           used in the property calculations are still SCF densities
           MP2 response densities have not been calculated 
           use %mp2 Density relaxed end
           or  %mp2 Density unrelaxed end

                                    ---------------------
                                    Active property flags
                                    ---------------------
   (+) Dipole Moment


------------------------------------------------------------------------------
                       ORCA ELECTRIC PROPERTIES CALCULATION
------------------------------------------------------------------------------

Dipole Moment Calculation                       ... on
Quadrupole Moment Calculation                   ... off
Polarizability Calculation                      ... off
GBWName                                         ... G2_CONFS/Conf26.orca.gbw
Electron density file                           ... G2_CONFS/Conf26.orca.scfp
The origin for moment calculation is the CENTER OF MASS  = (32.813892, 31.608627 35.254849)

-------------
DIPOLE MOMENT
-------------
                                X             Y             Z
Electronic contribution:      8.41597      12.12469       7.35909
Nuclear contribution   :     -9.40784     -13.78236      -7.91162
                        -----------------------------------------
Total Dipole Moment    :     -0.99187      -1.65766      -0.55252
                        -----------------------------------------
Magnitude (a.u.)       :      2.00921
Magnitude (Debye)      :      5.10702



--------------------
Rotational spectrum 
--------------------
 
Rotational constants in cm-1:     0.011221     0.008830     0.006271 
Rotational constants in MHz :   336.407460   264.713724   188.010919 

 Dipole components along the rotational axes: 
x,y,z [a.u.] :    -2.004506     0.123462    -0.060436 
x,y,z [Debye]:    -5.095049     0.313814    -0.153616 

 

Timings for individual modules:

Sum of individual times         ...     5829.265 sec (=  97.154 min)
GTO integral calculation        ...        1.291 sec (=   0.022 min)   0.0 %
SCF iterations                  ...     5678.641 sec (=  94.644 min)  97.4 %
MP2 module                      ...      149.333 sec (=   2.489 min)   2.6 %
                             ****ORCA TERMINATED NORMALLY****
TOTAL RUN TIME: 0 days 1 hours 37 minutes 9 seconds 868 msec
