
                                 *****************
                                 * O   R   C   A *
                                 *****************

           --- An Ab Initio, DFT and Semiempirical electronic structure package ---

                  #######################################################
                  #                        -***-                        #
                  #          Department of theory and spectroscopy      #
                  #               Directorship: Frank Neese             #
                  #        Max Planck Institute fuer Kohlenforschung    #
                  #                Kaiser Wilhelm Platz 1               #
                  #                 D-45470 Muelheim/Ruhr               #
                  #                      Germany                        #
                  #                                                     #
                  #                  All rights reserved                #
                  #                        -***-                        #
                  #######################################################


                         Program Version 4.2.0 -  RELEASE  -


 With contributions from (in alphabetic order):
   Daniel Aravena         : Magnetic Suceptibility
   Michael Atanasov       : Ab Initio Ligand Field Theory (pilot matlab implementation)
   Alexander A. Auer      : GIAO ZORA, VPT2
   Ute Becker             : Parallelization
   Giovanni Bistoni       : ED, misc. LED, open-shell LED, HFLED
   Martin Brehm           : Molecular dynamics
   Dmytro Bykov           : SCF Hessian
   Vijay G. Chilkuri      : MRCI spin determinant printing, contributions to CSF-ICE
   Dipayan Datta          : RHF DLPNO-CCSD density
   Achintya Kumar Dutta   : EOM-CC, STEOM-CC
   Dmitry Ganyushin       : Spin-Orbit,Spin-Spin,Magnetic field MRCI
   Miquel Garcia          : C-PCM Hessian, Gaussian charge scheme
   Yang Guo               : DLPNO-NEVPT2, CIM, IAO-localization
   Andreas Hansen         : Spin unrestricted coupled pair/coupled cluster methods
   Benjamin Helmich-Paris : CASSCF linear response (MC-RPA)
   Lee Huntington         : MR-EOM, pCC
   Robert Izsak           : Overlap fitted RIJCOSX, COSX-SCS-MP3, EOM
   Christian Kollmar      : KDIIS, OOCD, Brueckner-CCSD(T), CCSD density
   Simone Kossmann        : Meta GGA functionals, TD-DFT gradient, OOMP2, MP2 Hessian
   Martin Krupicka        : AUTO-CI
   Lucas Lang             : DCDCAS
   Dagmar Lenk            : GEPOL surface, SMD
   Dimitrios Liakos       : Extrapolation schemes; Compound Job, initial MDCI parallelization
   Dimitrios Manganas     : Further ROCIS development; embedding schemes
   Dimitrios Pantazis     : SARC Basis sets
   Taras Petrenko         : DFT Hessian,TD-DFT gradient, ASA, ECA, R-Raman, ABS, FL, XAS/XES, NRVS
   Peter Pinski           : DLPNO-MP2, DLPNO-MP2 Gradient
   Christoph Reimann      : Effective Core Potentials
   Marius Retegan         : Local ZFS, SOC
   Christoph Riplinger    : Optimizer, TS searches, QM/MM, DLPNO-CCSD(T), (RO)-DLPNO pert. Triples
   Tobias Risthaus        : Range-separated hybrids, TD-DFT gradient, RPA, STAB
   Michael Roemelt        : Original ROCIS implementation
   Masaaki Saitow         : Open-shell DLPNO-CCSD energy and density
   Barbara Sandhoefer     : DKH picture change effects
   Avijit Sen             : IP-ROCIS
   Kantharuban Sivalingam : CASSCF convergence, NEVPT2, FIC-MRCI
   Bernardo de Souza      : ESD, SOC TD-DFT
   Georgi Stoychev        : AutoAux, RI-MP2 NMR
   Willem Van den Heuvel  : Paramagnetic NMR
   Boris Wezisla          : Elementary symmetry handling
   Frank Wennmohs         : Technical directorship


 We gratefully acknowledge several colleagues who have allowed us to
 interface, adapt or use parts of their codes:
   Stefan Grimme, W. Hujo, H. Kruse,             : VdW corrections, initial TS optimization,
                  C. Bannwarth                     DFT functionals, gCP, sTDA/sTD-DF
   Ed Valeev, F. Pavosevic, A. Kumar             : LibInt (2-el integral package), F12 methods
   Garnet Chan, S. Sharma, J. Yang, R. Olivares  : DMRG
   Ulf Ekstrom                                   : XCFun DFT Library
   Mihaly Kallay                                 : mrcc  (arbitrary order and MRCC methods)
   Andreas Klamt, Michael Diedenhofen            : otool_cosmo (COSMO solvation model)
   Jiri Pittner, Ondrej Demel                    : Mk-CCSD
   Frank Weinhold                                : gennbo (NPA and NBO analysis)
   Christopher J. Cramer and Donald G. Truhlar   : smd solvation model
   Lars Goerigk                                  : TD-DFT with DH, B97 family of functionals
   V. Asgeirsson, H. Jonsson                     : NEB implementation
   FAccTs GmbH                                   : IRC, NEB, NEB-TS, Multilevel, MM, QM/MM, CI optimization
   S Lehtola, MJT Oliveira, MAL Marques          : LibXC Library


 Your calculation uses the libint2 library for the computation of 2-el integrals
 For citations please refer to: http://libint.valeyev.net

 Your ORCA version has been built with support for libXC version: 4.2.3
 For citations please refer to: https://tddft.org/programs/libxc/

 This ORCA versions uses:
   CBLAS   interface :  Fast vector & matrix operations
   LAPACKE interface :  Fast linear algebra routines
   SCALAPACK package :  Parallel linear algebra routines


----- Orbital basis set information -----
Your calculation utilizes the basis: cc-pVTZ 
       H, B-Ne : Obtained from the ccRepo (grant-hill.group.shef.ac.uk/ccrepo) Feb. 2017
                 T. H. Dunning, Jr., J. Chem. Phys. 90, 1007 (1989)
            He : Obtained from the ccRepo (grant-hill.group.shef.ac.uk/ccrepo) Feb. 2017
                 D. E. Woon, T. H. Dunning, Jr., J. Chem. Phys. 100, 2975 (1994)
  Li-Be, Na-Mg : Obtained from the ccRepo (grant-hill.group.shef.ac.uk/ccrepo) Feb. 2017
                 B. P. Prascher, D. E. Woon, K. A. Peterson, T. H. Dunning, Jr., A. K. Wilson, Theor. Chem. Acc. 128, 69 (2011)
         Al-Ar : Obtained from the ccRepo (grant-hill.group.shef.ac.uk/ccrepo) Feb. 2017
                 D. E. Woon, T. H. Dunning, Jr., J. Chem. Phys. 98, 1358 (1993)
            Ca : Obtained from the Peterson Research Group Website (tyr0.chem.wsu.edu/~kipeters) Feb. 2017
                 J. Koput, K. A. Peterson, J. Phys. Chem. 106, 9595 (2002)
         Sc-Zn : Obtained from the ccRepo (grant-hill.group.shef.ac.uk/ccrepo) Feb. 2017
                 N. B. Balabanov, K. A. Peterson, J. Chem. Phys. 123, 064107 (2005)
                 N. B. Balabanov, K. A. Peterson, J. Chem. Phys. 125, 074110 (2006)
         Ga-Kr : Obtained from the ccRepo (grant-hill.group.shef.ac.uk/ccrepo) Feb. 2017
                 A. K. Wilson, D. E. Woon, K. A. Peterson, T. H. Dunning, Jr., J. Chem. Phys. 110, 7667 (1999)
             Y : Obtained from the ccRepo (grant-hill.group.shef.ac.uk/ccrepo) Feb. 2017
                 K. A. Peterson, D. Figgen, M. Dolg, H. Stoll, J. Chem. Phys. 126, 124101 (2007)
        Ag, Au : Obtained from the Peterson Research Group Website (tyr0.chem.wsu.edu/~kipeters) Feb. 2017
                 K. A. Peterson, C. Puzzarini, Theor. Chem. Acc. 114, 283 (2005)

----- AuxC basis set information -----
Your calculation utilizes the auxiliary basis: cc-pVTZ/C 
  Obtained from the EMSL Basis Set Exchange (bse.pnl.gov) Feb. 2017
  H-He, B-F, Al-Ar, Ga-Kr : F. Weigend, A. Kohn, C. Hattig, J. Chem. Phys. 116, 3175 (2002)
             Li-Be, Na-Mg : C. Haettig, Phys. Chem. Chem. Phys. 7, 59 (2005)
                       Ne : C. Haettig, Phys. Chem. Chem. Phys. 7, 59 (2005)
                            F. Weigend, A. Kohn, C. Hattig, J. Chem. Phys. 116, 3175 (2002)
                    Sc-Zn : J. G. Hill, J. A. Platts, J. Chem. Phys. 128, 044104 (2008)

================================================================================
                                        WARNINGS
                       Please study these warnings very carefully!
================================================================================


WARNING: No MP2 level density has been requested!
         To caclulate MP2 level properties use
         %mp2 Density relaxed end
         or
         %mp2 Density unrelaxed end

WARNING: Post HF methods need fully converged wavefunctions
  ===> : Setting SCFConvForced true
         You can overwrite this default with %scf ConvForced false 


INFO   : the flag for use of LIBINT has been found!

================================================================================
                                       INPUT FILE
================================================================================
NAME = G2_CONFS/Conf57.orca
|  1> ! ri-mp2 cc-pvtz cc-pvtz/c TightSCF  NoKeepInts
|  2> 
|  3> %scf
|  4>   MaxCore 4096
|  5> end
|  6> *xyz  0  1
|  7>     C       14.6903125   14.1505804   16.3475193
|  8>     C       15.5818283   15.3486899   16.7073646
|  9>     O       16.9121073   14.9831646   16.2825109
| 10>     C       18.0427600   15.7512737   16.4032662
| 11>     O       19.1147329   15.3458583   15.9966503
| 12>     C       17.9762042   16.7913741   17.4556293
| 13>     C       17.3230995   17.9589898   17.2201334
| 14>     C       16.7349652   18.3752917   15.8756859
| 15>     N       17.5826775   19.0675271   18.0325548
| 16>     C       18.4372487   19.0771598   19.1065940
| 17>     S       18.7511635   20.4777183   19.9295314
| 18>     N       19.0171490   17.8745289   19.4519284
| 19>     C       18.9318860   16.6438777   18.6284467
| 20>     C       18.0204865   15.9178822   19.6659372
| 21>     C       18.3611113   14.5578826   19.8866209
| 22>     C       17.6100377   13.7131110   20.7117009
| 23>     C       16.4696007   14.2133210   21.3452270
| 24>     C       16.0915487   15.5457799   21.1351576
| 25>     O       14.9651413   16.0001153   21.7373169
| 26>     C       16.8413025   16.3925465   20.2975428
| 27>     H       15.2378826   13.2066520   16.4572084
| 28>     H       14.3881978   14.2418047   15.2954069
| 29>     H       13.7825191   14.1095713   16.9602995
| 30>     H       15.1847014   16.2856312   16.3095550
| 31>     H       15.5905794   15.4157956   17.8073298
| 32>     H       17.1353548   17.7763615   15.0457093
| 33>     H       16.9943750   19.4131496   15.6240021
| 34>     H       15.6431493   18.3074443   15.8508482
| 35>     H       17.2491962   19.9769009   17.7479241
| 36>     H       19.6194412   17.9077301   20.2632495
| 37>     H       19.7180555   15.8834193   18.5825914
| 38>     H       19.2195191   14.1157624   19.3855387
| 39>     H       17.9103289   12.6735314   20.8422038
| 40>     H       15.8813300   13.5592264   21.9817735
| 41>     H       14.6444639   15.2846397   22.3106504
| 42>     H       16.4925457   17.4077069   20.1523877
| 43> *
| 44> 
| 45>                          ****END OF INPUT****
================================================================================

                       ****************************
                       * Single Point Calculation *
                       ****************************

---------------------------------
CARTESIAN COORDINATES (ANGSTROEM)
---------------------------------
  C     14.690312   14.150580   16.347519
  C     15.581828   15.348690   16.707365
  O     16.912107   14.983165   16.282511
  C     18.042760   15.751274   16.403266
  O     19.114733   15.345858   15.996650
  C     17.976204   16.791374   17.455629
  C     17.323100   17.958990   17.220133
  C     16.734965   18.375292   15.875686
  N     17.582677   19.067527   18.032555
  C     18.437249   19.077160   19.106594
  S     18.751163   20.477718   19.929531
  N     19.017149   17.874529   19.451928
  C     18.931886   16.643878   18.628447
  C     18.020487   15.917882   19.665937
  C     18.361111   14.557883   19.886621
  C     17.610038   13.713111   20.711701
  C     16.469601   14.213321   21.345227
  C     16.091549   15.545780   21.135158
  O     14.965141   16.000115   21.737317
  C     16.841303   16.392547   20.297543
  H     15.237883   13.206652   16.457208
  H     14.388198   14.241805   15.295407
  H     13.782519   14.109571   16.960299
  H     15.184701   16.285631   16.309555
  H     15.590579   15.415796   17.807330
  H     17.135355   17.776362   15.045709
  H     16.994375   19.413150   15.624002
  H     15.643149   18.307444   15.850848
  H     17.249196   19.976901   17.747924
  H     19.619441   17.907730   20.263250
  H     19.718055   15.883419   18.582591
  H     19.219519   14.115762   19.385539
  H     17.910329   12.673531   20.842204
  H     15.881330   13.559226   21.981773
  H     14.644464   15.284640   22.310650
  H     16.492546   17.407707   20.152388

----------------------------
CARTESIAN COORDINATES (A.U.)
----------------------------
  NO LB      ZA    FRAG     MASS         X           Y           Z
   0 C     6.0000    0    12.011   27.760667   26.740722   30.892334
   1 C     6.0000    0    12.011   29.445388   29.004820   31.572344
   2 O     8.0000    0    15.999   31.959251   28.314078   30.769486
   3 C     6.0000    0    12.011   34.095875   29.765594   30.997681
   4 O     8.0000    0    15.999   36.121610   28.999469   30.229288
   5 C     6.0000    0    12.011   33.970103   31.731098   32.986359
   6 C     6.0000    0    12.011   32.735914   33.937572   32.541336
   7 C     6.0000    0    12.011   31.624501   34.724269   30.000699
   8 N     7.0000    0    14.007   33.226445   36.032404   34.076590
   9 C     6.0000    0    12.011   34.841351   36.050607   36.106230
  10 S    16.0000    0    32.060   35.434564   38.697279   37.661356
  11 N     7.0000    0    14.007   35.937203   33.777964   36.758817
  12 C     6.0000    0    12.011   35.776080   31.452371   35.202663
  13 C     6.0000    0    12.011   34.053784   30.080438   37.163235
  14 C     6.0000    0    12.011   34.697472   27.510411   37.580267
  15 C     6.0000    0    12.011   33.278148   25.914024   39.139442
  16 C     6.0000    0    12.011   31.123035   26.859284   40.336633
  17 C     6.0000    0    12.011   30.408620   29.377267   39.939660
  18 O     8.0000    0    15.999   28.280019   30.235836   41.077576
  19 C     6.0000    0    12.011   31.825449   30.977424   38.356797
  20 H     1.0000    0     1.008   28.795425   24.956955   31.099617
  21 H     1.0000    0     1.008   27.189753   26.913111   28.904130
  22 H     1.0000    0     1.008   26.045187   26.663226   32.050321
  23 H     1.0000    0     1.008   28.694927   30.775383   30.820592
  24 H     1.0000    0     1.008   29.461925   29.131632   33.650976
  25 H     1.0000    0     1.008   32.381128   33.592455   28.432270
  26 H     1.0000    0     1.008   32.114715   36.685536   29.525085
  27 H     1.0000    0     1.008   29.561268   34.596056   29.953762
  28 H     1.0000    0     1.008   32.596257   37.750872   33.538716
  29 H     1.0000    0     1.008   37.075371   33.840706   38.291992
  30 H     1.0000    0     1.008   37.261725   30.015313   35.116009
  31 H     1.0000    0     1.008   36.319628   26.674925   36.633359
  32 H     1.0000    0     1.008   33.845617   23.949503   39.386057
  33 H     1.0000    0     1.008   30.011364   25.623224   41.539532
  34 H     1.0000    0     1.008   27.674026   28.883783   42.161019
  35 H     1.0000    0     1.008   31.166395   32.895799   38.082494

--------------------------------
INTERNAL COORDINATES (ANGSTROEM)
--------------------------------
 C      0   0   0     0.000000000000     0.00000000     0.00000000
 C      1   0   0     1.536149548570     0.00000000     0.00000000
 O      2   1   0     1.443520567635   105.56845232     0.00000000
 C      3   2   1     1.372205873766   126.27677529   179.99999774
 O      4   3   2     1.216069091386   120.68336011   180.72565005
 C      4   3   2     1.481116676982   114.74548997    22.57941762
 C      6   4   3     1.358429420679   120.13431870   280.29800878
 C      7   6   4     1.525368252927   124.94247083   353.80700717
 N      7   6   4     1.398665154622   119.42703147   198.51312342
 C      9   7   6     1.372568733403   125.14393625   357.99858228
 S     10   9   7     1.654488615222   120.88295438   175.47998475
 N     10   9   7     1.379079869840   116.84837700   355.84213439
 C     12  10   9     1.483204053886   124.08091288     9.35366194
 C     13  12  10     1.560161867311    92.89324280   248.85529700
 C     14  13  12     1.419269340830   114.14829824   222.27625164
 C     15  14  13     1.399466903926   122.77201850   184.36952783
 C     16  15  14     1.397197879490   119.29305742     0.39914112
 C     17  16  15     1.400892282693   119.52479007     0.54842265
 O     18  17  16     1.355658551791   118.44993502   178.57757131
 C     18  17  16     1.407388712712   121.18134858   359.91834879
 H      1   2   3     1.096752268017   110.98257189    34.10926208
 H      1   2   3     1.098424174488   108.61601628   275.85255401
 H      1   2   3     1.096024715451   112.26561825   156.35924905
 H      2   1   3     1.092621275741   111.87534029   127.55883883
 H      2   1   3     1.102045007218   106.61326159   245.78643456
 H      8   7   6     1.099040660216   112.11192511   343.51979682
 H      8   7   6     1.098993721598   111.62783230   226.26169203
 H      8   7   6     1.094203884347   112.81840036   105.99871089
 H      9   7   6     1.009546987989   119.26526537   167.48314337
 H     12  10   9     1.010989684006   115.01307450   181.75941941
 H     13  12  10     1.094742969559   123.94094859   148.26293285
 H     15  14  13     1.087849986674   120.47772140     2.52632383
 H     16  15  14     1.089922729574   119.89970254   179.54090439
 H     17  16  15     1.085860768648   119.49493828   179.66383683
 H     19  18  17     0.971313868576   106.83623880     5.24679498
 H     20  18  17     1.083167552288   118.17151576   178.67172988

---------------------------
INTERNAL COORDINATES (A.U.)
---------------------------
 C      0   0   0     0.000000000000     0.00000000     0.00000000
 C      1   0   0     2.902901947544     0.00000000     0.00000000
 O      2   1   0     2.727858541512   105.56845232     0.00000000
 C      3   2   1     2.593093300776   126.27677529   179.99999774
 O      4   3   2     2.298037542646   120.68336011   180.72565005
 C      4   3   2     2.798904891880   114.74548997    22.57941762
 C      6   4   3     2.567059577344   120.13431870   280.29800878
 C      7   6   4     2.882528251409   124.94247083   353.80700717
 N      7   6   4     2.643094095294   119.42703147   198.51312342
 C      9   7   6     2.593779006115   125.14393625   357.99858228
 S     10   9   7     3.126530374461   120.88295438   175.47998475
 N     10   9   7     2.606083270802   116.84837700   355.84213439
 C     12  10   9     2.802849462567   124.08091288     9.35366194
 C     13  12  10     2.948278653805    92.89324280   248.85529700
 C     14  13  12     2.682030364440   114.14829824   222.27625164
 C     15  14  13     2.644609181906   122.77201850   184.36952783
 C     16  15  14     2.640321347131   119.29305742     0.39914112
 C     17  16  15     2.647302757414   119.52479007     0.54842265
 O     18  17  16     2.561823393994   118.44993502   178.57757131
 C     18  17  16     2.659579230998   121.18134858   359.91834879
 H      1   2   3     2.072561423308   110.98257189    34.10926208
 H      1   2   3     2.075720868661   108.61601628   275.85255401
 H      1   2   3     2.071186548210   112.26561825   156.35924905
 H      2   1   3     2.064754979246   111.87534029   127.55883883
 H      2   1   3     2.082563250898   106.61326159   245.78643456
 H      8   7   6     2.076885857852   112.11192511   343.51979682
 H      8   7   6     2.076797156718   111.62783230   226.26169203
 H      8   7   6     2.067745676089   112.81840036   105.99871089
 H      9   7   6     1.907767326625   119.26526537   167.48314337
 H     12  10   9     1.910493626992   115.01307450   181.75941941
 H     13  12  10     2.068764399502   123.94094859   148.26293285
 H     15  14  13     2.055738549603   120.47772140     2.52632383
 H     16  15  14     2.059655466031   119.89970254   179.54090439
 H     17  16  15     2.051979472315   119.49493828   179.66383683
 H     19  18  17     1.835517201689   106.83623880     5.24679498
 H     20  18  17     2.046890030975   118.17151576   178.67172988

---------------------
BASIS SET INFORMATION
---------------------
There are 5 groups of distinct atoms

 Group   1 Type C   : 18s5p2d1f contracted to 4s3p2d1f pattern {8811/311/11/1}
 Group   2 Type O   : 18s5p2d1f contracted to 4s3p2d1f pattern {8811/311/11/1}
 Group   3 Type N   : 18s5p2d1f contracted to 4s3p2d1f pattern {8811/311/11/1}
 Group   4 Type S   : 41s16p2d1f contracted to 5s4p2d1f pattern {13131311/7711/11/1}
 Group   5 Type H   : 5s2p1d contracted to 3s2p1d pattern {311/11/1}

Atom   0C    basis set group =>   1
Atom   1C    basis set group =>   1
Atom   2O    basis set group =>   2
Atom   3C    basis set group =>   1
Atom   4O    basis set group =>   2
Atom   5C    basis set group =>   1
Atom   6C    basis set group =>   1
Atom   7C    basis set group =>   1
Atom   8N    basis set group =>   3
Atom   9C    basis set group =>   1
Atom  10S    basis set group =>   4
Atom  11N    basis set group =>   3
Atom  12C    basis set group =>   1
Atom  13C    basis set group =>   1
Atom  14C    basis set group =>   1
Atom  15C    basis set group =>   1
Atom  16C    basis set group =>   1
Atom  17C    basis set group =>   1
Atom  18O    basis set group =>   2
Atom  19C    basis set group =>   1
Atom  20H    basis set group =>   5
Atom  21H    basis set group =>   5
Atom  22H    basis set group =>   5
Atom  23H    basis set group =>   5
Atom  24H    basis set group =>   5
Atom  25H    basis set group =>   5
Atom  26H    basis set group =>   5
Atom  27H    basis set group =>   5
Atom  28H    basis set group =>   5
Atom  29H    basis set group =>   5
Atom  30H    basis set group =>   5
Atom  31H    basis set group =>   5
Atom  32H    basis set group =>   5
Atom  33H    basis set group =>   5
Atom  34H    basis set group =>   5
Atom  35H    basis set group =>   5
---------------------------------
AUXILIARY/C BASIS SET INFORMATION
---------------------------------
There are 5 groups of distinct atoms

 Group   1 Type C   : 8s6p5d3f1g contracted to 8s6p5d3f1g pattern {11111111/111111/11111/111/1}
 Group   2 Type O   : 8s6p5d3f1g contracted to 8s6p5d3f1g pattern {11111111/111111/11111/111/1}
 Group   3 Type N   : 8s6p5d3f1g contracted to 8s6p5d3f1g pattern {11111111/111111/11111/111/1}
 Group   4 Type S   : 10s8p7d5f2g contracted to 10s8p7d5f2g pattern {1111111111/11111111/1111111/11111/11}
 Group   5 Type H   : 4s3p2d1f contracted to 4s3p2d1f pattern {1111/111/11/1}

Atom   0C    basis set group =>   1
Atom   1C    basis set group =>   1
Atom   2O    basis set group =>   2
Atom   3C    basis set group =>   1
Atom   4O    basis set group =>   2
Atom   5C    basis set group =>   1
Atom   6C    basis set group =>   1
Atom   7C    basis set group =>   1
Atom   8N    basis set group =>   3
Atom   9C    basis set group =>   1
Atom  10S    basis set group =>   4
Atom  11N    basis set group =>   3
Atom  12C    basis set group =>   1
Atom  13C    basis set group =>   1
Atom  14C    basis set group =>   1
Atom  15C    basis set group =>   1
Atom  16C    basis set group =>   1
Atom  17C    basis set group =>   1
Atom  18O    basis set group =>   2
Atom  19C    basis set group =>   1
Atom  20H    basis set group =>   5
Atom  21H    basis set group =>   5
Atom  22H    basis set group =>   5
Atom  23H    basis set group =>   5
Atom  24H    basis set group =>   5
Atom  25H    basis set group =>   5
Atom  26H    basis set group =>   5
Atom  27H    basis set group =>   5
Atom  28H    basis set group =>   5
Atom  29H    basis set group =>   5
Atom  30H    basis set group =>   5
Atom  31H    basis set group =>   5
Atom  32H    basis set group =>   5
Atom  33H    basis set group =>   5
Atom  34H    basis set group =>   5
Atom  35H    basis set group =>   5

Checking for AutoStart:
The File: G2_CONFS/Conf57.orca.gbw exists
Trying to determine its content:
     ... Fine, the file contains calculation information
     ... Fine, the calculation information was read
     ... Fine, the file contains a basis set
     ... Fine, the basis set was read
     ... Fine, the file contains a geometry
     ... Fine, the geometry was read
     ... The file does not contain orbitals - skipping AutoStart
------------------------------------------------------------------------------
                           ORCA GTO INTEGRAL CALCULATION
------------------------------------------------------------------------------

                         BASIS SET STATISTICS AND STARTUP INFO

 # of primitive gaussian shells          ...  682
 # of primitive gaussian functions       ... 1312
 # of contracted shells                  ...  298
 # of contracted basis functions         ...  828
 Highest angular momentum                ...    3
 Maximum contraction depth               ...   13
 Integral package used                   ... LIBINT
 Integral threshhold            Thresh   ...  2.500e-11
 Primitive cut-off              TCut     ...  2.500e-12


------------------------------ INTEGRAL EVALUATION ----------------------------


 * One electron integrals 
 Pre-screening matrix                    ... done
 Shell pair data                         ... done (   0.014 sec)

-------------------------------------------------------------------------------
                                 ORCA SCF
-------------------------------------------------------------------------------

------------
SCF SETTINGS
------------
Hamiltonian:
 Ab initio Hamiltonian  Method          .... Hartree-Fock(GTOs)


General Settings:
 Integral files         IntName         .... G2_CONFS/Conf57.orca
 Hartree-Fock type      HFTyp           .... RHF
 Total Charge           Charge          ....    0
 Multiplicity           Mult            ....    1
 Number of Electrons    NEL             ....  154
 Basis Dimension        Dim             ....  828
 Nuclear Repulsion      ENuc            ....   1729.0680960427 Eh

Convergence Acceleration:
 DIIS                   CNVDIIS         .... on
   Start iteration      DIISMaxIt       ....    12
   Startup error        DIISStart       ....  0.200000
   # of expansion vecs  DIISMaxEq       ....     5
   Bias factor          DIISBfac        ....   1.050
   Max. coefficient     DIISMaxC        ....  10.000
 Newton-Raphson         CNVNR           .... off
 SOSCF                  CNVSOSCF        .... on
   Start iteration      SOSCFMaxIt      ....   150
   Startup grad/error   SOSCFStart      ....  0.003300
 Level Shifting         CNVShift        .... on
   Level shift para.    LevelShift      ....    0.2500
   Turn off err/grad.   ShiftErr        ....    0.0010
 Zerner damping         CNVZerner       .... off
 Static damping         CNVDamp         .... on
   Fraction old density DampFac         ....    0.7000
   Max. Damping (<1)    DampMax         ....    0.9800
   Min. Damping (>=0)   DampMin         ....    0.0000
   Turn off err/grad.   DampErr         ....    0.1000
 Fernandez-Rico         CNVRico         .... off

SCF Procedure:
 Maximum # iterations   MaxIter         ....   125
 SCF integral mode      SCFMode         .... Direct
   Integral package                     .... LIBINT
 Reset frequency        DirectResetFreq ....    20
 Integral Threshold     Thresh          ....  2.500e-11 Eh
 Primitive CutOff       TCut            ....  2.500e-12 Eh

Convergence Tolerance:
 Convergence Check Mode ConvCheckMode   .... Total+1el-Energy
 Convergence forced     ConvForced      .... 1
 Energy Change          TolE            ....  1.000e-08 Eh
 1-El. energy change                    ....  1.000e-05 Eh
 Orbital Gradient       TolG            ....  1.000e-05
 Orbital Rotation angle TolX            ....  1.000e-05
 DIIS Error             TolErr          ....  5.000e-07


Diagonalization of the overlap matrix:
Smallest eigenvalue                        ... 3.342e-05
Time for diagonalization                   ...    0.112 sec
Threshold for overlap eigenvalues          ... 1.000e-08
Number of eigenvalues below threshold      ... 0
Time for construction of square roots      ...    0.065 sec
Total time needed                          ...    0.180 sec

-------------------
DFT GRID GENERATION
-------------------

General Integration Accuracy     IntAcc      ...  4.340
Radial Grid Type                 RadialGrid  ... Gauss-Chebyshev
Angular Grid (max. acc.)         AngularGrid ... Lebedev-110
Angular grid pruning method      GridPruning ... 3 (G Style)
Weight generation scheme         WeightScheme... Becke
Basis function cutoff            BFCut       ...    1.0000e-11
Integration weight cutoff        WCut        ...    1.0000e-14
Grids for H and He will be reduced by one unit

# of grid points (after initial pruning)     ...  46246 (   0.0 sec)
# of grid points (after weights+screening)   ...  41109 (   0.3 sec)
nearest neighbour list constructed           ...    0.0 sec
Grid point re-assignment to atoms done       ...    0.0 sec
Grid point division into batches done        ...    0.0 sec
Reduced shell lists constructed in    0.9 sec

Total number of grid points                  ...    41109
Total number of batches                      ...      663
Average number of points per batch           ...       62
Average number of grid points per atom       ...     1142
Average number of shells per batch           ...   152.73 (51.25%)
Average number of basis functions per batch  ...   388.83 (46.96%)
Average number of large shells per batch     ...    98.46 (64.47%)
Average number of large basis fcns per batch ...   251.64 (64.72%)
Maximum spatial batch extension              ...  16.65, 20.95, 19.58 au
Average spatial batch extension              ...   3.45,  3.36,  3.27 au

Time for grid setup =    1.269 sec

------------------------------
INITIAL GUESS: MODEL POTENTIAL
------------------------------
Loading Hartree-Fock densities                     ... done
Calculating cut-offs                               ... done
Setting up the integral package                    ... done
Initializing the effective Hamiltonian             ... done
Starting the Coulomb interaction                   ... done (   3.2 sec)
Reading the grid                                   ... done
Mapping shells                                     ... done
Starting the XC term evaluation                    ... 