
                                 *****************
                                 * O   R   C   A *
                                 *****************

           --- An Ab Initio, DFT and Semiempirical electronic structure package ---

                  #######################################################
                  #                        -***-                        #
                  #          Department of theory and spectroscopy      #
                  #               Directorship: Frank Neese             #
                  #        Max Planck Institute fuer Kohlenforschung    #
                  #                Kaiser Wilhelm Platz 1               #
                  #                 D-45470 Muelheim/Ruhr               #
                  #                      Germany                        #
                  #                                                     #
                  #                  All rights reserved                #
                  #                        -***-                        #
                  #######################################################


                         Program Version 4.2.0 -  RELEASE  -


 With contributions from (in alphabetic order):
   Daniel Aravena         : Magnetic Suceptibility
   Michael Atanasov       : Ab Initio Ligand Field Theory (pilot matlab implementation)
   Alexander A. Auer      : GIAO ZORA, VPT2
   Ute Becker             : Parallelization
   Giovanni Bistoni       : ED, misc. LED, open-shell LED, HFLED
   Martin Brehm           : Molecular dynamics
   Dmytro Bykov           : SCF Hessian
   Vijay G. Chilkuri      : MRCI spin determinant printing, contributions to CSF-ICE
   Dipayan Datta          : RHF DLPNO-CCSD density
   Achintya Kumar Dutta   : EOM-CC, STEOM-CC
   Dmitry Ganyushin       : Spin-Orbit,Spin-Spin,Magnetic field MRCI
   Miquel Garcia          : C-PCM Hessian, Gaussian charge scheme
   Yang Guo               : DLPNO-NEVPT2, CIM, IAO-localization
   Andreas Hansen         : Spin unrestricted coupled pair/coupled cluster methods
   Benjamin Helmich-Paris : CASSCF linear response (MC-RPA)
   Lee Huntington         : MR-EOM, pCC
   Robert Izsak           : Overlap fitted RIJCOSX, COSX-SCS-MP3, EOM
   Christian Kollmar      : KDIIS, OOCD, Brueckner-CCSD(T), CCSD density
   Simone Kossmann        : Meta GGA functionals, TD-DFT gradient, OOMP2, MP2 Hessian
   Martin Krupicka        : AUTO-CI
   Lucas Lang             : DCDCAS
   Dagmar Lenk            : GEPOL surface, SMD
   Dimitrios Liakos       : Extrapolation schemes; Compound Job, initial MDCI parallelization
   Dimitrios Manganas     : Further ROCIS development; embedding schemes
   Dimitrios Pantazis     : SARC Basis sets
   Taras Petrenko         : DFT Hessian,TD-DFT gradient, ASA, ECA, R-Raman, ABS, FL, XAS/XES, NRVS
   Peter Pinski           : DLPNO-MP2, DLPNO-MP2 Gradient
   Christoph Reimann      : Effective Core Potentials
   Marius Retegan         : Local ZFS, SOC
   Christoph Riplinger    : Optimizer, TS searches, QM/MM, DLPNO-CCSD(T), (RO)-DLPNO pert. Triples
   Tobias Risthaus        : Range-separated hybrids, TD-DFT gradient, RPA, STAB
   Michael Roemelt        : Original ROCIS implementation
   Masaaki Saitow         : Open-shell DLPNO-CCSD energy and density
   Barbara Sandhoefer     : DKH picture change effects
   Avijit Sen             : IP-ROCIS
   Kantharuban Sivalingam : CASSCF convergence, NEVPT2, FIC-MRCI
   Bernardo de Souza      : ESD, SOC TD-DFT
   Georgi Stoychev        : AutoAux, RI-MP2 NMR
   Willem Van den Heuvel  : Paramagnetic NMR
   Boris Wezisla          : Elementary symmetry handling
   Frank Wennmohs         : Technical directorship


 We gratefully acknowledge several colleagues who have allowed us to
 interface, adapt or use parts of their codes:
   Stefan Grimme, W. Hujo, H. Kruse,             : VdW corrections, initial TS optimization,
                  C. Bannwarth                     DFT functionals, gCP, sTDA/sTD-DF
   Ed Valeev, F. Pavosevic, A. Kumar             : LibInt (2-el integral package), F12 methods
   Garnet Chan, S. Sharma, J. Yang, R. Olivares  : DMRG
   Ulf Ekstrom                                   : XCFun DFT Library
   Mihaly Kallay                                 : mrcc  (arbitrary order and MRCC methods)
   Andreas Klamt, Michael Diedenhofen            : otool_cosmo (COSMO solvation model)
   Jiri Pittner, Ondrej Demel                    : Mk-CCSD
   Frank Weinhold                                : gennbo (NPA and NBO analysis)
   Christopher J. Cramer and Donald G. Truhlar   : smd solvation model
   Lars Goerigk                                  : TD-DFT with DH, B97 family of functionals
   V. Asgeirsson, H. Jonsson                     : NEB implementation
   FAccTs GmbH                                   : IRC, NEB, NEB-TS, Multilevel, MM, QM/MM, CI optimization
   S Lehtola, MJT Oliveira, MAL Marques          : LibXC Library


 Your calculation uses the libint2 library for the computation of 2-el integrals
 For citations please refer to: http://libint.valeyev.net

 Your ORCA version has been built with support for libXC version: 4.2.3
 For citations please refer to: https://tddft.org/programs/libxc/

 This ORCA versions uses:
   CBLAS   interface :  Fast vector & matrix operations
   LAPACKE interface :  Fast linear algebra routines
   SCALAPACK package :  Parallel linear algebra routines


----- Orbital basis set information -----
Your calculation utilizes the basis: cc-pVTZ 
       H, B-Ne : Obtained from the ccRepo (grant-hill.group.shef.ac.uk/ccrepo) Feb. 2017
                 T. H. Dunning, Jr., J. Chem. Phys. 90, 1007 (1989)
            He : Obtained from the ccRepo (grant-hill.group.shef.ac.uk/ccrepo) Feb. 2017
                 D. E. Woon, T. H. Dunning, Jr., J. Chem. Phys. 100, 2975 (1994)
  Li-Be, Na-Mg : Obtained from the ccRepo (grant-hill.group.shef.ac.uk/ccrepo) Feb. 2017
                 B. P. Prascher, D. E. Woon, K. A. Peterson, T. H. Dunning, Jr., A. K. Wilson, Theor. Chem. Acc. 128, 69 (2011)
         Al-Ar : Obtained from the ccRepo (grant-hill.group.shef.ac.uk/ccrepo) Feb. 2017
                 D. E. Woon, T. H. Dunning, Jr., J. Chem. Phys. 98, 1358 (1993)
            Ca : Obtained from the Peterson Research Group Website (tyr0.chem.wsu.edu/~kipeters) Feb. 2017
                 J. Koput, K. A. Peterson, J. Phys. Chem. 106, 9595 (2002)
         Sc-Zn : Obtained from the ccRepo (grant-hill.group.shef.ac.uk/ccrepo) Feb. 2017
                 N. B. Balabanov, K. A. Peterson, J. Chem. Phys. 123, 064107 (2005)
                 N. B. Balabanov, K. A. Peterson, J. Chem. Phys. 125, 074110 (2006)
         Ga-Kr : Obtained from the ccRepo (grant-hill.group.shef.ac.uk/ccrepo) Feb. 2017
                 A. K. Wilson, D. E. Woon, K. A. Peterson, T. H. Dunning, Jr., J. Chem. Phys. 110, 7667 (1999)
             Y : Obtained from the ccRepo (grant-hill.group.shef.ac.uk/ccrepo) Feb. 2017
                 K. A. Peterson, D. Figgen, M. Dolg, H. Stoll, J. Chem. Phys. 126, 124101 (2007)
        Ag, Au : Obtained from the Peterson Research Group Website (tyr0.chem.wsu.edu/~kipeters) Feb. 2017
                 K. A. Peterson, C. Puzzarini, Theor. Chem. Acc. 114, 283 (2005)

----- AuxC basis set information -----
Your calculation utilizes the auxiliary basis: cc-pVTZ/C 
  Obtained from the EMSL Basis Set Exchange (bse.pnl.gov) Feb. 2017
  H-He, B-F, Al-Ar, Ga-Kr : F. Weigend, A. Kohn, C. Hattig, J. Chem. Phys. 116, 3175 (2002)
             Li-Be, Na-Mg : C. Haettig, Phys. Chem. Chem. Phys. 7, 59 (2005)
                       Ne : C. Haettig, Phys. Chem. Chem. Phys. 7, 59 (2005)
                            F. Weigend, A. Kohn, C. Hattig, J. Chem. Phys. 116, 3175 (2002)
                    Sc-Zn : J. G. Hill, J. A. Platts, J. Chem. Phys. 128, 044104 (2008)

================================================================================
                                        WARNINGS
                       Please study these warnings very carefully!
================================================================================


WARNING: No MP2 level density has been requested!
         To caclulate MP2 level properties use
         %mp2 Density relaxed end
         or
         %mp2 Density unrelaxed end

WARNING: Post HF methods need fully converged wavefunctions
  ===> : Setting SCFConvForced true
         You can overwrite this default with %scf ConvForced false 


INFO   : the flag for use of LIBINT has been found!

================================================================================
                                       INPUT FILE
================================================================================
NAME = G2_CONFS/Conf590.orca
|  1> ! ri-mp2 cc-pvtz cc-pvtz/c TightSCF  NoKeepInts
|  2> 
|  3> %scf
|  4>   MaxCore 4096
|  5> end
|  6> *xyz  0  1
|  7>     C       15.7437462   13.7510560   14.9820886
|  8>     C       15.1616132   15.1535795   15.2617195
|  9>     O       15.8784699   15.9900979   16.2111668
| 10>     C       17.0829619   15.7500776   16.8198282
| 11>     O       17.5318527   14.6224714   16.9718956
| 12>     C       17.4977943   16.8644656   17.7471725
| 13>     C       17.1909177   18.1825600   17.4952237
| 14>     C       16.3116072   18.7821534   16.4324019
| 15>     N       17.8980197   19.1559423   18.2292385
| 16>     C       18.9441231   18.9668406   19.0884379
| 17>     S       19.7252223   20.2195143   19.8322329
| 18>     N       19.2944343   17.6611593   19.3175384
| 19>     C       18.6692986   16.5023665   18.6610804
| 20>     C       17.9161350   15.8356258   19.9024656
| 21>     C       18.0846368   14.4373823   20.1322413
| 22>     C       17.4342614   13.7530852   21.1867502
| 23>     C       16.5666790   14.4569202   22.0380167
| 24>     C       16.3556812   15.8244640   21.8105540
| 25>     O       15.5091625   16.5113236   22.6294009
| 26>     C       17.0089622   16.4951147   20.7570784
| 27>     H       16.7501432   13.8656723   14.5499476
| 28>     H       15.1346386   13.2310185   14.2326617
| 29>     H       15.8089343   13.1195723   15.8725460
| 30>     H       14.8914859   15.6656458   14.3350191
| 31>     H       14.2082694   14.9578277   15.7896766
| 32>     H       15.2803442   18.4865776   16.6373617
| 33>     H       16.5823194   18.4391525   15.4235543
| 34>     H       16.3484634   19.8804843   16.4218991
| 35>     H       17.6426461   20.1270056   18.1022508
| 36>     H       20.0805126   17.5276426   19.9419890
| 37>     H       19.2260214   15.6205415   18.4007329
| 38>     H       18.7299799   13.8467940   19.4811987
| 39>     H       17.5974188   12.6803328   21.3489213
| 40>     H       16.0616589   13.9444309   22.8555422
| 41>     H       15.1882880   15.8977482   23.3099424
| 42>     H       16.8102940   17.5453539   20.6242270
| 43> *
| 44> 
| 45>                          ****END OF INPUT****
================================================================================

                       ****************************
                       * Single Point Calculation *
                       ****************************

---------------------------------
CARTESIAN COORDINATES (ANGSTROEM)
---------------------------------
  C     15.743746   13.751056   14.982089
  C     15.161613   15.153579   15.261719
  O     15.878470   15.990098   16.211167
  C     17.082962   15.750078   16.819828
  O     17.531853   14.622471   16.971896
  C     17.497794   16.864466   17.747172
  C     17.190918   18.182560   17.495224
  C     16.311607   18.782153   16.432402
  N     17.898020   19.155942   18.229238
  C     18.944123   18.966841   19.088438
  S     19.725222   20.219514   19.832233
  N     19.294434   17.661159   19.317538
  C     18.669299   16.502367   18.661080
  C     17.916135   15.835626   19.902466
  C     18.084637   14.437382   20.132241
  C     17.434261   13.753085   21.186750
  C     16.566679   14.456920   22.038017
  C     16.355681   15.824464   21.810554
  O     15.509163   16.511324   22.629401
  C     17.008962   16.495115   20.757078
  H     16.750143   13.865672   14.549948
  H     15.134639   13.231018   14.232662
  H     15.808934   13.119572   15.872546
  H     14.891486   15.665646   14.335019
  H     14.208269   14.957828   15.789677
  H     15.280344   18.486578   16.637362
  H     16.582319   18.439152   15.423554
  H     16.348463   19.880484   16.421899
  H     17.642646   20.127006   18.102251
  H     20.080513   17.527643   19.941989
  H     19.226021   15.620541   18.400733
  H     18.729980   13.846794   19.481199
  H     17.597419   12.680333   21.348921
  H     16.061659   13.944431   22.855542
  H     15.188288   15.897748   23.309942
  H     16.810294   17.545354   20.624227

----------------------------
CARTESIAN COORDINATES (A.U.)
----------------------------
  NO LB      ZA    FRAG     MASS         X           Y           Z
   0 C     6.0000    0    12.011   29.751369   25.985730   28.312044
   1 C     6.0000    0    12.011   28.651297   28.636115   28.840470
   2 O     8.0000    0    15.999   30.005960   30.216906   30.634666
   3 C     6.0000    0    12.011   32.282120   29.763333   31.784869
   4 O     8.0000    0    15.999   33.130400   27.632466   32.072235
   5 C     6.0000    0    12.011   33.066039   31.869221   33.537296
   6 C     6.0000    0    12.011   32.486126   34.360059   33.061181
   7 C     6.0000    0    12.011   30.824470   35.493126   31.052739
   8 N     7.0000    0    14.007   33.822356   36.199485   34.448268
   9 C     6.0000    0    12.011   35.799205   35.842134   36.071920
  10 S    16.0000    0    32.060   37.275268   38.209345   37.477489
  11 N     7.0000    0    14.007   36.461197   33.374754   36.504857
  12 C     6.0000    0    12.011   35.279861   31.184953   35.264331
  13 C     6.0000    0    12.011   33.856589   29.924996   37.610209
  14 C     6.0000    0    12.011   34.175011   27.282699   38.044423
  15 C     6.0000    0    12.011   32.945979   25.989565   40.037156
  16 C     6.0000    0    12.011   31.306486   27.319620   41.645816
  17 C     6.0000    0    12.011   30.907758   29.903903   41.215974
  18 O     8.0000    0    15.999   29.308070   31.201880   42.763370
  19 C     6.0000    0    12.011   32.142280   31.171249   39.225194
  20 H     1.0000    0     1.008   31.653183   26.202323   27.495416
  21 H     1.0000    0     1.008   28.600322   25.003001   26.895833
  22 H     1.0000    0     1.008   29.874556   24.792399   29.994765
  23 H     1.0000    0     1.008   28.140830   29.603780   27.089260
  24 H     1.0000    0     1.008   26.849738   28.266198   29.838165
  25 H     1.0000    0     1.008   28.875666   34.934569   31.440057
  26 H     1.0000    0     1.008   31.336042   34.844948   29.146294
  27 H     1.0000    0     1.008   30.894119   37.568671   31.032892
  28 H     1.0000    0     1.008   33.339769   38.034528   34.208296
  29 H     1.0000    0     1.008   37.946669   33.122444   37.684898
  30 H     1.0000    0     1.008   36.331915   29.518545   34.772346
  31 H     1.0000    0     1.008   35.394533   26.166648   36.814130
  32 H     1.0000    0     1.008   33.254302   23.962356   40.343615
  33 H     1.0000    0     1.008   30.352137   26.351155   43.190715
  34 H     1.0000    0     1.008   28.701705   30.042390   44.049407
  35 H     1.0000    0     1.008   31.766852   33.155914   38.974141

--------------------------------
INTERNAL COORDINATES (ANGSTROEM)
--------------------------------
 C      0   0   0     0.000000000000     0.00000000     0.00000000
 C      1   0   0     1.544067497869     0.00000000     0.00000000
 O      2   1   0     1.454337215831   117.05576382     0.00000000
 C      3   2   1     1.370722226538   128.48459625     6.23524626
 O      4   3   2     1.223161145044   122.62355396   336.30348648
 C      4   3   2     1.507950259583   112.66889918   180.00000241
 C      6   4   3     1.376598813293   122.25728568   326.47544727
 C      7   6   4     1.504090881326   129.89266614     7.63408126
 N      7   6   4     1.409341714055   117.00982570   195.41099164
 C      9   7   6     1.366863338229   128.01140747     6.23912561
 S     10   9   7     1.653039128677   122.65886433   177.13261760
 N     10   9   7     1.371134068250   115.61412156   355.97751560
 C     12  10   9     1.471235026265   124.53579129     3.01902319
 C     13  12  10     1.597759614016   100.50369716   248.00049190
 C     14  13  12     1.426980943883   118.57688413   229.34481639
 C     15  14  13     1.415358506589   122.64632383   181.48500529
 C     16  15  14     1.404541769417   119.54592318     1.11057167
 C     17  16  15     1.402296472368   118.90287620     0.66599869
 O     18  17  16     1.363407593202   119.16318197   179.66073402
 C     18  17  16     1.409382583320   121.03459893   359.32710903
 H      1   2   3     1.101234607936   108.72777577   298.32563950
 H      1   2   3     1.096855390755   110.18351241   181.61798946
 H      1   2   3     1.093588374555   113.54818511    59.80992428
 H      2   1   3     1.092682151937   111.42516872   133.63969895
 H      2   1   3     1.107213560088   104.50023291   247.59014857
 H      8   7   6     1.092189062539   108.15046612    67.17896889
 H      8   7   6     1.099412658039   112.33929318   307.23859068
 H      8   7   6     1.098999296715   112.67767755   186.10086133
 H      9   7   6     1.012079781507   118.08152927   184.00053889
 H     12  10   9     1.012760758891   115.26905914   178.96141194
 H     13  12  10     1.074865771816   122.28791963   144.97305342
 H     15  14  13     1.090467204380   120.29363182     1.11820020
 H     16  15  14     1.097140608380   120.96570682   181.08029238
 H     17  16  15     1.089053959714   120.37092693   180.19192329
 H     19  18  17     0.970861447096   107.92745997     2.06597873
 H     20  18  17     1.077089098167   118.07872616   179.86163635

---------------------------
INTERNAL COORDINATES (A.U.)
---------------------------
 C      0   0   0     0.000000000000     0.00000000     0.00000000
 C      1   0   0     2.917864703262     0.00000000     0.00000000
 O      2   1   0     2.748299044290   117.05576382     0.00000000
 C      3   2   1     2.590289613836   128.48459625     6.23524626
 O      4   3   2     2.311439581787   122.62355396   336.30348648
 C      4   3   2     2.849613014187   112.66889918   180.00000241
 C      6   4   3     2.601394753405   122.25728568   326.47544727
 C      7   6   4     2.842319846235   129.89266614     7.63408126
 N      7   6   4     2.663269868676   117.00982570   195.41099164
 C      9   7   6     2.582997371750   128.01140747     6.23912561
 S     10   9   7     3.123791241855   122.65886433   177.13261760
 N     10   9   7     2.591067881882   115.61412156   355.97751560
 C     12  10   9     2.780231278274   124.53579129     3.01902319
 C     13  12  10     3.019328098330   100.50369716   248.00049190
 C     14  13  12     2.696603182264   118.57688413   229.34481639
 C     15  14  13     2.674639958768   122.64632383   181.48500529
 C     16  15  14     2.654199287851   119.54592318     1.11057167
 C     17  16  15     2.649956291339   118.90287620     0.66599869
 O     18  17  16     2.576466960061   119.16318197   179.66073402
 C     18  17  16     2.663347100394   121.03459893   359.32710903
 H      1   2   3     2.081031818195   108.72777577   298.32563950
 H      1   2   3     2.072756297042   110.18351241   181.61798946
 H      1   2   3     2.066582531149   113.54818511    59.80992428
 H      2   1   3     2.064870018584   111.42516872   133.63969895
 H      2   1   3     2.092330400330   104.50023291   247.59014857
 H      8   7   6     2.063938214664   108.15046612    67.17896889
 H      8   7   6     2.077588831859   112.33929318   307.23859068
 H      8   7   6     2.076807692164   112.67767755   186.10086133
 H      9   7   6     1.912553612727   118.08152927   184.00053889
 H     12  10   9     1.913840473487   115.26905914   178.96141194
 H     13  12  10     2.031201939458   122.28791963   144.97305342
 H     15  14  13     2.060684374302   120.29363182     1.11820020
 H     16  15  14     2.073295280241   120.96570682   181.08029238
 H     17  16  15     2.058013728922   120.37092693   180.19192329
 H     19  18  17     1.834662248994   107.92745997     2.06597873
 H     20  18  17     2.035403417368   118.07872616   179.86163635

---------------------
BASIS SET INFORMATION
---------------------
There are 5 groups of distinct atoms

 Group   1 Type C   : 18s5p2d1f contracted to 4s3p2d1f pattern {8811/311/11/1}
 Group   2 Type O   : 18s5p2d1f contracted to 4s3p2d1f pattern {8811/311/11/1}
 Group   3 Type N   : 18s5p2d1f contracted to 4s3p2d1f pattern {8811/311/11/1}
 Group   4 Type S   : 41s16p2d1f contracted to 5s4p2d1f pattern {13131311/7711/11/1}
 Group   5 Type H   : 5s2p1d contracted to 3s2p1d pattern {311/11/1}

Atom   0C    basis set group =>   1
Atom   1C    basis set group =>   1
Atom   2O    basis set group =>   2
Atom   3C    basis set group =>   1
Atom   4O    basis set group =>   2
Atom   5C    basis set group =>   1
Atom   6C    basis set group =>   1
Atom   7C    basis set group =>   1
Atom   8N    basis set group =>   3
Atom   9C    basis set group =>   1
Atom  10S    basis set group =>   4
Atom  11N    basis set group =>   3
Atom  12C    basis set group =>   1
Atom  13C    basis set group =>   1
Atom  14C    basis set group =>   1
Atom  15C    basis set group =>   1
Atom  16C    basis set group =>   1
Atom  17C    basis set group =>   1
Atom  18O    basis set group =>   2
Atom  19C    basis set group =>   1
Atom  20H    basis set group =>   5
Atom  21H    basis set group =>   5
Atom  22H    basis set group =>   5
Atom  23H    basis set group =>   5
Atom  24H    basis set group =>   5
Atom  25H    basis set group =>   5
Atom  26H    basis set group =>   5
Atom  27H    basis set group =>   5
Atom  28H    basis set group =>   5
Atom  29H    basis set group =>   5
Atom  30H    basis set group =>   5
Atom  31H    basis set group =>   5
Atom  32H    basis set group =>   5
Atom  33H    basis set group =>   5
Atom  34H    basis set group =>   5
Atom  35H    basis set group =>   5
---------------------------------
AUXILIARY/C BASIS SET INFORMATION
---------------------------------
There are 5 groups of distinct atoms

 Group   1 Type C   : 8s6p5d3f1g contracted to 8s6p5d3f1g pattern {11111111/111111/11111/111/1}
 Group   2 Type O   : 8s6p5d3f1g contracted to 8s6p5d3f1g pattern {11111111/111111/11111/111/1}
 Group   3 Type N   : 8s6p5d3f1g contracted to 8s6p5d3f1g pattern {11111111/111111/11111/111/1}
 Group   4 Type S   : 10s8p7d5f2g contracted to 10s8p7d5f2g pattern {1111111111/11111111/1111111/11111/11}
 Group   5 Type H   : 4s3p2d1f contracted to 4s3p2d1f pattern {1111/111/11/1}

Atom   0C    basis set group =>   1
Atom   1C    basis set group =>   1
Atom   2O    basis set group =>   2
Atom   3C    basis set group =>   1
Atom   4O    basis set group =>   2
Atom   5C    basis set group =>   1
Atom   6C    basis set group =>   1
Atom   7C    basis set group =>   1
Atom   8N    basis set group =>   3
Atom   9C    basis set group =>   1
Atom  10S    basis set group =>   4
Atom  11N    basis set group =>   3
Atom  12C    basis set group =>   1
Atom  13C    basis set group =>   1
Atom  14C    basis set group =>   1
Atom  15C    basis set group =>   1
Atom  16C    basis set group =>   1
Atom  17C    basis set group =>   1
Atom  18O    basis set group =>   2
Atom  19C    basis set group =>   1
Atom  20H    basis set group =>   5
Atom  21H    basis set group =>   5
Atom  22H    basis set group =>   5
Atom  23H    basis set group =>   5
Atom  24H    basis set group =>   5
Atom  25H    basis set group =>   5
Atom  26H    basis set group =>   5
Atom  27H    basis set group =>   5
Atom  28H    basis set group =>   5
Atom  29H    basis set group =>   5
Atom  30H    basis set group =>   5
Atom  31H    basis set group =>   5
Atom  32H    basis set group =>   5
Atom  33H    basis set group =>   5
Atom  34H    basis set group =>   5
Atom  35H    basis set group =>   5
------------------------------------------------------------------------------
                           ORCA GTO INTEGRAL CALCULATION
------------------------------------------------------------------------------

                         BASIS SET STATISTICS AND STARTUP INFO

 # of primitive gaussian shells          ...  682
 # of primitive gaussian functions       ... 1312
 # of contracted shells                  ...  298
 # of contracted basis functions         ...  828
 Highest angular momentum                ...    3
 Maximum contraction depth               ...   13
 Integral package used                   ... LIBINT
 Integral threshhold            Thresh   ...  2.500e-11
 Primitive cut-off              TCut     ...  2.500e-12


------------------------------ INTEGRAL EVALUATION ----------------------------


 * One electron integrals 
 Pre-screening matrix                    ... done
 Shell pair data                         ... done (   0.013 sec)

-------------------------------------------------------------------------------
                                 ORCA SCF
-------------------------------------------------------------------------------

------------
SCF SETTINGS
------------
Hamiltonian:
 Ab initio Hamiltonian  Method          .... Hartree-Fock(GTOs)


General Settings:
 Integral files         IntName         .... G2_CONFS/Conf590.orca
 Hartree-Fock type      HFTyp           .... RHF
 Total Charge           Charge          ....    0
 Multiplicity           Mult            ....    1
 Number of Electrons    NEL             ....  154
 Basis Dimension        Dim             ....  828
 Nuclear Repulsion      ENuc            ....   1684.7301118552 Eh

Convergence Acceleration:
 DIIS                   CNVDIIS         .... on
   Start iteration      DIISMaxIt       ....    12
   Startup error        DIISStart       ....  0.200000
   # of expansion vecs  DIISMaxEq       ....     5
   Bias factor          DIISBfac        ....   1.050
   Max. coefficient     DIISMaxC        ....  10.000
 Newton-Raphson         CNVNR           .... off
 SOSCF                  CNVSOSCF        .... on
   Start iteration      SOSCFMaxIt      ....   150
   Startup grad/error   SOSCFStart      ....  0.003300
 Level Shifting         CNVShift        .... on
   Level shift para.    LevelShift      ....    0.2500
   Turn off err/grad.   ShiftErr        ....    0.0010
 Zerner damping         CNVZerner       .... off
 Static damping         CNVDamp         .... on
   Fraction old density DampFac         ....    0.7000
   Max. Damping (<1)    DampMax         ....    0.9800
   Min. Damping (>=0)   DampMin         ....    0.0000
   Turn off err/grad.   DampErr         ....    0.1000
 Fernandez-Rico         CNVRico         .... off

SCF Procedure:
 Maximum # iterations   MaxIter         ....   125
 SCF integral mode      SCFMode         .... Direct
   Integral package                     .... LIBINT
 Reset frequency        DirectResetFreq ....    20
 Integral Threshold     Thresh          ....  2.500e-11 Eh
 Primitive CutOff       TCut            ....  2.500e-12 Eh

Convergence Tolerance:
 Convergence Check Mode ConvCheckMode   .... Total+1el-Energy
 Convergence forced     ConvForced      .... 1
 Energy Change          TolE            ....  1.000e-08 Eh
 1-El. energy change                    ....  1.000e-05 Eh
 Orbital Gradient       TolG            ....  1.000e-05
 Orbital Rotation angle TolX            ....  1.000e-05
 DIIS Error             TolErr          ....  5.000e-07


Diagonalization of the overlap matrix:
Smallest eigenvalue                        ... 3.506e-05
Time for diagonalization                   ...    0.120 sec
Threshold for overlap eigenvalues          ... 1.000e-08
Number of eigenvalues below threshold      ... 0
Time for construction of square roots      ...    0.068 sec
Total time needed                          ...    0.190 sec

-------------------
DFT GRID GENERATION
-------------------

General Integration Accuracy     IntAcc      ...  4.340
Radial Grid Type                 RadialGrid  ... Gauss-Chebyshev
Angular Grid (max. acc.)         AngularGrid ... Lebedev-110
Angular grid pruning method      GridPruning ... 3 (G Style)
Weight generation scheme         WeightScheme... Becke
Basis function cutoff            BFCut       ...    1.0000e-11
Integration weight cutoff        WCut        ...    1.0000e-14
Grids for H and He will be reduced by one unit

# of grid points (after initial pruning)     ...  46246 (   0.0 sec)
# of grid points (after weights+screening)   ...  41389 (   0.3 sec)
nearest neighbour list constructed           ...    0.0 sec
Grid point re-assignment to atoms done       ...    0.0 sec
Grid point division into batches done        ...    0.0 sec
Reduced shell lists constructed in    0.9 sec

Total number of grid points                  ...    41389
Total number of batches                      ...      665
Average number of points per batch           ...       62
Average number of grid points per atom       ...     1150
Average number of shells per batch           ...   143.38 (48.11%)
Average number of basis functions per batch  ...   364.62 (44.04%)
Average number of large shells per batch     ...    91.59 (63.88%)
Average number of large basis fcns per batch ...   236.93 (64.98%)
Maximum spatial batch extension              ...  20.59, 20.46, 19.14 au
Average spatial batch extension              ...   3.56,  3.23,  3.27 au

Time for grid setup =    1.276 sec

------------------------------
INITIAL GUESS: MODEL POTENTIAL
------------------------------
Loading Hartree-Fock densities                     ... done
Calculating cut-offs                               ... done
Setting up the integral package                    ... done
Initializing the effective Hamiltonian             ... done
Starting the Coulomb interaction                   ... done (   3.0 sec)
Reading the grid                                   ... done
Mapping shells                                     ... done
Starting the XC term evaluation                    ... done (   1.3 sec)
Transforming the Hamiltonian                       ... done (   0.1 sec)
Diagonalizing the Hamiltonian                      ... done (   0.1 sec)
Back transforming the eigenvectors                 ... done (   0.0 sec)
Now organizing SCF variables                       ... done
                      ------------------
                      INITIAL GUESS DONE (   6.1 sec)
                      ------------------
--------------
SCF ITERATIONS
--------------
ITER       Energy         Delta-E        Max-DP      RMS-DP      [F,P]     Damp
               ***  Starting incremental Fock matrix formation  ***
  0  -1269.9503493522   0.000000000000 0.04940555  0.00043507  0.3119979 0.7000
  1  -1270.2196868446  -0.269337492389 0.03613622  0.00034995  0.1811154 0.7000
                               ***Turning on DIIS***
  2  -1270.3870721847  -0.167385340121 0.02587049  0.00023537  0.1098347 0.7000
  3  -1272.5225393629  -2.135467178181 0.06318031  0.00051125  0.0830388 0.0000
  4  -1270.6992481305   1.823291232407 0.00680936  0.00009405  0.0071767 0.0000
  5  -1270.7616963252  -0.062448194724 0.00395673  0.00004915  0.0039411 0.0000
                      *** Initiating the SOSCF procedure ***
                           *** Shutting down DIIS ***
                      *** Re-Reading the Fockian *** 
                      *** Removing any level shift *** 
ITER      Energy       Delta-E        Grad      Rot      Max-DP    RMS-DP
  6  -1270.73627430   0.0254220250  0.001398  0.001398  0.001880  0.000026
               *** Restarting incremental Fock matrix formation ***
  7  -1270.75091226  -0.0146379611  0.000767  0.002020  0.001253  0.000016
  8  -1270.75096386  -0.0000515975  0.000376  0.002488  0.001405  0.000018
  9  -1270.75098359  -0.0000197300  0.000152  0.000404  0.000368  0.000004
 10  -1270.75098617  -0.0000025779  0.000046  0.000128  0.000121  0.000001
 11  -1270.75098642  -0.0000002560  0.000024  0.000137  0.000082  0.000001
 12  -1270.75098650  -0.0000000749  0.000010  0.000039  0.000028  0.000000
 13  -1270.75098650  -0.0000000039  0.000003  0.000008  0.000008  0.000000
                  ***Gradient check signals convergence***
              ***Rediagonalizing the Fockian in SOSCF/NRSCF***

               *****************************************************
               *                     SUCCESS                       *
               *           SCF CONVERGED AFTER  14 CYCLES          *
               *****************************************************


----------------
TOTAL SCF ENERGY
----------------

Total Energy       :        -1270.75098649 Eh          -34578.89230 eV

Components:
Nuclear Repulsion  :         1684.73011186 Eh           45843.83700 eV
Electronic Energy  :        -2955.48109835 Eh          -80422.72930 eV
One Electron Energy:        -5091.13492617 Eh         -138536.82442 eV
Two Electron Energy:         2135.65382782 Eh           58114.09512 eV

Virial components:
Potential Energy   :        -2539.42053045 Eh          -69101.14567 eV
Kinetic Energy     :         1268.66954396 Eh           34522.25337 eV
Virial Ratio       :            2.00164065


---------------
SCF CONVERGENCE
---------------

  Last Energy change         ...    8.0754e-09  Tolerance :   1.0000e-08
  Last MAX-Density change    ...    2.4629e-06  Tolerance :   1.0000e-07
  Last RMS-Density change    ...    3.5029e-08  Tolerance :   5.0000e-09
  Last Orbital Gradient      ...    1.0515e-06  Tolerance :   1.0000e-05
  Last Orbital Rotation      ...    3.2816e-06  Tolerance :   1.0000e-05

             **** THE GBW FILE WAS UPDATED (G2_CONFS/Conf590.orca.gbw) ****
             **** DENSITY FILE WAS UPDATED (G2_CONFS/Conf590.orca.scfp) ****
             **** ENERGY FILE WAS UPDATED (G2_CONFS/Conf590.orca.en.tmp) ****
             **** THE GBW FILE WAS UPDATED (G2_CONFS/Conf590.orca.gbw) ****
             **** DENSITY FILE WAS UPDATED (G2_CONFS/Conf590.orca.scfp) ****
----------------
ORBITAL ENERGIES
----------------

  NO   OCC          E(Eh)            E(eV) 
   0   2.0000     -91.890164     -2500.4585 
   1   2.0000     -20.601767      -560.6026 
   2   2.0000     -20.585386      -560.1568 
   3   2.0000     -20.543294      -559.0115 
   4   2.0000     -15.628938      -425.2850 
   5   2.0000     -15.610522      -424.7839 
   6   2.0000     -11.398618      -310.1722 
   7   2.0000     -11.385186      -309.8067 
   8   2.0000     -11.342108      -308.6344 
   9   2.0000     -11.311531      -307.8024 
  10   2.0000     -11.307550      -307.6941 
  11   2.0000     -11.303414      -307.5815 
  12   2.0000     -11.265949      -306.5621 
  13   2.0000     -11.263398      -306.4926 
  14   2.0000     -11.251263      -306.1624 
  15   2.0000     -11.243583      -305.9535 
  16   2.0000     -11.230951      -305.6097 
  17   2.0000     -11.227676      -305.5206 
  18   2.0000     -11.226652      -305.4927 
  19   2.0000     -11.225950      -305.4736 
  20   2.0000      -8.895175      -242.0500 
  21   2.0000      -6.576756      -178.9626 
  22   2.0000      -6.574724      -178.9073 
  23   2.0000      -6.574145      -178.8916 
  24   2.0000      -1.445566       -39.3358 
  25   2.0000      -1.401863       -38.1466 
  26   2.0000      -1.354074       -36.8462 
  27   2.0000      -1.339711       -36.4554 
  28   2.0000      -1.237568       -33.6759 
  29   2.0000      -1.143191       -31.1078 
  30   2.0000      -1.116720       -30.3875 
  31   2.0000      -1.039954       -28.2986 
  32   2.0000      -1.035557       -28.1790 
  33   2.0000      -1.002151       -27.2699 
  34   2.0000      -0.992534       -27.0082 
  35   2.0000      -0.982748       -26.7419 
  36   2.0000      -0.921550       -25.0767 
  37   2.0000      -0.897298       -24.4167 
  38   2.0000      -0.852096       -23.1867 
  39   2.0000      -0.827305       -22.5121 
  40   2.0000      -0.819640       -22.3035 
  41   2.0000      -0.813547       -22.1377 
  42   2.0000      -0.740405       -20.1474 
  43   2.0000      -0.727186       -19.7877 
  44   2.0000      -0.713589       -19.4177 
  45   2.0000      -0.692293       -18.8383 
  46   2.0000      -0.680732       -18.5237 
  47   2.0000      -0.676817       -18.4171 
  48   2.0000      -0.672136       -18.2898 
  49   2.0000      -0.662933       -18.0393 
  50   2.0000      -0.650275       -17.6949 
  51   2.0000      -0.643028       -17.4977 
  52   2.0000      -0.634059       -17.2536 
  53   2.0000      -0.600700       -16.3459 
  54   2.0000      -0.598019       -16.2729 
  55   2.0000      -0.592619       -16.1260 
  56   2.0000      -0.588441       -16.0123 
  57   2.0000      -0.585306       -15.9270 
  58   2.0000      -0.572879       -15.5888 
  59   2.0000      -0.566893       -15.4259 
  60   2.0000      -0.552280       -15.0283 
  61   2.0000      -0.545952       -14.8561 
  62   2.0000      -0.539796       -14.6886 
  63   2.0000      -0.524240       -14.2653 
  64   2.0000      -0.513667       -13.9776 
  65   2.0000      -0.505670       -13.7600 
  66   2.0000      -0.497618       -13.5409 
  67   2.0000      -0.490256       -13.3406 
  68   2.0000      -0.476569       -12.9681 
  69   2.0000      -0.457597       -12.4518 
  70   2.0000      -0.448023       -12.1913 
  71   2.0000      -0.445100       -12.1118 
  72   2.0000      -0.346654        -9.4329 
  73   2.0000      -0.338719        -9.2170 
  74   2.0000      -0.328312        -8.9338 
  75   2.0000      -0.311931        -8.4881 
  76   2.0000      -0.305145        -8.3034 
  77   0.0000       0.068543         1.8651 
  78   0.0000       0.118147         3.2149 
  79   0.0000       0.119590         3.2542 
  80   0.0000       0.138003         3.7552 
  81   0.0000       0.140291         3.8175 
  82   0.0000       0.148678         4.0457 
  83   0.0000       0.154436         4.2024 
  84   0.0000       0.161269         4.3883 
  85   0.0000       0.165569         4.5054 
  86   0.0000       0.169033         4.5996 
  87   0.0000       0.181204         4.9308 
  88   0.0000       0.185296         5.0421 
  89   0.0000       0.196661         5.3514 
  90   0.0000       0.200226         5.4484 
  91   0.0000       0.206702         5.6247 
  92   0.0000       0.210637         5.7317 
  93   0.0000       0.220306         5.9948 
  94   0.0000       0.225883         6.1466 
  95   0.0000       0.236548         6.4368 
  96   0.0000       0.242560         6.6004 
  97   0.0000       0.244319         6.6482 
  98   0.0000       0.248969         6.7748 
  99   0.0000       0.262831         7.1520 
 100   0.0000       0.278865         7.5883 
 101   0.0000       0.295397         8.0381 
 102   0.0000       0.315743         8.5918 
 103   0.0000       0.322452         8.7744 
 104   0.0000       0.326902         8.8955 
 105   0.0000       0.333045         9.0626 
 106   0.0000       0.337961         9.1964 
 107   0.0000       0.357325         9.7233 
 108   0.0000       0.362287         9.8583 
 109   0.0000       0.366383         9.9698 
 110   0.0000       0.371812        10.1175 
 111   0.0000       0.375604        10.2207 
 112   0.0000       0.386072        10.5056 
 113   0.0000       0.398576        10.8458 
 114   0.0000       0.402870        10.9626 
 115   0.0000       0.409877        11.1533 
 116   0.0000       0.415051        11.2941 
 117   0.0000       0.429304        11.6820 
 118   0.0000       0.430836        11.7236 
 119   0.0000       0.435028        11.8377 
 120   0.0000       0.440148        11.9770 
 121   0.0000       0.451464        12.2850 
 122   0.0000       0.454559        12.3692 
 123   0.0000       0.460534        12.5318 
 124   0.0000       0.460999        12.5444 
 125   0.0000       0.465679        12.6718 
 126   0.0000       0.477336        12.9890 
 127   0.0000       0.483065        13.1449 
 128   0.0000       0.488491        13.2925 
 129   0.0000       0.497064        13.5258 
 130   0.0000       0.502195        13.6654 
 131   0.0000       0.508820        13.8457 
 132   0.0000       0.511712        13.9244 
 133   0.0000       0.516284        14.0488 
 134   0.0000       0.523832        14.2542 
 135   0.0000       0.526871        14.3369 
 136   0.0000       0.537816        14.6347 
 137   0.0000       0.538336        14.6489 
 138   0.0000       0.546343        14.8667 
 139   0.0000       0.547927        14.9099 
 140   0.0000       0.552100        15.0234 
 141   0.0000       0.558091        15.1864 
 142   0.0000       0.563819        15.3423 
 143   0.0000       0.568729        15.4759 
 144   0.0000       0.573866        15.6157 
 145   0.0000       0.580409        15.7937 
 146   0.0000       0.586832        15.9685 
 147   0.0000       0.588051        16.0017 
 148   0.0000       0.596110        16.2210 
 149   0.0000       0.599720        16.3192 
 150   0.0000       0.602521        16.3954 
 151   0.0000       0.605381        16.4732 
 152   0.0000       0.606501        16.5037 
 153   0.0000       0.609578        16.5875 
 154   0.0000       0.622200        16.9309 
 155   0.0000       0.625471        17.0199 
 156   0.0000       0.629690        17.1347 
 157   0.0000       0.633073        17.2268 
 158   0.0000       0.635153        17.2834 
 159   0.0000       0.639769        17.4090 
 160   0.0000       0.645660        17.5693 
 161   0.0000       0.650476        17.7004 
 162   0.0000       0.655292        17.8314 
 163   0.0000       0.663573        18.0567 
 164   0.0000       0.666506        18.1365 
 165   0.0000       0.666963        18.1490 
 166   0.0000       0.674746        18.3608 
 167   0.0000       0.682844        18.5811 
 168   0.0000       0.683983        18.6121 
 169   0.0000       0.690240        18.7824 
 170   0.0000       0.699889        19.0449 
 171   0.0000       0.705549        19.1990 
 172   0.0000       0.711637        19.3646 
 173   0.0000       0.714916        19.4538 
 174   0.0000       0.725229        19.7345 
 175   0.0000       0.732851        19.9419 
 176   0.0000       0.734044        19.9743 
 177   0.0000       0.739305        20.1175 
 178   0.0000       0.747712        20.3463 
 179   0.0000       0.752285        20.4707 
 180   0.0000       0.760588        20.6966 
 181   0.0000       0.767355        20.8808 
 182   0.0000       0.771433        20.9918 
 183   0.0000       0.777185        21.1483 
 184   0.0000       0.803122        21.8541 
 185   0.0000       0.809156        22.0183 
 186   0.0000       0.816414        22.2158 
 187   0.0000       0.824437        22.4341 
 188   0.0000       0.827587        22.5198 
 189   0.0000       0.831784        22.6340 
 190   0.0000       0.842094        22.9145 
 191   0.0000       0.847722        23.0677 
 192   0.0000       0.858717        23.3669 
 193   0.0000       0.866205        23.5706 
 194   0.0000       0.875081        23.8122 
 195   0.0000       0.880530        23.9604 
 196   0.0000       0.891149        24.2494 
 197   0.0000       0.897577        24.4243 
 198   0.0000       0.899069        24.4649 
 199   0.0000       0.905962        24.6525 
 200   0.0000       0.912634        24.8340 
 201   0.0000       0.915275        24.9059 
 202   0.0000       0.923955        25.1421 
 203   0.0000       0.933373        25.3984 
 204   0.0000       0.939032        25.5524 
 205   0.0000       0.947983        25.7959 
 206   0.0000       0.950952        25.8767 
 207   0.0000       0.960279        26.1305 
 208   0.0000       0.969246        26.3745 
 209   0.0000       0.977581        26.6013 
 210   0.0000       0.981122        26.6977 
 211   0.0000       0.983613        26.7655 
 212   0.0000       0.995241        27.0819 
 213   0.0000       1.000945        27.2371 
 214   0.0000       1.004141        27.3241 
 215   0.0000       1.009248        27.4630 
 216   0.0000       1.017354        27.6836 
 217   0.0000       1.030132        28.0313 
 218   0.0000       1.033791        28.1309 
 219   0.0000       1.044199        28.4141 
 220   0.0000       1.047961        28.5165 
 221   0.0000       1.062810        28.9205 
 222   0.0000       1.072740        29.1907 
 223   0.0000       1.084655        29.5150 
 224   0.0000       1.088837        29.6288 
 225   0.0000       1.098058        29.8797 
 226   0.0000       1.098887        29.9022 
 227   0.0000       1.104683        30.0599 
 228   0.0000       1.117102        30.3979 
 229   0.0000       1.126379        30.6503 
 230   0.0000       1.130518        30.7629 
 231   0.0000       1.137532        30.9538 
 232   0.0000       1.141214        31.0540 
 233   0.0000       1.150293        31.3011 
 234   0.0000       1.158720        31.5304 
 235   0.0000       1.161806        31.6143 
 236   0.0000       1.172264        31.8989 
 237   0.0000       1.177817        32.0500 
 238   0.0000       1.179550        32.0972 
 239   0.0000       1.192020        32.4365 
 240   0.0000       1.193942        32.4888 
 241   0.0000       1.199883        32.6505 
 242   0.0000       1.209952        32.9245 
 243   0.0000       1.214662        33.0526 
 244   0.0000       1.222404        33.2633 
 245   0.0000       1.228077        33.4177 
 246   0.0000       1.230836        33.4928 
 247   0.0000       1.240143        33.7460 
 248   0.0000       1.242500        33.8101 
 249   0.0000       1.255418        34.1617 
 250   0.0000       1.263192        34.3732 
 251   0.0000       1.271512        34.5996 
 252   0.0000       1.272637        34.6302 
 253   0.0000       1.285915        34.9915 
 254   0.0000       1.292065        35.1589 
 255   0.0000       1.297015        35.2936 
 256   0.0000       1.302119        35.4325 
 257   0.0000       1.309750        35.6401 
 258   0.0000       1.314837        35.7785 
 259   0.0000       1.333896        36.2972 
 260   0.0000       1.342534        36.5322 
 261   0.0000       1.350280        36.7430 
 262   0.0000       1.356368        36.9086 
 263   0.0000       1.368239        37.2317 
 264   0.0000       1.374176        37.3932 
 265   0.0000       1.380348        37.5612 
 266   0.0000       1.380688        37.5704 
 267   0.0000       1.394327        37.9416 
 268   0.0000       1.408387        38.3241 
 269   0.0000       1.410381        38.3784 
 270   0.0000       1.421600        38.6837 
 271   0.0000       1.431957        38.9655 
 272   0.0000       1.438625        39.1470 
 273   0.0000       1.439354        39.1668 
 274   0.0000       1.446881        39.3716 
 275   0.0000       1.457936        39.6725 
 276   0.0000       1.458805        39.6961 
 277   0.0000       1.470793        40.0223 
 278   0.0000       1.473861        40.1058 
 279   0.0000       1.482246        40.3340 
 280   0.0000       1.494164        40.6583 
 281   0.0000       1.497625        40.7525 
 282   0.0000       1.503291        40.9066 
 283   0.0000       1.512996        41.1707 
 284   0.0000       1.517779        41.3009 
 285   0.0000       1.526922        41.5497 
 286   0.0000       1.532215        41.6937 
 287   0.0000       1.543589        42.0032 
 288   0.0000       1.544424        42.0259 
 289   0.0000       1.551324        42.2137 
 290   0.0000       1.558347        42.4048 
 291   0.0000       1.566652        42.6308 
 292   0.0000       1.569741        42.7148 
 293   0.0000       1.577607        42.9289 
 294   0.0000       1.582818        43.0707 
 295   0.0000       1.587897        43.2089 
 296   0.0000       1.607446        43.7408 
 297   0.0000       1.608850        43.7790 
 298   0.0000       1.616220        43.9796 
 299   0.0000       1.629127        44.3308 
 300   0.0000       1.634097        44.4660 
 301   0.0000       1.641679        44.6724 
 302   0.0000       1.647104        44.8200 
 303   0.0000       1.655104        45.0377 
 304   0.0000       1.660034        45.1718 
 305   0.0000       1.662415        45.2366 
 306   0.0000       1.672183        45.5024 
 307   0.0000       1.680839        45.7380 
 308   0.0000       1.692642        46.0591 
 309   0.0000       1.694521        46.1103 
 310   0.0000       1.709267        46.5115 
 311   0.0000       1.718677        46.7676 
 312   0.0000       1.722383        46.8684 
 313   0.0000       1.735958        47.2378 
 314   0.0000       1.744408        47.4678 
 315   0.0000       1.746694        47.5300 
 316   0.0000       1.752339        47.6836 
 317   0.0000       1.768728        48.1295 
 318   0.0000       1.778154        48.3860 
 319   0.0000       1.788825        48.6764 
 320   0.0000       1.792982        48.7895 
 321   0.0000       1.808133        49.2018 
 322   0.0000       1.817862        49.4665 
 323   0.0000       1.822380        49.5895 
 324   0.0000       1.844005        50.1779 
 325   0.0000       1.860150        50.6173 
 326   0.0000       1.879170        51.1348 
 327   0.0000       1.890932        51.4549 
 328   0.0000       1.900291        51.7095 
 329   0.0000       1.903097        51.7859 
 330   0.0000       1.907614        51.9088 
 331   0.0000       1.933227        52.6058 
 332   0.0000       1.935915        52.6789 
 333   0.0000       1.941067        52.8191 
 334   0.0000       1.953545        53.1587 
 335   0.0000       1.965349        53.4799 
 336   0.0000       1.979755        53.8719 
 337   0.0000       1.996069        54.3158 
 338   0.0000       2.004310        54.5400 
 339   0.0000       2.013848        54.7996 
 340   0.0000       2.021488        55.0075 
 341   0.0000       2.036655        55.4202 
 342   0.0000       2.051009        55.8108 
 343   0.0000       2.066530        56.2331 
 344   0.0000       2.096003        57.0351 
 345   0.0000       2.103287        57.2333 
 346   0.0000       2.121638        57.7327 
 347   0.0000       2.134660        58.0871 
 348   0.0000       2.150263        58.5116 
 349   0.0000       2.178766        59.2872 
 350   0.0000       2.190368        59.6029 
 351   0.0000       2.193785        59.6959 
 352   0.0000       2.209669        60.1281 
 353   0.0000       2.222431        60.4754 
 354   0.0000       2.238426        60.9107 
 355   0.0000       2.251205        61.2584 
 356   0.0000       2.277391        61.9710 
 357   0.0000       2.286864        62.2287 
 358   0.0000       2.307247        62.7834 
 359   0.0000       2.308946        62.8296 
 360   0.0000       2.312445        62.9248 
 361   0.0000       2.318516        63.0900 
 362   0.0000       2.329188        63.3804 
 363   0.0000       2.342879        63.7530 
 364   0.0000       2.359698        64.2106 
 365   0.0000       2.368224        64.4427 
 366   0.0000       2.377581        64.6973 
 367   0.0000       2.383665        64.8628 
 368   0.0000       2.396121        65.2018 
 369   0.0000       2.421154        65.8829 
 370   0.0000       2.436752        66.3074 
 371   0.0000       2.445804        66.5537 
 372   0.0000       2.455766        66.8248 
 373   0.0000       2.473627        67.3108 
 374   0.0000       2.477799        67.4243 
 375   0.0000       2.487432        67.6865 
 376   0.0000       2.514164        68.4139 
 377   0.0000       2.521227        68.6061 
 378   0.0000       2.542766        69.1922 
 379   0.0000       2.555121        69.5284 
 380   0.0000       2.560702        69.6803 
 381   0.0000       2.582804        70.2817 
 382   0.0000       2.586605        70.3851 
 383   0.0000       2.594143        70.5902 
 384   0.0000       2.601393        70.7875 
 385   0.0000       2.616335        71.1941 
 386   0.0000       2.626377        71.4674 
 387   0.0000       2.645004        71.9742 
 388   0.0000       2.653850        72.2149 
 389   0.0000       2.666740        72.5657 
 390   0.0000       2.674586        72.7792 
 391   0.0000       2.682167        72.9855 
 392   0.0000       2.696679        73.3804 
 393   0.0000       2.703140        73.5562 
 394   0.0000       2.711345        73.7795 
 395   0.0000       2.730218        74.2930 
 396   0.0000       2.733891        74.3929 
 397   0.0000       2.742224        74.6197 
 398   0.0000       2.755577        74.9831 
 399   0.0000       2.763221        75.1911 
 400   0.0000       2.770269        75.3828 
 401   0.0000       2.784516        75.7705 
 402   0.0000       2.785064        75.7855 
 403   0.0000       2.805228        76.3341 
 404   0.0000       2.808170        76.4142 
 405   0.0000       2.816870        76.6509 
 406   0.0000       2.833782        77.1111 
 407   0.0000       2.850711        77.5718 
 408   0.0000       2.851245        77.5863 
 409   0.0000       2.864177        77.9382 
 410   0.0000       2.877350        78.2967 
 411   0.0000       2.885069        78.5067 
 412   0.0000       2.893899        78.7470 
 413   0.0000       2.905077        79.0512 
 414   0.0000       2.922113        79.5147 
 415   0.0000       2.923329        79.5478 
 416   0.0000       2.927878        79.6716 
 417   0.0000       2.932502        79.7974 
 418   0.0000       2.950957        80.2996 
 419   0.0000       2.954839        80.4052 
 420   0.0000       2.962504        80.6138 
 421   0.0000       2.968116        80.7665 
 422   0.0000       2.978650        81.0532 
 423   0.0000       2.983714        81.1910 
 424   0.0000       2.995037        81.4991 
 425   0.0000       3.011934        81.9589 
 426   0.0000       3.025849        82.3375 
 427   0.0000       3.027769        82.3898 
 428   0.0000       3.033753        82.5526 
 429   0.0000       3.044731        82.8514 
 430   0.0000       3.048470        82.9531 
 431   0.0000       3.054723        83.1232 
 432   0.0000       3.065472        83.4157 
 433   0.0000       3.074771        83.6688 
 434   0.0000       3.082584        83.8814 
 435   0.0000       3.088076        84.0308 
 436   0.0000       3.091337        84.1196 
 437   0.0000       3.099798        84.3498 
 438   0.0000       3.105698        84.5103 
 439   0.0000       3.108268        84.5803 
 440   0.0000       3.111908        84.6793 
 441   0.0000       3.120163        84.9040 
 442   0.0000       3.121520        84.9409 
 443   0.0000       3.126173        85.0675 
 444   0.0000       3.143061        85.5270 
 445   0.0000       3.153995        85.8246 
 446   0.0000       3.168932        86.2310 
 447   0.0000       3.172480        86.3276 
 448   0.0000       3.178071        86.4797 
 449   0.0000       3.186727        86.7152 
 450   0.0000       3.190009        86.8045 
 451   0.0000       3.201763        87.1244 
 452   0.0000       3.209837        87.3441 
 453   0.0000       3.214076        87.4595 
 454   0.0000       3.217297        87.5471 
 455   0.0000       3.228461        87.8509 
 456   0.0000       3.232030        87.9480 
 457   0.0000       3.238198        88.1158 
 458   0.0000       3.242314        88.2278 
 459   0.0000       3.253718        88.5382 
 460   0.0000       3.261924        88.7615 
 461   0.0000       3.268007        88.9270 
 462   0.0000       3.280449        89.2656 
 463   0.0000       3.286890        89.4408 
 464   0.0000       3.291650        89.5703 
 465   0.0000       3.303105        89.8821 
 466   0.0000       3.309393        90.0532 
 467   0.0000       3.313159        90.1556 
 468   0.0000       3.316776        90.2541 
 469   0.0000       3.324732        90.4706 
 470   0.0000       3.331083        90.6434 
 471   0.0000       3.343704        90.9868 
 472   0.0000       3.350124        91.1615 
 473   0.0000       3.350544        91.1729 
 474   0.0000       3.362998        91.5118 
 475   0.0000       3.366280        91.6011 
 476   0.0000       3.374209        91.8169 
 477   0.0000       3.375646        91.8560 
 478   0.0000       3.383426        92.0677 
 479   0.0000       3.393386        92.3387 
 480   0.0000       3.395856        92.4059 
 481   0.0000       3.398957        92.4903 
 482   0.0000       3.399791        92.5130 
 483   0.0000       3.404437        92.6394 
 484   0.0000       3.417297        92.9894 
 485   0.0000       3.421233        93.0965 
 486   0.0000       3.422706        93.1366 
 487   0.0000       3.428784        93.3020 
 488   0.0000       3.432685        93.4081 
 489   0.0000       3.439320        93.5887 
 490   0.0000       3.441659        93.6523 
 491   0.0000       3.444151        93.7201 
 492   0.0000       3.455829        94.0379 
 493   0.0000       3.460998        94.1785 
 494   0.0000       3.463897        94.2574 
 495   0.0000       3.465146        94.2914 
 496   0.0000       3.471898        94.4752 
 497   0.0000       3.479898        94.6928 
 498   0.0000       3.488815        94.9355 
 499   0.0000       3.495125        95.1072 
 500   0.0000       3.503821        95.3438 
 501   0.0000       3.520434        95.7959 
 502   0.0000       3.522000        95.8385 
 503   0.0000       3.532655        96.1284 
 504   0.0000       3.538773        96.2949 
 505   0.0000       3.542074        96.3847 
 506   0.0000       3.546813        96.5137 
 507   0.0000       3.566607        97.0523 
 508   0.0000       3.574111        97.2565 
 509   0.0000       3.577646        97.3527 
 510   0.0000       3.581573        97.4596 
 511   0.0000       3.594318        97.8064 
 512   0.0000       3.599235        97.9402 
 513   0.0000       3.606308        98.1326 
 514   0.0000       3.610594        98.2493 
 515   0.0000       3.618475        98.4637 
 516   0.0000       3.625265        98.6485 
 517   0.0000       3.627869        98.7193 
 518   0.0000       3.636728        98.9604 
 519   0.0000       3.643111        99.1341 
 520   0.0000       3.651483        99.3619 
 521   0.0000       3.657591        99.5281 
 522   0.0000       3.663665        99.6934 
 523   0.0000       3.669645        99.8561 
 524   0.0000       3.678576       100.0991 
 525   0.0000       3.681980       100.1918 
 526   0.0000       3.686793       100.3227 
 527   0.0000       3.688142       100.3594 
 528   0.0000       3.690765       100.4308 
 529   0.0000       3.707577       100.8883 
 530   0.0000       3.709059       100.9286 
 531   0.0000       3.722695       101.2997 
 532   0.0000       3.726504       101.4033 
 533   0.0000       3.735283       101.6422 
 534   0.0000       3.740293       101.7786 
 535   0.0000       3.744331       101.8884 
 536   0.0000       3.752334       102.1062 
 537   0.0000       3.760528       102.3292 
 538   0.0000       3.763908       102.4212 
 539   0.0000       3.772377       102.6516 
 540   0.0000       3.780750       102.8794 
 541   0.0000       3.784666       102.9860 
 542   0.0000       3.793175       103.2176 
 543   0.0000       3.798827       103.3713 
 544   0.0000       3.803009       103.4851 
 545   0.0000       3.804527       103.5265 
 546   0.0000       3.818688       103.9118 
 547   0.0000       3.822549       104.0168 
 548   0.0000       3.834772       104.3495 
 549   0.0000       3.836908       104.4076 
 550   0.0000       3.847145       104.6861 
 551   0.0000       3.853893       104.8698 
 552   0.0000       3.864637       105.1621 
 553   0.0000       3.879581       105.5688 
 554   0.0000       3.882624       105.6516 
 555   0.0000       3.893126       105.9373 
 556   0.0000       3.897174       106.0475 
 557   0.0000       3.914477       106.5183 
 558   0.0000       3.917465       106.5996 
 559   0.0000       3.923091       106.7527 
 560   0.0000       3.928991       106.9133 
 561   0.0000       3.946789       107.3976 
 562   0.0000       3.952378       107.5497 
 563   0.0000       3.971272       108.0638 
 564   0.0000       3.981739       108.3486 
 565   0.0000       3.982869       108.3794 
 566   0.0000       3.991999       108.6278 
 567   0.0000       3.997127       108.7674 
 568   0.0000       4.016831       109.3035 
 569   0.0000       4.020169       109.3944 
 570   0.0000       4.024396       109.5094 
 571   0.0000       4.032708       109.7356 
 572   0.0000       4.037540       109.8671 
 573   0.0000       4.049494       110.1923 
 574   0.0000       4.051140       110.2371 
 575   0.0000       4.052833       110.2832 
 576   0.0000       4.063062       110.5615 
 577   0.0000       4.073865       110.8555 
 578   0.0000       4.090914       111.3194 
 579   0.0000       4.095988       111.4575 
 580   0.0000       4.106069       111.7318 
 581   0.0000       4.121633       112.1553 
 582   0.0000       4.129078       112.3579 
 583   0.0000       4.136829       112.5688 
 584   0.0000       4.142979       112.7362 
 585   0.0000       4.145054       112.7926 
 586   0.0000       4.152327       112.9906 
 587   0.0000       4.154357       113.0458 
 588   0.0000       4.160270       113.2067 
 589   0.0000       4.172237       113.5323 
 590   0.0000       4.177633       113.6792 
 591   0.0000       4.183711       113.8446 
 592   0.0000       4.189029       113.9893 
 593   0.0000       4.192026       114.0708 
 594   0.0000       4.199383       114.2710 
 595   0.0000       4.204027       114.3974 
 596   0.0000       4.212368       114.6244 
 597   0.0000       4.221683       114.8778 
 598   0.0000       4.230688       115.1229 
 599   0.0000       4.236695       115.2863 
 600   0.0000       4.241088       115.4059 
 601   0.0000       4.254862       115.7807 
 602   0.0000       4.257304       115.8471 
 603   0.0000       4.263611       116.0188 
 604   0.0000       4.269940       116.1910 
 605   0.0000       4.279100       116.4402 
 606   0.0000       4.292883       116.8153 
 607   0.0000       4.297161       116.9317 
 608   0.0000       4.313069       117.3646 
 609   0.0000       4.319819       117.5482 
 610   0.0000       4.328402       117.7818 
 611   0.0000       4.332752       117.9002 
 612   0.0000       4.346015       118.2611 
 613   0.0000       4.361459       118.6813 
 614   0.0000       4.363624       118.7402 
 615   0.0000       4.368846       118.8823 
 616   0.0000       4.374478       119.0356 
 617   0.0000       4.384858       119.3181 
 618   0.0000       4.390426       119.4696 
 619   0.0000       4.399331       119.7119 
 620   0.0000       4.402839       119.8073 
 621   0.0000       4.410487       120.0155 
 622   0.0000       4.413866       120.1074 
 623   0.0000       4.434800       120.6770 
 624   0.0000       4.438723       120.7838 
 625   0.0000       4.452441       121.1571 
 626   0.0000       4.460724       121.3825 
 627   0.0000       4.462875       121.4410 
 628   0.0000       4.467291       121.5612 
 629   0.0000       4.473197       121.7219 
 630   0.0000       4.482349       121.9709 
 631   0.0000       4.486279       122.0779 
 632   0.0000       4.498381       122.4072 
 633   0.0000       4.511508       122.7644 
 634   0.0000       4.520780       123.0167 
 635   0.0000       4.534524       123.3907 
 636   0.0000       4.538603       123.5017 
 637   0.0000       4.546915       123.7279 
 638   0.0000       4.557606       124.0188 
 639   0.0000       4.566430       124.2589 
 640   0.0000       4.567775       124.2955 
 641   0.0000       4.577180       124.5514 
 642   0.0000       4.587368       124.8286 
 643   0.0000       4.595896       125.0607 
 644   0.0000       4.599046       125.1464 
 645   0.0000       4.615897       125.6050 
 646   0.0000       4.623522       125.8124 
 647   0.0000       4.624870       125.8491 
 648   0.0000       4.635209       126.1304 
 649   0.0000       4.645733       126.4168 
 650   0.0000       4.653027       126.6153 
 651   0.0000       4.657646       126.7410 
 652   0.0000       4.662017       126.8599 
 653   0.0000       4.667713       127.0149 
 654   0.0000       4.684367       127.4681 
 655   0.0000       4.702772       127.9689 
 656   0.0000       4.708910       128.1359 
 657   0.0000       4.710093       128.1682 
 658   0.0000       4.721069       128.4668 
 659   0.0000       4.733116       128.7946 
 660   0.0000       4.745818       129.1403 
 661   0.0000       4.751939       129.3068 
 662   0.0000       4.760205       129.5318 
 663   0.0000       4.777180       129.9937 
 664   0.0000       4.794366       130.4613 
 665   0.0000       4.813182       130.9733 
 666   0.0000       4.831378       131.4685 
 667   0.0000       4.842007       131.7577 
 668   0.0000       4.865307       132.3917 
 669   0.0000       4.886458       132.9673 
 670   0.0000       4.891923       133.1160 
 671   0.0000       4.895713       133.2191 
 672   0.0000       4.925828       134.0386 
 673   0.0000       4.936323       134.3242 
 674   0.0000       4.956812       134.8817 
 675   0.0000       4.969637       135.2307 
 676   0.0000       5.000432       136.0687 
 677   0.0000       5.008154       136.2788 
 678   0.0000       5.016936       136.5178 
 679   0.0000       5.019022       136.5745 
 680   0.0000       5.032421       136.9391 
 681   0.0000       5.035778       137.0305 
 682   0.0000       5.054312       137.5348 
 683   0.0000       5.078818       138.2017 
 684   0.0000       5.086253       138.4040 
 685   0.0000       5.104718       138.9064 
 686   0.0000       5.120978       139.3489 
 687   0.0000       5.127516       139.5268 
 688   0.0000       5.136845       139.7806 
 689   0.0000       5.143121       139.9514 
 690   0.0000       5.172146       140.7413 
 691   0.0000       5.178247       140.9073 
 692   0.0000       5.189467       141.2126 
 693   0.0000       5.193626       141.3258 
 694   0.0000       5.200133       141.5028 
 695   0.0000       5.202518       141.5677 
 696   0.0000       5.220237       142.0499 
 697   0.0000       5.228570       142.2766 
 698   0.0000       5.232663       142.3880 
 699   0.0000       5.248675       142.8237 
 700   0.0000       5.264739       143.2608 
 701   0.0000       5.277573       143.6101 
 702   0.0000       5.285227       143.8183 
 703   0.0000       5.298631       144.1831 
 704   0.0000       5.324084       144.8757 
 705   0.0000       5.329470       145.0222 
 706   0.0000       5.349713       145.5731 
 707   0.0000       5.360202       145.8585 
 708   0.0000       5.363759       145.9553 
 709   0.0000       5.372811       146.2016 
 710   0.0000       5.381538       146.4391 
 711   0.0000       5.407144       147.1359 
 712   0.0000       5.441514       148.0711 
 713   0.0000       5.448796       148.2693 
 714   0.0000       5.463132       148.6594 
 715   0.0000       5.476365       149.0195 
 716   0.0000       5.482648       149.1904 
 717   0.0000       5.498440       149.6202 
 718   0.0000       5.507071       149.8550 
 719   0.0000       5.518518       150.1665 
 720   0.0000       5.527517       150.4114 
 721   0.0000       5.534317       150.5964 
 722   0.0000       5.544037       150.8609 
 723   0.0000       5.557094       151.2162 
 724   0.0000       5.575627       151.7205 
 725   0.0000       5.590724       152.1313 
 726   0.0000       5.594391       152.2311 
 727   0.0000       5.612493       152.7237 
 728   0.0000       5.615895       152.8163 
 729   0.0000       5.626402       153.1022 
 730   0.0000       5.628449       153.1579 
 731   0.0000       5.644020       153.5816 
 732   0.0000       5.662954       154.0968 
 733   0.0000       5.677519       154.4931 
 734   0.0000       5.685945       154.7224 
 735   0.0000       5.691214       154.8658 
 736   0.0000       5.696849       155.0191 
 737   0.0000       5.711155       155.4084 
 738   0.0000       5.725927       155.8104 
 739   0.0000       5.758737       156.7032 
 740   0.0000       5.765754       156.8941 
 741   0.0000       5.769378       156.9927 
 742   0.0000       5.798003       157.7717 
 743   0.0000       5.805056       157.9636 
 744   0.0000       5.834209       158.7569 
 745   0.0000       5.845583       159.0664 
 746   0.0000       5.862444       159.5252 
 747   0.0000       5.884606       160.1283 
 748   0.0000       5.892854       160.3527 
 749   0.0000       5.937990       161.5809 
 750   0.0000       5.950330       161.9167 
 751   0.0000       5.971274       162.4866 
 752   0.0000       5.975331       162.5970 
 753   0.0000       5.985734       162.8801 
 754   0.0000       5.992312       163.0591 
 755   0.0000       6.014706       163.6685 
 756   0.0000       6.046021       164.5206 
 757   0.0000       6.056793       164.8137 
 758   0.0000       6.077488       165.3768 
 759   0.0000       6.097808       165.9298 
 760   0.0000       6.139202       167.0562 
 761   0.0000       6.181690       168.2123 
 762   0.0000       6.184601       168.2916 
 763   0.0000       6.201668       168.7560 
 764   0.0000       6.208483       168.9414 
 765   0.0000       6.269523       170.6024 
 766   0.0000       6.293050       171.2426 
 767   0.0000       6.303367       171.5233 
 768   0.0000       6.317560       171.9095 
 769   0.0000       6.328467       172.2063 
 770   0.0000       6.341425       172.5589 
 771   0.0000       6.347237       172.7171 
 772   0.0000       6.380957       173.6347 
 773   0.0000       6.399564       174.1410 
 774   0.0000       6.441001       175.2686 
 775   0.0000       6.505494       177.0235 
 776   0.0000       6.532151       177.7489 
 777   0.0000       6.537791       177.9023 
 778   0.0000       6.559692       178.4983 
 779   0.0000       6.582067       179.1071 
 780   0.0000       6.597229       179.5197 
 781   0.0000       6.709417       182.5725 
 782   0.0000       6.737172       183.3278 
 783   0.0000       6.778881       184.4627 
 784   0.0000       6.807613       185.2446 
 785   0.0000       6.870021       186.9428 
 786   0.0000       6.923652       188.4022 
 787   0.0000       6.935873       188.7347 
 788   0.0000       6.957116       189.3128 
 789   0.0000       6.994161       190.3208 
 790   0.0000       7.060284       192.1201 
 791   0.0000       7.087967       192.8734 
 792   0.0000       7.091758       192.9766 
 793   0.0000       7.114392       193.5924 
 794   0.0000       7.159053       194.8077 
 795   0.0000       7.188025       195.5961 
 796   0.0000       7.254401       197.4023 
 797   0.0000       7.287281       198.2970 
 798   0.0000       7.337628       199.6670 
 799   0.0000       7.365012       200.4122 
 800   0.0000       7.388416       201.0490 
 801   0.0000       7.526179       204.7977 
 802   0.0000       7.589631       206.5244 
 803   0.0000       7.596762       206.7184 
 804   0.0000       7.679404       208.9672 
 805   0.0000       7.781255       211.7387 
 806   0.0000       7.811244       212.5547 
 807   0.0000       7.935280       215.9300 
 808   0.0000       7.954232       216.4457 
 809   0.0000       9.368672       254.9345 
 810   0.0000       9.629429       262.0301 
 811   0.0000      10.843003       295.0531 
 812   0.0000      11.058867       300.9271 
 813   0.0000      11.631815       316.5178 
 814   0.0000      12.454101       338.8933 
 815   0.0000      12.690003       345.3125 
 816   0.0000      12.770349       347.4989 
 817   0.0000      12.924275       351.6874 
 818   0.0000      13.115014       356.8777 
 819   0.0000      13.200116       359.1934 
 820   0.0000      13.523181       367.9845 
 821   0.0000      13.552662       368.7867 
 822   0.0000      13.696139       372.6909 
 823   0.0000      13.795528       375.3954 
 824   0.0000      13.996128       380.8540 
 825   0.0000      14.328305       389.8930 
 826   0.0000      14.688175       399.6856 
 827   0.0000      15.676965       426.5919 

                    ********************************
                    * MULLIKEN POPULATION ANALYSIS *
                    ********************************

-----------------------
MULLIKEN ATOMIC CHARGES
-----------------------
   0 C :   -0.285861
   1 C :    0.046010
   2 O :   -0.355640
   3 C :    0.431489
   4 O :   -0.428545
   5 C :   -0.160275
   6 C :    0.154005
   7 C :   -0.288030
   8 N :   -0.126266
   9 C :    0.196532
  10 S :   -0.432062
  11 N :   -0.195129
  12 C :    0.066314
  13 C :    0.030063
  14 C :   -0.187538
  15 C :   -0.133016
  16 C :   -0.275196
  17 C :    0.305290
  18 O :   -0.364003
  19 C :   -0.257508
  20 H :    0.095533
  21 H :    0.097727
  22 H :    0.125268
  23 H :    0.098889
  24 H :    0.085327
  25 H :    0.135311
  26 H :    0.122860
  27 H :    0.107004
  28 H :    0.192588
  29 H :    0.192026
  30 H :    0.187653
  31 H :    0.139681
  32 H :    0.153929
  33 H :    0.125669
  34 H :    0.240574
  35 H :    0.159324
Sum of atomic charges:    0.0000000

--------------------------------
MULLIKEN REDUCED ORBITAL CHARGES
--------------------------------
  0 C s       :     3.251439  s :     3.251439
      pz      :     1.033185  p :     2.954566
      px      :     0.997243
      py      :     0.924138
      dz2     :     0.008844  d :     0.075424
      dxz     :     0.016373
      dyz     :     0.019800
      dx2y2   :     0.020024
      dxy     :     0.010383
      f0      :     0.000421  f :     0.004431
      f+1     :     0.000140
      f-1     :     0.001011
      f+2     :     0.000856
      f-2     :     0.000613
      f+3     :     0.000912
      f-3     :     0.000478
  1 C s       :     3.176619  s :     3.176619
      pz      :     0.863623  p :     2.619360
      px      :     0.910266
      py      :     0.845472
      dz2     :     0.026649  d :     0.146914
      dxz     :     0.028348
      dyz     :     0.036539
      dx2y2   :     0.030247
      dxy     :     0.025130
      f0      :     0.001396  f :     0.011097
      f+1     :     0.001315
      f-1     :     0.001944
      f+2     :     0.001819
      f-2     :     0.002027
      f+3     :     0.001384
      f-3     :     0.001212
  2 O s       :     3.711039  s :     3.711039
      pz      :     1.562399  p :     4.611043
      px      :     1.355065
      py      :     1.693579
      dz2     :     0.004753  d :     0.031291
      dxz     :     0.005160
      dyz     :     0.006723
      dx2y2   :     0.008643
      dxy     :     0.006012
      f0      :     0.000293  f :     0.002268
      f+1     :     0.000384
      f-1     :     0.000152
      f+2     :     0.000470
      f-2     :     0.000423
      f+3     :     0.000300
      f-3     :     0.000246
  3 C s       :     3.084434  s :     3.084434
      pz      :     0.689742  p :     2.155654
      px      :     0.660677
      py      :     0.805235
      dz2     :     0.036234  d :     0.301951
      dxz     :     0.043212
      dyz     :     0.072712
      dx2y2   :     0.079768
      dxy     :     0.070024
      f0      :     0.002070  f :     0.026472
      f+1     :     0.003181
      f-1     :     0.002230
      f+2     :     0.004194
      f-2     :     0.003477
      f+3     :     0.004818
      f-3     :     0.006503
  4 O s       :     3.774234  s :     3.774234
      pz      :     1.582686  p :     4.616828
      px      :     1.637626
      py      :     1.396517
      dz2     :     0.003827  d :     0.035087
      dxz     :     0.001189
      dyz     :     0.009719
      dx2y2   :     0.009832
      dxy     :     0.010520
      f0      :     0.000249  f :     0.002396
      f+1     :     0.000076
      f-1     :     0.000346
      f+2     :     0.000282
      f-2     :     0.000200
      f+3     :     0.000678
      f-3     :     0.000563
  5 C s       :     3.198113  s :     3.198113
      pz      :     0.998346  p :     2.863382
      px      :     1.025019
      py      :     0.840017
      dz2     :     0.015383  d :     0.088405
      dxz     :     0.009618
      dyz     :     0.028596
      dx2y2   :     0.013993
      dxy     :     0.020816
      f0      :     0.000926  f :     0.010375
      f+1     :     0.001021
      f-1     :     0.001420
      f+2     :     0.002405
      f-2     :     0.001396
      f+3     :     0.001679
      f-3     :     0.001529
  6 C s       :     3.189204  s :     3.189204
      pz      :     0.820489  p :     2.468447
      px      :     0.849711
      py      :     0.798247
      dz2     :     0.029175  d :     0.174295
      dxz     :     0.016443
      dyz     :     0.050636
      dx2y2   :     0.027037
      dxy     :     0.051005
      f0      :     0.001475  f :     0.014049
      f+1     :     0.001473
      f-1     :     0.002158
      f+2     :     0.002358
      f-2     :     0.002243
      f+3     :     0.002257
      f-3     :     0.002084
  7 C s       :     3.281334  s :     3.281334
      pz      :     0.945569  p :     2.931577
      px      :     0.986550
      py      :     0.999458
      dz2     :     0.021604  d :     0.070393
      dxz     :     0.012058
      dyz     :     0.008498
      dx2y2   :     0.020983
      dxy     :     0.007250
      f0      :     0.000529  f :     0.004725
      f+1     :     0.001031
      f-1     :     0.000817
      f+2     :     0.000446
      f-2     :     0.000690
      f+3     :     0.000308
      f-3     :     0.000904
  8 N s       :     3.341996  s :     3.341996
      pz      :     1.379923  p :     3.720496
      px      :     1.263157
      py      :     1.077417
      dz2     :     0.010051  d :     0.058830
      dxz     :     0.009956
      dyz     :     0.010168
      dx2y2   :     0.015437
      dxy     :     0.013217
      f0      :     0.000578  f :     0.004943
      f+1     :     0.000996
      f-1     :     0.000391
      f+2     :     0.000940
      f-2     :     0.001032
      f+3     :     0.000478
      f-3     :     0.000527
  9 C s       :     3.166375  s :     3.166375
      pz      :     0.729486  p :     2.355024
      px      :     0.761661
      py      :     0.863877
      dz2     :     0.050267  d :     0.264347
      dxz     :     0.031870
      dyz     :     0.055613
      dx2y2   :     0.069987
      dxy     :     0.056608
      f0      :     0.001833  f :     0.017722
      f+1     :     0.002980
      f-1     :     0.002023
      f+2     :     0.003327
      f-2     :     0.001682
      f+3     :     0.002997
      f-3     :     0.002880
 10 S s       :     5.856994  s :     5.856994
      pz      :     3.539904  p :    10.480297
      px      :     3.576877
      py      :     3.363516
      dz2     :     0.010612  d :     0.084631
      dxz     :     0.007923
      dyz     :     0.027042
      dx2y2   :     0.009884
      dxy     :     0.029170
      f0      :     0.001143  f :     0.010139
      f+1     :     0.000499
      f-1     :     0.001311
      f+2     :     0.001304
      f-2     :     0.002503
      f+3     :     0.002306
      f-3     :     0.001074
 11 N s       :     3.375166  s :     3.375166
      pz      :     1.405055  p :     3.755763
      px      :     1.339456
      py      :     1.011252
      dz2     :     0.005276  d :     0.059679
      dxz     :     0.007910
      dyz     :     0.015967
      dx2y2   :     0.015510
      dxy     :     0.015015
      f0      :     0.000546  f :     0.004522
      f+1     :     0.000394
      f-1     :     0.000563
      f+2     :     0.000782
      f-2     :     0.000685
      f+3     :     0.000760
      f-3     :     0.000792
 12 C s       :     3.100434  s :     3.100434
      pz      :     0.872345  p :     2.648444
      px      :     0.892102
      py      :     0.883996
      dz2     :     0.032536  d :     0.174073
      dxz     :     0.028256
      dyz     :     0.040494
      dx2y2   :     0.030001
      dxy     :     0.042787
      f0      :     0.001015  f :     0.010734
      f+1     :     0.001452
      f-1     :     0.001674
      f+2     :     0.001830
      f-2     :     0.002070
      f+3     :     0.001640
      f-3     :     0.001053
 13 C s       :     3.126987  s :     3.126987
      pz      :     0.883287  p :     2.724059
      px      :     0.901863
      py      :     0.938909
      dz2     :     0.023161  d :     0.108493
      dxz     :     0.011648
      dyz     :     0.027571
      dx2y2   :     0.020660
      dxy     :     0.025452
      f0      :     0.001011  f :     0.010399
      f+1     :     0.001624
[...]
      f+2     :     0.007448
      f-2     :     0.004585
      f+3     :     0.006361
      f-3     :     0.005249
 15 C s       :     2.710531  s :     2.710531
      pz      :     0.937133  p :     2.800309
      px      :     0.897301
      py      :     0.965874
      dz2     :     0.109747  d :     0.414213
      dxz     :     0.070315
      dyz     :     0.078856
      dx2y2   :     0.098259
      dxy     :     0.057035
      f0      :     0.004662  f :     0.040331
      f+1     :     0.005700
      f-1     :     0.007047
      f+2     :     0.007479
      f-2     :     0.006068
      f+3     :     0.004495
      f-3     :     0.004880
 16 C s       :     2.704058  s :     2.704058
      pz      :     0.950328  p :     2.874554
      px      :     0.943117
      py      :     0.981109
      dz2     :     0.061668  d :     0.392053
      dxz     :     0.052852
      dyz     :     0.101759
      dx2y2   :     0.087055
      dxy     :     0.088720
      f0      :     0.004417  f :     0.040403
      f+1     :     0.004646
      f-1     :     0.006286
      f+2     :     0.006795
      f-2     :     0.004656
      f+3     :     0.008131
      f-3     :     0.005472
 17 C s       :     2.705690  s :     2.705690
      pz      :     0.875252  p :     2.682938
      px      :     0.820906
      py      :     0.986780
      dz2     :     0.143405  d :     0.698843
      dxz     :     0.097000
      dyz     :     0.169833
      dx2y2   :     0.138017
      dxy     :     0.150588
      f0      :     0.012223  f :     0.097136
      f+1     :     0.012684
      f-1     :     0.013981
      f+2     :     0.018636
      f-2     :     0.013330
      f+3     :     0.014935
      f-3     :     0.011346
 18 O s       :     3.181061  s :     3.181061
      pz      :     1.354657  p :     4.356666
      px      :     1.482714
      py      :     1.519294
      dz2     :     0.010855  d :     0.074633
      dxz     :     0.015334
      dyz     :     0.023752
      dx2y2   :     0.009922
      dxy     :     0.014770
      f0      :     0.000644  f :     0.004924
      f+1     :     0.000540
      f-1     :     0.000738
      f+2     :     0.000801
      f-2     :     0.001054
      f+3     :     0.000593
      f-3     :     0.000554
 19 C s       :     2.697501  s :     2.697501
      pz      :     0.952840  p :     2.855286
      px      :     0.935761
      py      :     0.966685
      dz2     :     0.092318  d :     0.386989
      dxz     :     0.069953
      dyz     :     0.074621
      dx2y2   :     0.088157
      dxy     :     0.061941
      f0      :     0.004443  f :     0.040066
      f+1     :     0.006560
      f-1     :     0.006467
      f+2     :     0.007247
      f-2     :     0.006337
      f+3     :     0.004644
      f-3     :     0.004368
 20 H s       :     0.848360  s :     0.848360
      pz      :     0.043379  p :     0.150950
      px      :     0.069268
      py      :     0.038303
      dz2     :     0.003962  d :     0.027409
      dxz     :     0.008278
      dyz     :     0.001624
      dx2y2   :     0.006068
      dxy     :     0.007476
 21 H s       :     0.847696  s :     0.847696
      pz      :     0.056065  p :     0.151785
      px      :     0.050249
      py      :     0.045471
      dz2     :     0.007493  d :     0.027495
      dxz     :     0.005268
      dyz     :     0.005556
      dx2y2   :     0.005038
      dxy     :     0.004140
 22 H s       :     0.843626  s :     0.843626
      pz      :     0.063884  p :     0.151848
      px      :     0.039207
      py      :     0.048756
      dz2     :     0.007672  d :     0.027854
      dxz     :     0.006699
      dyz     :     0.007566
      dx2y2   :     0.002984
      dxy     :     0.002933
 23 H s       :     0.857013  s :     0.857013
      pz      :     0.066874  p :     0.148130
      px      :     0.040029
      py      :     0.041227
      dz2     :     0.008597  d :     0.027255
      dxz     :     0.007315
      dyz     :     0.006718
      dx2y2   :     0.001583
      dxy     :     0.003042
 24 H s       :     0.849770  s :     0.849770
      pz      :     0.040214  p :     0.145885
      px      :     0.066990
      py      :     0.038681
      dz2     :     0.003989  d :     0.027030
      dxz     :     0.007052
      dyz     :     0.002803
      dx2y2   :     0.006174
      dxy     :     0.007012
 25 H s       :     0.825887  s :     0.825887
      pz      :     0.040039  p :     0.154664
      px      :     0.071807
      py      :     0.042818
      dz2     :     0.002965  d :     0.028442
      dxz     :     0.008584
      dyz     :     0.000626
      dx2y2   :     0.008221
      dxy     :     0.008046
 26 H s       :     0.830128  s :     0.830128
      pz      :     0.066926  p :     0.149028
      px      :     0.040153
      py      :     0.041949
      dz2     :     0.009126  d :     0.027355
      dxz     :     0.007808
      dyz     :     0.007436
      dx2y2   :     0.002051
      dxy     :     0.000934
 27 H s       :     0.840930  s :     0.840930
      pz      :     0.036888  p :     0.148710
      px      :     0.038965
      py      :     0.072857
      dz2     :     0.002301  d :     0.027457
      dxz     :     0.000060
      dyz     :     0.008998
      dx2y2   :     0.006924
      dxy     :     0.009174
 28 H s       :     0.743508  s :     0.743508
      pz      :     0.070348  p :     0.253076
      px      :     0.066343
      py      :     0.116385
      dz2     :     0.005702  d :     0.061215
      dxz     :     0.001595
      dyz     :     0.019442
      dx2y2   :     0.015863
      dxy     :     0.018614
 29 H s       :     0.747005  s :     0.747005
      pz      :     0.100891  p :     0.253232
      px      :     0.110241
      py      :     0.042100
      dz2     :     0.017234  d :     0.061087
      dxz     :     0.015277
      dyz     :     0.006611
      dx2y2   :     0.012672
      dxy     :     0.009292
 30 H s       :     0.818143  s :     0.818143
      pz      :     0.049007  p :     0.172922
      px      :     0.048272
      py      :     0.075643
      dz2     :     0.004054  d :     0.031969
      dxz     :     0.004651
      dyz     :     0.006886
      dx2y2   :     0.007982
      dxy     :     0.008397
 31 H s       :     0.846199  s :     0.846199
      pz      :     0.054874  p :     0.158105
      px      :     0.057337
      py      :     0.045895
      dz2     :     0.005945  d :     0.027440
      dxz     :     0.005535
      dyz     :     0.005392
      dx2y2   :     0.005347
      dxy     :     0.005220
 32 H s       :     0.845041  s :     0.845041
      pz      :     0.035395  p :     0.148721
      px      :     0.037320
      py      :     0.076005
      dz2     :     0.002779  d :     0.025687
      dxz     :     0.000374
      dyz     :     0.007717
      dx2y2   :     0.007368
      dxy     :     0.007448
 33 H s       :     0.850811  s :     0.850811
      pz      :     0.063216  p :     0.157596
      px      :     0.051130
      py      :     0.043250
      dz2     :     0.007527  d :     0.027305
      dxz     :     0.006021
      dyz     :     0.006311
      dx2y2   :     0.003805
      dxy     :     0.003640
 34 H s       :     0.708175  s :     0.708175
      pz      :     0.120331  p :     0.346969
      px      :     0.095572
      py      :     0.131066
      dz2     :     0.026766  d :     0.099008
      dxz     :     0.016609
      dyz     :     0.024045
      dx2y2   :     0.015230
      dxy     :     0.016357
 35 H s       :     0.843357  s :     0.843357
      pz      :     0.039934  p :     0.161495
      px      :     0.042275
      py      :     0.079286
      dz2     :     0.002889  d :     0.029015
      dxz     :     0.000532
      dyz     :     0.008857
      dx2y2   :     0.007950
      dxy     :     0.008786


                      *****************************
                      * MAYER POPULATION ANALYSIS *
                      *****************************

  NA   - Mulliken gross atomic population
  ZA   - Total nuclear charge
  QA   - Mulliken gross atomic charge
  VA   - Mayer's total valence
  BVA  - Mayer's bonded valence
  FA   - Mayer's free valence

  ATOM       NA         ZA         QA         VA         BVA        FA
  0 C      6.2859     6.0000    -0.2859     3.8830     3.8830    -0.0000
  1 C      5.9540     6.0000     0.0460     3.8836     3.8836     0.0000
  2 O      8.3556     8.0000    -0.3556     2.0561     2.0561    -0.0000
  3 C      5.5685     6.0000     0.4315     4.1935     4.1935    -0.0000
  4 O      8.4285     8.0000    -0.4285     2.0703     2.0703     0.0000
  5 C      6.1603     6.0000    -0.1603     3.6666     3.6666    -0.0000
  6 C      5.8460     6.0000     0.1540     3.8280     3.8280    -0.0000
  7 C      6.2880     6.0000    -0.2880     3.8928     3.8928     0.0000
  8 N      7.1263     7.0000    -0.1263     3.2877     3.2877    -0.0000
  9 C      5.8035     6.0000     0.1965     4.1533     4.1533    -0.0000
 10 S     16.4321    16.0000    -0.4321     1.7629     1.7629     0.0000
 11 N      7.1951     7.0000    -0.1951     3.2775     3.2775    -0.0000
 12 C      5.9337     6.0000     0.0663     3.9224     3.9224    -0.0000
 13 C      5.9699     6.0000     0.0301     3.7487     3.7487     0.0000
 14 C      6.1875     6.0000    -0.1875     3.8736     3.8736     0.0000
 15 C      6.1330     6.0000    -0.1330     3.8121     3.8121     0.0000
 16 C      6.2752     6.0000    -0.2752     3.7920     3.7920     0.0000
 17 C      5.6947     6.0000     0.3053     3.8714     3.8714     0.0000
 18 O      8.3640     8.0000    -0.3640     2.1074     2.1074     0.0000
 19 C      6.2575     6.0000    -0.2575     3.8451     3.8451     0.0000
 20 H      0.9045     1.0000     0.0955     0.9849     0.9849    -0.0000
 21 H      0.9023     1.0000     0.0977     0.9788     0.9788    -0.0000
 22 H      0.8747     1.0000     0.1253     0.9826     0.9826    -0.0000
 23 H      0.9011     1.0000     0.0989     0.9717     0.9717     0.0000
 24 H      0.9147     1.0000     0.0853     0.9685     0.9685     0.0000
 25 H      0.8647     1.0000     0.1353     0.9770     0.9770     0.0000
 26 H      0.8771     1.0000     0.1229     0.9824     0.9824     0.0000
 27 H      0.8930     1.0000     0.1070     0.9871     0.9871     0.0000
 28 H      0.8074     1.0000     0.1926     1.0238     1.0238    -0.0000
 29 H      0.8080     1.0000     0.1920     1.0203     1.0203    -0.0000
 30 H      0.8123     1.0000     0.1877     0.9957     0.9957    -0.0000
 31 H      0.8603     1.0000     0.1397     0.9930     0.9930     0.0000
 32 H      0.8461     1.0000     0.1539     0.9793     0.9793     0.0000
 33 H      0.8743     1.0000     0.1257     0.9926     0.9926    -0.0000
 34 H      0.7594     1.0000     0.2406     1.0109     1.0109     0.0000
 35 H      0.8407     1.0000     0.1593     0.9907     0.9907     0.0000

  Mayer bond orders larger than 0.100000
B(  0-C ,  1-C ) :   0.9824 B(  0-C , 20-H ) :   0.9759 B(  0-C , 21-H ) :   0.9725 
B(  0-C , 22-H ) :   0.9706 B(  1-C ,  2-O ) :   0.9008 B(  1-C , 23-H ) :   0.9760 
B(  1-C , 24-H ) :   0.9806 B(  2-O ,  3-C ) :   1.1333 B(  3-C ,  4-O ) :   1.9632 
B(  3-C ,  5-C ) :   1.0583 B(  5-C ,  6-C ) :   1.6452 B(  5-C , 12-C ) :   0.9723 
B(  6-C ,  7-C ) :   0.9558 B(  6-C ,  8-N ) :   1.1255 B(  7-C , 25-H ) :   0.9628 
B(  7-C , 26-H ) :   0.9661 B(  7-C , 27-H ) :   0.9904 B(  8-N ,  9-C ) :   1.1861 
B(  8-N , 28-H ) :   0.9501 B(  9-C , 10-S ) :   1.6155 B(  9-C , 11-N ) :   1.2978 
B( 11-N , 12-C ) :   1.0149 B( 11-N , 29-H ) :   0.9509 B( 12-C , 13-C ) :   0.9107 
B( 12-C , 30-H ) :   0.9803 B( 13-C , 14-C ) :   1.3832 B( 13-C , 19-C ) :   1.3843 
B( 14-C , 15-C ) :   1.3953 B( 14-C , 31-H ) :   0.9692 B( 15-C , 16-C ) :   1.3593 
B( 15-C , 32-H ) :   0.9721 B( 16-C , 17-C ) :   1.3335 B( 16-C , 33-H ) :   0.9864 
B( 17-C , 18-O ) :   1.0968 B( 17-C , 19-C ) :   1.3758 B( 18-O , 34-H ) :   0.9803 
B( 19-C , 35-H ) :   0.9550 

-------
TIMINGS
-------

Total SCF time: 0 days 1 hours 30 min 15 sec 

Total time                  ....    5415.535 sec
Sum of individual times     ....    5411.285 sec  ( 99.9%)

Fock matrix formation       ....    5399.848 sec  ( 99.7%)
Diagonalization             ....       1.271 sec  (  0.0%)
Density matrix formation    ....       0.215 sec  (  0.0%)
Population analysis         ....       0.206 sec  (  0.0%)
Initial guess               ....       4.837 sec  (  0.1%)
Orbital Transformation      ....       0.000 sec  (  0.0%)
Orbital Orthonormalization  ....       0.000 sec  (  0.0%)
DIIS solution               ....       1.871 sec  (  0.0%)
SOSCF solution              ....       1.761 sec  (  0.0%)

------------------------------------------------------------------------------
                                ORCA  MP2 
------------------------------------------------------------------------------

Freezing NCore=48 chemical core electrons

-------------
RI-MP2 ENERGY
-------------
Dimension of the basis                    ...  828
Memory devoted to MP2                     ...  256 MB   
Data format for buffers                   ... DOUBLE
Compression type for matrix containers    ... UNCOMPRESSED
Overall scaling of the MP2 energy         ...   1.000e+00
Calculating two index integrals           ... done (    0.041 sec)
Cholesky decomposition of V**-1           ... done (    0.442 sec)

-----------------
RI-TRANSFORMATION (AUX index driven)
-----------------

Dimension of the orbital-basis         ... 828
Dimension of the aux-basis             ... 2141
Transformation of internal/external MOs...   24-  76 to   77- 827
Number Format for Storage              ... Double (8 Byte)
Integral mode                          ... Direct

First Phase: integral generation and transformation of MO indices
  Aux angular momentum 0               ... done (    4.777 sec)
  Aux angular momentum 1               ... done (    7.672 sec)
  Aux angular momentum 2               ... done (   10.207 sec)
  Aux angular momentum 3               ... done (    8.144 sec)
  Aux angular momentum 4               ... done (    2.864 sec)
Closing buffer VIA ( 0.63 GB; CompressionRatio= 1.00)
  Phase 1 completed in    33.809 sec
Second Phase: sorting and transformation of aux index

IA-Transformation
Memory available                       ... 167 MB 
Max. # MO pairs treated in a batch     ... 12    
# of internal orbitals                 ... 53
# batches for internal orbitals        ... 5
Closing buffer IAV ( 0.63 GB; CompressionRatio= 1.00)
(ia|v) transformation done in    20.197 sec

  Phase 2 completed in    20.200 sec
RI-Integral transformation completed in    54.020 sec
Opening buffers                              ... done

Starting loop over batches of integrals:

Operator 0  - window                       ... ( 24- 76)x( 77-827)
Operator 0  - Memory available             ...   256 MB
Operator 0  - Memory needed per MO         ...  12.3 MB
Operator 0  - Number of orbitals per batch ... 13
Operator 0  - Number of batches            ... 5

OPERATOR  0   PASS   0:  MOs    24 ...   36
  Reading integrals       ... ok
  Internal MO  26
  Internal MO  29
  Internal MO  32
  Internal MO  35
OPERATOR  0   PASS   1:  MOs    37 ...   49
  Reading integrals       ... ok
  Internal MO  38
  Internal MO  41
  Internal MO  44
  Internal MO  47
OPERATOR  0   PASS   2:  MOs    50 ...   62
  Reading integrals       ... ok
  Internal MO  50
  Internal MO  53
  Internal MO  56
  Internal MO  59
  Internal MO  62
OPERATOR  0   PASS   3:  MOs    63 ...   75
  Reading integrals       ... ok
  Internal MO  65
  Internal MO  68
  Internal MO  71
  Internal MO  74
OPERATOR  0   PASS   4:  MOs    76 ...   76
  Reading integrals       ... ok
Time spent in pair loops =    86.328 sec
Deleting buffer (Ka|jb)[aa] ...done

-----------------------------------------------
 RI-MP2 CORRELATION ENERGY:     -3.543286467 Eh
-----------------------------------------------


-------
TIMINGS
-------

Total time                :  140.936 sec
Integral trafo            :   54.036 sec ( 38.3%)
I/O of integrals          :    1.524 sec (  1.1%)
K(i,j) Operators          :   56.765 sec ( 40.3%)
T(i,j) pair energies      :    8.603 sec (  6.1%)
V-calculation             :    0.041 sec (  0.0%)
V**(-1/2)                 :    0.442 sec (  0.3%)
Gamma(ia|P)               :    0.000 sec (  0.0%)
Gamma-Trafo               :    0.000 sec (  0.0%)
D(virtual)                :    0.000 sec (  0.0%)
D(internal)               :    0.000 sec (  0.0%)
W(virtual)                :    0.000 sec (  0.0%)
W(internal)               :    0.000 sec (  0.0%)
L(virtual)                :    0.000 sec (  0.0%)
L(internal)               :    0.000 sec (  0.0%)
G(D)                      :    0.000 sec (  0.0%)
G(Z)                      :    0.000 sec (  0.0%)
Z-Vector Solution         :    0.000 sec (  0.0%)
3-Index Derivative        :    0.000 sec (  0.0%)
2-Index Derivative        :    0.000 sec (  0.0%)
Separable Gradient        :    0.000 sec (  0.0%)


---------------------------------------
MP2 TOTAL ENERGY:    -1274.294272961 Eh
---------------------------------------

-------------------------   --------------------
FINAL SINGLE POINT ENERGY     -1274.294272960510
-------------------------   --------------------


                            ***************************************
                            *     ORCA property calculations      *
                            ***************************************


  WARNING: The energy has been calculated at the MP2 level but the densities
           used in the property calculations are still SCF densities
           MP2 response densities have not been calculated 
           use %mp2 Density relaxed end
           or  %mp2 Density unrelaxed end

                                    ---------------------
                                    Active property flags
                                    ---------------------
   (+) Dipole Moment


------------------------------------------------------------------------------
                       ORCA ELECTRIC PROPERTIES CALCULATION
------------------------------------------------------------------------------

Dipole Moment Calculation                       ... on
Quadrupole Moment Calculation                   ... off
Polarizability Calculation                      ... off
GBWName                                         ... G2_CONFS/Conf590.orca.gbw
Electron density file                           ... G2_CONFS/Conf590.orca.scfp
The origin for moment calculation is the CENTER OF MASS  = (32.879934, 31.506651 35.518698)

-------------
DIPOLE MOMENT
-------------
                                X             Y             Z
Electronic contribution:      9.89969      10.36240      11.23311
Nuclear contribution   :    -11.40538     -11.31489     -12.61359
                        -----------------------------------------
Total Dipole Moment    :     -1.50570      -0.95249      -1.38049
                        -----------------------------------------
Magnitude (a.u.)       :      2.25391
Magnitude (Debye)      :      5.72898



--------------------
Rotational spectrum 
--------------------
 
Rotational constants in cm-1:     0.010641     0.008760     0.005787 
Rotational constants in MHz :   319.021430   262.631430   173.497442 

 Dipole components along the rotational axes: 
x,y,z [a.u.] :     2.132543     0.098289     0.722977 
x,y,z [Debye]:     5.420494     0.249831     1.837661 

 

Timings for individual modules:

Sum of individual times         ...     5557.949 sec (=  92.632 min)
GTO integral calculation        ...        1.245 sec (=   0.021 min)   0.0 %
SCF iterations                  ...     5415.579 sec (=  90.260 min)  97.4 %
MP2 module                      ...      141.125 sec (=   2.352 min)   2.5 %
                             ****ORCA TERMINATED NORMALLY****
TOTAL RUN TIME: 0 days 1 hours 32 minutes 38 seconds 570 msec
