
                                 *****************
                                 * O   R   C   A *
                                 *****************

           --- An Ab Initio, DFT and Semiempirical electronic structure package ---

                  #######################################################
                  #                        -***-                        #
                  #          Department of theory and spectroscopy      #
                  #               Directorship: Frank Neese             #
                  #        Max Planck Institute fuer Kohlenforschung    #
                  #                Kaiser Wilhelm Platz 1               #
                  #                 D-45470 Muelheim/Ruhr               #
                  #                      Germany                        #
                  #                                                     #
                  #                  All rights reserved                #
                  #                        -***-                        #
                  #######################################################


                         Program Version 4.2.0 -  RELEASE  -


 With contributions from (in alphabetic order):
   Daniel Aravena         : Magnetic Suceptibility
   Michael Atanasov       : Ab Initio Ligand Field Theory (pilot matlab implementation)
   Alexander A. Auer      : GIAO ZORA, VPT2
   Ute Becker             : Parallelization
   Giovanni Bistoni       : ED, misc. LED, open-shell LED, HFLED
   Martin Brehm           : Molecular dynamics
   Dmytro Bykov           : SCF Hessian
   Vijay G. Chilkuri      : MRCI spin determinant printing, contributions to CSF-ICE
   Dipayan Datta          : RHF DLPNO-CCSD density
   Achintya Kumar Dutta   : EOM-CC, STEOM-CC
   Dmitry Ganyushin       : Spin-Orbit,Spin-Spin,Magnetic field MRCI
   Miquel Garcia          : C-PCM Hessian, Gaussian charge scheme
   Yang Guo               : DLPNO-NEVPT2, CIM, IAO-localization
   Andreas Hansen         : Spin unrestricted coupled pair/coupled cluster methods
   Benjamin Helmich-Paris : CASSCF linear response (MC-RPA)
   Lee Huntington         : MR-EOM, pCC
   Robert Izsak           : Overlap fitted RIJCOSX, COSX-SCS-MP3, EOM
   Christian Kollmar      : KDIIS, OOCD, Brueckner-CCSD(T), CCSD density
   Simone Kossmann        : Meta GGA functionals, TD-DFT gradient, OOMP2, MP2 Hessian
   Martin Krupicka        : AUTO-CI
   Lucas Lang             : DCDCAS
   Dagmar Lenk            : GEPOL surface, SMD
   Dimitrios Liakos       : Extrapolation schemes; Compound Job, initial MDCI parallelization
   Dimitrios Manganas     : Further ROCIS development; embedding schemes
   Dimitrios Pantazis     : SARC Basis sets
   Taras Petrenko         : DFT Hessian,TD-DFT gradient, ASA, ECA, R-Raman, ABS, FL, XAS/XES, NRVS
   Peter Pinski           : DLPNO-MP2, DLPNO-MP2 Gradient
   Christoph Reimann      : Effective Core Potentials
   Marius Retegan         : Local ZFS, SOC
   Christoph Riplinger    : Optimizer, TS searches, QM/MM, DLPNO-CCSD(T), (RO)-DLPNO pert. Triples
   Tobias Risthaus        : Range-separated hybrids, TD-DFT gradient, RPA, STAB
   Michael Roemelt        : Original ROCIS implementation
   Masaaki Saitow         : Open-shell DLPNO-CCSD energy and density
   Barbara Sandhoefer     : DKH picture change effects
   Avijit Sen             : IP-ROCIS
   Kantharuban Sivalingam : CASSCF convergence, NEVPT2, FIC-MRCI
   Bernardo de Souza      : ESD, SOC TD-DFT
   Georgi Stoychev        : AutoAux, RI-MP2 NMR
   Willem Van den Heuvel  : Paramagnetic NMR
   Boris Wezisla          : Elementary symmetry handling
   Frank Wennmohs         : Technical directorship


 We gratefully acknowledge several colleagues who have allowed us to
 interface, adapt or use parts of their codes:
   Stefan Grimme, W. Hujo, H. Kruse,             : VdW corrections, initial TS optimization,
                  C. Bannwarth                     DFT functionals, gCP, sTDA/sTD-DF
   Ed Valeev, F. Pavosevic, A. Kumar             : LibInt (2-el integral package), F12 methods
   Garnet Chan, S. Sharma, J. Yang, R. Olivares  : DMRG
   Ulf Ekstrom                                   : XCFun DFT Library
   Mihaly Kallay                                 : mrcc  (arbitrary order and MRCC methods)
   Andreas Klamt, Michael Diedenhofen            : otool_cosmo (COSMO solvation model)
   Jiri Pittner, Ondrej Demel                    : Mk-CCSD
   Frank Weinhold                                : gennbo (NPA and NBO analysis)
   Christopher J. Cramer and Donald G. Truhlar   : smd solvation model
   Lars Goerigk                                  : TD-DFT with DH, B97 family of functionals
   V. Asgeirsson, H. Jonsson                     : NEB implementation
   FAccTs GmbH                                   : IRC, NEB, NEB-TS, Multilevel, MM, QM/MM, CI optimization
   S Lehtola, MJT Oliveira, MAL Marques          : LibXC Library


 Your calculation uses the libint2 library for the computation of 2-el integrals
 For citations please refer to: http://libint.valeyev.net

 Your ORCA version has been built with support for libXC version: 4.2.3
 For citations please refer to: https://tddft.org/programs/libxc/

 This ORCA versions uses:
   CBLAS   interface :  Fast vector & matrix operations
   LAPACKE interface :  Fast linear algebra routines
   SCALAPACK package :  Parallel linear algebra routines


----- Orbital basis set information -----
Your calculation utilizes the basis: cc-pVTZ 
       H, B-Ne : Obtained from the ccRepo (grant-hill.group.shef.ac.uk/ccrepo) Feb. 2017
                 T. H. Dunning, Jr., J. Chem. Phys. 90, 1007 (1989)
            He : Obtained from the ccRepo (grant-hill.group.shef.ac.uk/ccrepo) Feb. 2017
                 D. E. Woon, T. H. Dunning, Jr., J. Chem. Phys. 100, 2975 (1994)
  Li-Be, Na-Mg : Obtained from the ccRepo (grant-hill.group.shef.ac.uk/ccrepo) Feb. 2017
                 B. P. Prascher, D. E. Woon, K. A. Peterson, T. H. Dunning, Jr., A. K. Wilson, Theor. Chem. Acc. 128, 69 (2011)
         Al-Ar : Obtained from the ccRepo (grant-hill.group.shef.ac.uk/ccrepo) Feb. 2017
                 D. E. Woon, T. H. Dunning, Jr., J. Chem. Phys. 98, 1358 (1993)
            Ca : Obtained from the Peterson Research Group Website (tyr0.chem.wsu.edu/~kipeters) Feb. 2017
                 J. Koput, K. A. Peterson, J. Phys. Chem. 106, 9595 (2002)
         Sc-Zn : Obtained from the ccRepo (grant-hill.group.shef.ac.uk/ccrepo) Feb. 2017
                 N. B. Balabanov, K. A. Peterson, J. Chem. Phys. 123, 064107 (2005)
                 N. B. Balabanov, K. A. Peterson, J. Chem. Phys. 125, 074110 (2006)
         Ga-Kr : Obtained from the ccRepo (grant-hill.group.shef.ac.uk/ccrepo) Feb. 2017
                 A. K. Wilson, D. E. Woon, K. A. Peterson, T. H. Dunning, Jr., J. Chem. Phys. 110, 7667 (1999)
             Y : Obtained from the ccRepo (grant-hill.group.shef.ac.uk/ccrepo) Feb. 2017
                 K. A. Peterson, D. Figgen, M. Dolg, H. Stoll, J. Chem. Phys. 126, 124101 (2007)
        Ag, Au : Obtained from the Peterson Research Group Website (tyr0.chem.wsu.edu/~kipeters) Feb. 2017
                 K. A. Peterson, C. Puzzarini, Theor. Chem. Acc. 114, 283 (2005)

----- AuxC basis set information -----
Your calculation utilizes the auxiliary basis: cc-pVTZ/C 
  Obtained from the EMSL Basis Set Exchange (bse.pnl.gov) Feb. 2017
  H-He, B-F, Al-Ar, Ga-Kr : F. Weigend, A. Kohn, C. Hattig, J. Chem. Phys. 116, 3175 (2002)
             Li-Be, Na-Mg : C. Haettig, Phys. Chem. Chem. Phys. 7, 59 (2005)
                       Ne : C. Haettig, Phys. Chem. Chem. Phys. 7, 59 (2005)
                            F. Weigend, A. Kohn, C. Hattig, J. Chem. Phys. 116, 3175 (2002)
                    Sc-Zn : J. G. Hill, J. A. Platts, J. Chem. Phys. 128, 044104 (2008)

================================================================================
                                        WARNINGS
                       Please study these warnings very carefully!
================================================================================


WARNING: No MP2 level density has been requested!
         To caclulate MP2 level properties use
         %mp2 Density relaxed end
         or
         %mp2 Density unrelaxed end

WARNING: Post HF methods need fully converged wavefunctions
  ===> : Setting SCFConvForced true
         You can overwrite this default with %scf ConvForced false 


INFO   : the flag for use of LIBINT has been found!

================================================================================
                                       INPUT FILE
================================================================================
NAME = G2_CONFS/Conf300.orca
|  1> ! ri-mp2 cc-pvtz cc-pvtz/c TightSCF  NoKeepInts
|  2> 
|  3> %scf
|  4>   MaxCore 4096
|  5> end
|  6> *xyz  0  1
|  7>     C       14.8545487   13.9968501   15.9794546
|  8>     C       15.5060502   15.1693817   15.2195843
|  9>     O       16.2157513   15.9490590   16.1689308
| 10>     C       17.4492826   15.7469815   16.6938647
| 11>     O       18.2002238   14.8223076   16.4279677
| 12>     C       17.7209456   16.8617745   17.6470811
| 13>     C       17.1495974   18.1047508   17.5237434
| 14>     C       16.3599290   18.7461840   16.3788829
| 15>     N       17.7381226   19.1018165   18.3135842
| 16>     C       18.7544246   18.9852709   19.2225606
| 17>     S       19.3059290   20.3136856   20.0414236
| 18>     N       19.2792153   17.7307303   19.4028815
| 19>     C       18.8624434   16.5517438   18.6145911
| 20>     C       18.1101445   15.9215264   19.8276347
| 21>     C       18.5051947   14.5869652   20.1228360
| 22>     C       17.8112501   13.7659620   21.0167599
| 23>     C       16.6820008   14.2674593   21.6654304
| 24>     C       16.2587318   15.5767145   21.4001892
| 25>     O       15.1357990   16.0180010   22.0185802
| 26>     C       16.9465347   16.3983680   20.4837035
| 27>     H       15.5496346   13.4417379   16.6182267
| 28>     H       14.3541111   13.3128032   15.2853939
| 29>     H       14.0679349   14.4131007   16.6293703
| 30>     H       16.2035497   14.7812018   14.4671782
| 31>     H       14.7492665   15.7955150   14.7344462
| 32>     H       15.9608503   18.0806930   15.6140470
| 33>     H       17.0107145   19.4255883   15.8128907
| 34>     H       15.5089036   19.3220779   16.7536537
| 35>     H       17.4413780   20.0526269   18.1544280
| 36>     H       19.9486654   17.6495487   20.1568084
| 37>     H       19.4978714   15.6833976   18.4226930
| 38>     H       19.3427372   14.1257348   19.6042170
| 39>     H       18.1378933   12.7383981   21.1760961
| 40>     H       16.1340615   13.6287655   22.3516558
| 41>     H       14.8476036   15.3037375   22.6110016
| 42>     H       16.5457141   17.3815441   20.2722075
| 43> *
| 44> 
| 45>                          ****END OF INPUT****
================================================================================

                       ****************************
                       * Single Point Calculation *
                       ****************************

---------------------------------
CARTESIAN COORDINATES (ANGSTROEM)
---------------------------------
  C     14.854549   13.996850   15.979455
  C     15.506050   15.169382   15.219584
  O     16.215751   15.949059   16.168931
  C     17.449283   15.746981   16.693865
  O     18.200224   14.822308   16.427968
  C     17.720946   16.861774   17.647081
  C     17.149597   18.104751   17.523743
  C     16.359929   18.746184   16.378883
  N     17.738123   19.101817   18.313584
  C     18.754425   18.985271   19.222561
  S     19.305929   20.313686   20.041424
  N     19.279215   17.730730   19.402881
  C     18.862443   16.551744   18.614591
  C     18.110144   15.921526   19.827635
  C     18.505195   14.586965   20.122836
  C     17.811250   13.765962   21.016760
  C     16.682001   14.267459   21.665430
  C     16.258732   15.576714   21.400189
  O     15.135799   16.018001   22.018580
  C     16.946535   16.398368   20.483704
  H     15.549635   13.441738   16.618227
  H     14.354111   13.312803   15.285394
  H     14.067935   14.413101   16.629370
  H     16.203550   14.781202   14.467178
  H     14.749266   15.795515   14.734446
  H     15.960850   18.080693   15.614047
  H     17.010714   19.425588   15.812891
  H     15.508904   19.322078   16.753654
  H     17.441378   20.052627   18.154428
  H     19.948665   17.649549   20.156808
  H     19.497871   15.683398   18.422693
  H     19.342737   14.125735   19.604217
  H     18.137893   12.738398   21.176096
  H     16.134062   13.628766   22.351656
  H     14.847604   15.303738   22.611002
  H     16.545714   17.381544   20.272207

----------------------------
CARTESIAN COORDINATES (A.U.)
----------------------------
  NO LB      ZA    FRAG     MASS         X           Y           Z
   0 C     6.0000    0    12.011   28.071029   26.450213   30.196793
   1 C     6.0000    0    12.011   29.302188   28.665977   28.760846
   2 O     8.0000    0    15.999   30.643329   30.139354   30.554851
   3 C     6.0000    0    12.011   32.974365   29.757482   31.546832
   4 O     8.0000    0    15.999   34.393439   28.010102   31.044360
   5 C     6.0000    0    12.011   33.487734   31.864136   33.348150
   6 C     6.0000    0    12.011   32.408042   34.213021   33.115076
   7 C     6.0000    0    12.011   30.915785   35.425154   30.951603
   8 N     7.0000    0    14.007   33.520194   36.097202   34.607659
   9 C     6.0000    0    12.011   35.440726   35.876963   36.325375
  10 S    16.0000    0    32.060   36.482919   38.387303   37.872802
  11 N     7.0000    0    14.007   36.432437   33.506224   36.666132
  12 C     6.0000    0    12.011   35.644852   31.278263   35.176479
  13 C     6.0000    0    12.011   34.223213   30.087325   37.468799
  14 C     6.0000    0    12.011   34.969750   27.565369   38.026649
  15 C     6.0000    0    12.011   33.658385   26.013898   39.715920
  16 C     6.0000    0    12.011   31.524413   26.961591   40.941730
  17 C     6.0000    0    12.011   30.724550   29.435724   40.440497
  18 O     8.0000    0    15.999   28.602515   30.269635   41.609086
  19 C     6.0000    0    12.011   32.024310   30.988425   38.708590
  20 H     1.0000    0     1.008   29.384551   25.401203   31.403897
  21 H     1.0000    0     1.008   27.125339   25.157552   28.885208
  22 H     1.0000    0     1.008   26.584544   27.236813   31.424956
  23 H     1.0000    0     1.008   30.620271   27.932423   27.339005
  24 H     1.0000    0     1.008   27.872074   29.849197   27.844068
  25 H     1.0000    0     1.008   30.161636   34.167558   29.506273
  26 H     1.0000    0     1.008   32.145592   36.709042   29.882033
  27 H     1.0000    0     1.008   29.307580   36.513436   31.659817
  28 H     1.0000    0     1.008   32.959428   37.893973   34.306897
  29 H     1.0000    0     1.008   37.697514   33.352813   38.090848
  30 H     1.0000    0     1.008   36.845637   29.637326   34.813844
  31 H     1.0000    0     1.008   36.552476   26.693770   37.046601
  32 H     1.0000    0     1.008   34.275651   24.072084   40.017022
  33 H     1.0000    0     1.008   30.488958   25.754634   42.238508
  34 H     1.0000    0     1.008   28.057905   28.919873   42.728601
  35 H     1.0000    0     1.008   31.266868   32.846358   38.308920

--------------------------------
INTERNAL COORDINATES (ANGSTROEM)
--------------------------------
 C      0   0   0     0.000000000000     0.00000000     0.00000000
 C      1   0   0     1.541650878222     0.00000000     0.00000000
 O      2   1   0     1.418742795766   107.43084653     0.00000000
 C      3   2   1     1.355725039768   129.22177530    81.51027358
 O      4   3   2     1.220506338291   126.04262851     0.26936946
 C      4   3   2     1.491705642426   107.56167056   179.99999774
 C      6   4   3     1.373550521913   122.89838485   332.80515851
 C      7   6   4     1.531573797269   131.34441831   348.35032468
 N      7   6   4     1.401552856833   114.74002700   193.68398741
 C      9   7   6     1.368462907002   128.72541214   356.80143361
 S     10   9   7     1.655107045228   120.51324023   179.45316200
 N     10   9   7     1.371784612405   116.69953901   359.77886509
 C     12  10   9     1.478211669060   123.46652822     3.99284357
 C     13  12  10     1.560321243111    92.49295726   251.59480118
 C     14  13  12     1.422765639375   113.97220812   233.61496791
 C     15  14  13     1.398107757389   123.07004459   190.91524957
 C     16  15  14     1.395520311937   119.19699295   359.50735888
 C     17  16  15     1.401306076225   119.48487274     0.58163165
 O     18  17  16     1.355772575795   117.90132952   178.12592468
 C     18  17  16     1.410011823218   121.34148630     0.36718467
 H      1   2   3     1.095136411004   113.87822012   309.12378572
 H      1   2   3     1.095480811415   110.83572632   184.38729005
 H      1   2   3     1.102005557816   107.76162857    68.26102708
 H      2   1   3     1.096952198859   109.73354997   119.08246888
 H      2   1   3     1.095501462357   111.16422076   240.66071737
 H      8   7   6     1.089548545868   117.24370624    16.57386979
 H      8   7   6     1.097934032777   109.80939181   258.91161244
 H      8   7   6     1.093778390733   111.44124489   139.06027485
 H      9   7   6     1.008676593550   117.26678398   171.21823421
 H     12  10   9     1.011513548655   115.12305113   187.09286412
 H     13  12  10     1.092986160490   124.28892905   153.20646250
 H     15  14  13     1.087739209715   120.83785162     6.87559580
 H     16  15  14     1.089940995339   119.89012843   177.68532035
 H     17  16  15     1.085851070013   119.38746706   179.30089288
 H     19  18  17     0.971695451873   106.52794483     3.42956994
 H     20  18  17     1.082600090066   118.39774875   176.54514410

---------------------------
INTERNAL COORDINATES (A.U.)
---------------------------
 C      0   0   0     0.000000000000     0.00000000     0.00000000
 C      1   0   0     2.913297953959     0.00000000     0.00000000
 O      2   1   0     2.681035338472   107.43084653     0.00000000
 C      3   2   1     2.561949038062   129.22177530    81.51027358
 O      4   3   2     2.306422724084   126.04262851     0.26936946
 C      4   3   2     2.818915136611   107.56167056   179.99999774
 C      6   4   3     2.595634317519   122.89838485   332.80515851
 C      7   6   4     2.894255030728   131.34441831   348.35032468
 N      7   6   4     2.648551061629   114.74002700   193.68398741
 C      9   7   6     2.586020118663   128.72541214   356.80143361
 S     10   9   7     3.127699037805   120.51324023   179.45316200
 N     10   9   7     2.592297232173   116.69953901   359.77886509
 C     12  10   9     2.793415222489   123.46652822     3.99284357
 C     13  12  10     2.948579830420    92.49295726   251.59480118
 C     14  13  12     2.688637411173   113.97220812   233.61496791
 C     15  14  13     2.642040767176   123.07004459   190.91524957
 C     16  15  14     2.637151203885   119.19699295   359.50735888
 C     17  16  15     2.648084713865   119.48487274     0.58163165
 O     18  17  16     2.562038868134   117.90132952   178.12592468
 C     18  17  16     2.664536191473   121.34148630     0.36718467
 H      1   2   3     2.069507896082   113.87822012   309.12378572
 H      1   2   3     2.070158718540   110.83572632   184.38729005
 H      1   2   3     2.082488702331   107.76162857    68.26102708
 H      2   1   3     2.072939237846   109.73354997   119.08246888
 H      2   1   3     2.070197743165   111.16422076   240.66071737
 H      8   7   6     2.058948361303   117.24370624    16.57386979
 H      8   7   6     2.074794635060   109.80939181   258.91161244
 H      8   7   6     2.066941609687   111.44124489   139.06027485
 H      9   7   6     1.906122519506   117.26678398   171.21823421
 H     12  10   9     1.911483587708   115.12305113   187.09286412
 H     13  12  10     2.065444511492   124.28892905   153.20646250
 H     15  14  13     2.055529211489   120.83785162     6.87559580
 H     16  15  14     2.059689983324   119.89012843   177.68532035
 H     17  16  15     2.051961144550   119.38746706   179.30089288
 H     19  18  17     1.836238289618   106.52794483     3.42956994
 H     20  18  17     2.045817682784   118.39774875   176.54514410

---------------------
BASIS SET INFORMATION
---------------------
There are 5 groups of distinct atoms

 Group   1 Type C   : 18s5p2d1f contracted to 4s3p2d1f pattern {8811/311/11/1}
 Group   2 Type O   : 18s5p2d1f contracted to 4s3p2d1f pattern {8811/311/11/1}
 Group   3 Type N   : 18s5p2d1f contracted to 4s3p2d1f pattern {8811/311/11/1}
 Group   4 Type S   : 41s16p2d1f contracted to 5s4p2d1f pattern {13131311/7711/11/1}
 Group   5 Type H   : 5s2p1d contracted to 3s2p1d pattern {311/11/1}

Atom   0C    basis set group =>   1
Atom   1C    basis set group =>   1
Atom   2O    basis set group =>   2
Atom   3C    basis set group =>   1
Atom   4O    basis set group =>   2
Atom   5C    basis set group =>   1
Atom   6C    basis set group =>   1
Atom   7C    basis set group =>   1
Atom   8N    basis set group =>   3
Atom   9C    basis set group =>   1
Atom  10S    basis set group =>   4
Atom  11N    basis set group =>   3
Atom  12C    basis set group =>   1
Atom  13C    basis set group =>   1
Atom  14C    basis set group =>   1
Atom  15C    basis set group =>   1
Atom  16C    basis set group =>   1
Atom  17C    basis set group =>   1
Atom  18O    basis set group =>   2
Atom  19C    basis set group =>   1
Atom  20H    basis set group =>   5
Atom  21H    basis set group =>   5
Atom  22H    basis set group =>   5
Atom  23H    basis set group =>   5
Atom  24H    basis set group =>   5
Atom  25H    basis set group =>   5
Atom  26H    basis set group =>   5
Atom  27H    basis set group =>   5
Atom  28H    basis set group =>   5
Atom  29H    basis set group =>   5
Atom  30H    basis set group =>   5
Atom  31H    basis set group =>   5
Atom  32H    basis set group =>   5
Atom  33H    basis set group =>   5
Atom  34H    basis set group =>   5
Atom  35H    basis set group =>   5
---------------------------------
AUXILIARY/C BASIS SET INFORMATION
---------------------------------
There are 5 groups of distinct atoms

 Group   1 Type C   : 8s6p5d3f1g contracted to 8s6p5d3f1g pattern {11111111/111111/11111/111/1}
 Group   2 Type O   : 8s6p5d3f1g contracted to 8s6p5d3f1g pattern {11111111/111111/11111/111/1}
 Group   3 Type N   : 8s6p5d3f1g contracted to 8s6p5d3f1g pattern {11111111/111111/11111/111/1}
 Group   4 Type S   : 10s8p7d5f2g contracted to 10s8p7d5f2g pattern {1111111111/11111111/1111111/11111/11}
 Group   5 Type H   : 4s3p2d1f contracted to 4s3p2d1f pattern {1111/111/11/1}

Atom   0C    basis set group =>   1
Atom   1C    basis set group =>   1
Atom   2O    basis set group =>   2
Atom   3C    basis set group =>   1
Atom   4O    basis set group =>   2
Atom   5C    basis set group =>   1
Atom   6C    basis set group =>   1
Atom   7C    basis set group =>   1
Atom   8N    basis set group =>   3
Atom   9C    basis set group =>   1
Atom  10S    basis set group =>   4
Atom  11N    basis set group =>   3
Atom  12C    basis set group =>   1
Atom  13C    basis set group =>   1
Atom  14C    basis set group =>   1
Atom  15C    basis set group =>   1
Atom  16C    basis set group =>   1
Atom  17C    basis set group =>   1
Atom  18O    basis set group =>   2
Atom  19C    basis set group =>   1
Atom  20H    basis set group =>   5
Atom  21H    basis set group =>   5
Atom  22H    basis set group =>   5
Atom  23H    basis set group =>   5
Atom  24H    basis set group =>   5
Atom  25H    basis set group =>   5
Atom  26H    basis set group =>   5
Atom  27H    basis set group =>   5
Atom  28H    basis set group =>   5
Atom  29H    basis set group =>   5
Atom  30H    basis set group =>   5
Atom  31H    basis set group =>   5
Atom  32H    basis set group =>   5
Atom  33H    basis set group =>   5
Atom  34H    basis set group =>   5
Atom  35H    basis set group =>   5
------------------------------------------------------------------------------
                           ORCA GTO INTEGRAL CALCULATION
------------------------------------------------------------------------------

                         BASIS SET STATISTICS AND STARTUP INFO

 # of primitive gaussian shells          ...  682
 # of primitive gaussian functions       ... 1312
 # of contracted shells                  ...  298
 # of contracted basis functions         ...  828
 Highest angular momentum                ...    3
 Maximum contraction depth               ...   13
 Integral package used                   ... LIBINT
 Integral threshhold            Thresh   ...  2.500e-11
 Primitive cut-off              TCut     ...  2.500e-12


------------------------------ INTEGRAL EVALUATION ----------------------------


 * One electron integrals 
 Pre-screening matrix                    ... done
 Shell pair data                         ... done (   0.014 sec)

-------------------------------------------------------------------------------
                                 ORCA SCF
-------------------------------------------------------------------------------

------------
SCF SETTINGS
------------
Hamiltonian:
 Ab initio Hamiltonian  Method          .... Hartree-Fock(GTOs)


General Settings:
 Integral files         IntName         .... G2_CONFS/Conf300.orca
 Hartree-Fock type      HFTyp           .... RHF
 Total Charge           Charge          ....    0
 Multiplicity           Mult            ....    1
 Number of Electrons    NEL             ....  154
 Basis Dimension        Dim             ....  828
 Nuclear Repulsion      ENuc            ....   1704.8953833099 Eh

Convergence Acceleration:
 DIIS                   CNVDIIS         .... on
   Start iteration      DIISMaxIt       ....    12
   Startup error        DIISStart       ....  0.200000
   # of expansion vecs  DIISMaxEq       ....     5
   Bias factor          DIISBfac        ....   1.050
   Max. coefficient     DIISMaxC        ....  10.000
 Newton-Raphson         CNVNR           .... off
 SOSCF                  CNVSOSCF        .... on
   Start iteration      SOSCFMaxIt      ....   150
   Startup grad/error   SOSCFStart      ....  0.003300
 Level Shifting         CNVShift        .... on
   Level shift para.    LevelShift      ....    0.2500
   Turn off err/grad.   ShiftErr        ....    0.0010
 Zerner damping         CNVZerner       .... off
 Static damping         CNVDamp         .... on
   Fraction old density DampFac         ....    0.7000
   Max. Damping (<1)    DampMax         ....    0.9800
   Min. Damping (>=0)   DampMin         ....    0.0000
   Turn off err/grad.   DampErr         ....    0.1000
 Fernandez-Rico         CNVRico         .... off

SCF Procedure:
 Maximum # iterations   MaxIter         ....   125
 SCF integral mode      SCFMode         .... Direct
   Integral package                     .... LIBINT
 Reset frequency        DirectResetFreq ....    20
 Integral Threshold     Thresh          ....  2.500e-11 Eh
 Primitive CutOff       TCut            ....  2.500e-12 Eh

Convergence Tolerance:
 Convergence Check Mode ConvCheckMode   .... Total+1el-Energy
 Convergence forced     ConvForced      .... 1
 Energy Change          TolE            ....  1.000e-08 Eh
 1-El. energy change                    ....  1.000e-05 Eh
 Orbital Gradient       TolG            ....  1.000e-05
 Orbital Rotation angle TolX            ....  1.000e-05
 DIIS Error             TolErr          ....  5.000e-07


Diagonalization of the overlap matrix:
Smallest eigenvalue                        ... 3.436e-05
Time for diagonalization                   ...    0.119 sec
Threshold for overlap eigenvalues          ... 1.000e-08
Number of eigenvalues below threshold      ... 0
Time for construction of square roots      ...    0.064 sec
Total time needed                          ...    0.185 sec

-------------------
DFT GRID GENERATION
-------------------

General Integration Accuracy     IntAcc      ...  4.340
Radial Grid Type                 RadialGrid  ... Gauss-Chebyshev
Angular Grid (max. acc.)         AngularGrid ... Lebedev-110
Angular grid pruning method      GridPruning ... 3 (G Style)
Weight generation scheme         WeightScheme... Becke
Basis function cutoff            BFCut       ...    1.0000e-11
Integration weight cutoff        WCut        ...    1.0000e-14
Grids for H and He will be reduced by one unit

# of grid points (after initial pruning)     ...  46246 (   0.0 sec)
# of grid points (after weights+screening)   ...  41327 (   0.3 sec)
nearest neighbour list constructed           ...    0.0 sec
Grid point re-assignment to atoms done       ...    0.0 sec
Grid point division into batches done        ...    0.0 sec
Reduced shell lists constructed in    0.9 sec

Total number of grid points                  ...    41327
Total number of batches                      ...      664
Average number of points per batch           ...       62
Average number of grid points per atom       ...     1148
Average number of shells per batch           ...   146.82 (49.27%)
Average number of basis functions per batch  ...   372.99 (45.05%)
Average number of large shells per batch     ...    94.03 (64.04%)
Average number of large basis fcns per batch ...   242.81 (65.10%)
Maximum spatial batch extension              ...  19.65, 20.10, 20.18 au
Average spatial batch extension              ...   3.55,  3.36,  3.53 au

Time for grid setup =    1.275 sec

------------------------------
INITIAL GUESS: MODEL POTENTIAL
------------------------------
Loading Hartree-Fock densities                     ... done
Calculating cut-offs                               ... done
Setting up the integral package                    ... done
Initializing the effective Hamiltonian             ... done
Starting the Coulomb interaction                   ... done (   3.1 sec)
Reading the grid                                   ... done
Mapping shells                                     ... done
Starting the XC term evaluation                    ... done (   1.4 sec)
Transforming the Hamiltonian                       ... done (   0.1 sec)
Diagonalizing the Hamiltonian                      ... done (   0.1 sec)
Back transforming the eigenvectors                 ... done (   0.0 sec)
Now organizing SCF variables                       ... done
                      ------------------
                      INITIAL GUESS DONE (   6.3 sec)
                      ------------------
--------------
SCF ITERATIONS
--------------
ITER       Energy         Delta-E        Max-DP      RMS-DP      [F,P]     Damp
               ***  Starting incremental Fock matrix formation  ***
  0  -1269.9380621803   0.000000000000 0.04932725  0.00044281  0.3118178 0.7000
  1  -1270.2072165157  -0.269154335373 0.03608366  0.00036155  0.1826402 0.7000
                               ***Turning on DIIS***
  2  -1270.3748000196  -0.167583503872 0.02583612  0.00024248  0.1097880 0.7000
  3  -1272.5096188906  -2.134818871004 0.06311665  0.00051543  0.0829919 0.0000
  4  -1270.6852765133   1.824342377292 0.00872868  0.00009831  0.0067730 0.0000
  5  -1270.7481154661  -0.062838952768 0.00362239  0.00005263  0.0038407 0.0000
                      *** Initiating the SOSCF procedure ***
                           *** Shutting down DIIS ***
                      *** Re-Reading the Fockian *** 
                      *** Removing any level shift *** 
ITER      Energy       Delta-E        Grad      Rot      Max-DP    RMS-DP
  6  -1270.72433055   0.0237849178  0.001749  0.001749  0.001683  0.000027
               *** Restarting incremental Fock matrix formation ***
  7  -1270.73877823  -0.0144476825  0.000862  0.002098  0.001296  0.000017
  8  -1270.73882923  -0.0000509960  0.000385  0.002373  0.001528  0.000018
  9  -1270.73884860  -0.0000193730  0.000162  0.000432  0.000339  0.000005
 10  -1270.73885105  -0.0000024523  0.000046  0.000132  0.000121  0.000002
 11  -1270.73885132  -0.0000002647  0.000025  0.000152  0.000091  0.000001
 12  -1270.73885139  -0.0000000740  0.000010  0.000032  0.000032  0.000000
 13  -1270.73885140  -0.0000000048  0.000003  0.000009  0.000006  0.000000
                 **** Energy Check signals convergence ****
              ***Rediagonalizing the Fockian in SOSCF/NRSCF***

               *****************************************************
               *                     SUCCESS                       *
               *           SCF CONVERGED AFTER  14 CYCLES          *
               *****************************************************


----------------
TOTAL SCF ENERGY
----------------

Total Energy       :        -1270.73885139 Eh          -34578.56209 eV

Components:
Nuclear Repulsion  :         1704.89538331 Eh           46392.56193 eV
Electronic Energy  :        -2975.63423470 Eh          -80971.12402 eV
One Electron Energy:        -5130.94212322 Eh         -139620.03332 eV
Two Electron Energy:         2155.30788852 Eh           58648.90930 eV

Virial components:
Potential Energy   :        -2539.71828894 Eh          -69109.24809 eV
Kinetic Energy     :         1268.97943755 Eh           34530.68600 eV
Virial Ratio       :            2.00138648


---------------
SCF CONVERGENCE
---------------

  Last Energy change         ...    4.9645e-09  Tolerance :   1.0000e-08
  Last MAX-Density change    ...    2.0064e-06  Tolerance :   1.0000e-07
  Last RMS-Density change    ...    3.6770e-08  Tolerance :   5.0000e-09
  Last Orbital Gradient      ...    1.3189e-06  Tolerance :   1.0000e-05
  Last Orbital Rotation      ...    3.2634e-06  Tolerance :   1.0000e-05

             **** THE GBW FILE WAS UPDATED (G2_CONFS/Conf300.orca.gbw) ****
             **** DENSITY FILE WAS UPDATED (G2_CONFS/Conf300.orca.scfp) ****
             **** ENERGY FILE WAS UPDATED (G2_CONFS/Conf300.orca.en.tmp) ****
             **** THE GBW FILE WAS UPDATED (G2_CONFS/Conf300.orca.gbw) ****
             **** DENSITY FILE WAS UPDATED (G2_CONFS/Conf300.orca.scfp) ****
----------------
ORBITAL ENERGIES
----------------

  NO   OCC          E(Eh)            E(eV) 
   0   2.0000     -91.887264     -2500.3796 
   1   2.0000     -20.598667      -560.5182 
   2   2.0000     -20.591937      -560.3351 
   3   2.0000     -20.549904      -559.1913 
   4   2.0000     -15.622707      -425.1155 
   5   2.0000     -15.609947      -424.7683 
   6   2.0000     -11.398790      -310.1768 
   7   2.0000     -11.383084      -309.7495 
   8   2.0000     -11.339860      -308.5733 
   9   2.0000     -11.313464      -307.8550 
  10   2.0000     -11.310794      -307.7824 
  11   2.0000     -11.305289      -307.6325 
  12   2.0000     -11.268585      -306.6338 
  13   2.0000     -11.262800      -306.4764 
  14   2.0000     -11.258258      -306.3528 
  15   2.0000     -11.246327      -306.0281 
  16   2.0000     -11.236191      -305.7523 
  17   2.0000     -11.234177      -305.6975 
  18   2.0000     -11.229586      -305.5726 
  19   2.0000     -11.228012      -305.5297 
  20   2.0000      -8.892286      -241.9714 
  21   2.0000      -6.573864      -178.8839 
  22   2.0000      -6.571846      -178.8290 
  23   2.0000      -6.571270      -178.8133 
  24   2.0000      -1.456876       -39.6436 
  25   2.0000      -1.412307       -38.4308 
  26   2.0000      -1.364109       -37.1193 
  27   2.0000      -1.339405       -36.4471 
  28   2.0000      -1.241873       -33.7931 
  29   2.0000      -1.152027       -31.3483 
  30   2.0000      -1.119525       -30.4638 
  31   2.0000      -1.048818       -28.5398 
  32   2.0000      -1.036629       -28.2081 
  33   2.0000      -1.009430       -27.4680 
  34   2.0000      -0.998971       -27.1834 
  35   2.0000      -0.979652       -26.6577 
  36   2.0000      -0.927018       -25.2254 
  37   2.0000      -0.901767       -24.5383 
  38   2.0000      -0.852828       -23.2066 
  39   2.0000      -0.832674       -22.6582 
  40   2.0000      -0.826302       -22.4848 
  41   2.0000      -0.815508       -22.1911 
  42   2.0000      -0.755558       -20.5598 
  43   2.0000      -0.735795       -20.0220 
  44   2.0000      -0.720145       -19.5961 
  45   2.0000      -0.694918       -18.9097 
  46   2.0000      -0.690988       -18.8027 
  47   2.0000      -0.684856       -18.6359 
  48   2.0000      -0.674483       -18.3536 
  49   2.0000      -0.660075       -17.9616 
  50   2.0000      -0.653000       -17.7690 
  51   2.0000      -0.642938       -17.4952 
  52   2.0000      -0.633193       -17.2301 
  53   2.0000      -0.619671       -16.8621 
  54   2.0000      -0.601422       -16.3655 
  55   2.0000      -0.598570       -16.2879 
  56   2.0000      -0.594695       -16.1825 
  57   2.0000      -0.582408       -15.8481 
  58   2.0000      -0.573117       -15.5953 
  59   2.0000      -0.562559       -15.3080 
  60   2.0000      -0.552068       -15.0225 
  61   2.0000      -0.550143       -14.9702 
  62   2.0000      -0.543600       -14.7921 
  63   2.0000      -0.530111       -14.4251 
  64   2.0000      -0.514205       -13.9922 
  65   2.0000      -0.509320       -13.8593 
  66   2.0000      -0.499400       -13.5894 
  67   2.0000      -0.496407       -13.5079 
  68   2.0000      -0.486715       -13.2442 
  69   2.0000      -0.462240       -12.5782 
  70   2.0000      -0.455396       -12.3919 
  71   2.0000      -0.450231       -12.2514 
  72   2.0000      -0.344334        -9.3698 
  73   2.0000      -0.342296        -9.3143 
  74   2.0000      -0.325158        -8.8480 
  75   2.0000      -0.315338        -8.5808 
  76   2.0000      -0.307193        -8.3592 
  77   0.0000       0.067108         1.8261 
  78   0.0000       0.114791         3.1236 
  79   0.0000       0.120484         3.2785 
  80   0.0000       0.135519         3.6877 
  81   0.0000       0.141330         3.8458 
  82   0.0000       0.145196         3.9510 
  83   0.0000       0.150269         4.0890 
  84   0.0000       0.160988         4.3807 
  85   0.0000       0.164893         4.4870 
  86   0.0000       0.168102         4.5743 
  87   0.0000       0.185383         5.0445 
  88   0.0000       0.187489         5.1018 
  89   0.0000       0.195370         5.3163 
  90   0.0000       0.200225         5.4484 
  91   0.0000       0.209119         5.6904 
  92   0.0000       0.212515         5.7828 
  93   0.0000       0.217349         5.9144 
  94   0.0000       0.226918         6.1747 
  95   0.0000       0.234683         6.3860 
  96   0.0000       0.240148         6.5348 
  97   0.0000       0.246337         6.7032 
  98   0.0000       0.250720         6.8224 
  99   0.0000       0.270970         7.3735 
 100   0.0000       0.284933         7.7534 
 101   0.0000       0.290511         7.9052 
 102   0.0000       0.297882         8.1058 
 103   0.0000       0.311270         8.4701 
 104   0.0000       0.324530         8.8309 
 105   0.0000       0.334058         9.0902 
 106   0.0000       0.342278         9.3139 
 107   0.0000       0.357790         9.7359 
 108   0.0000       0.360836         9.8188 
 109   0.0000       0.364266         9.9122 
 110   0.0000       0.369270        10.0483 
 111   0.0000       0.376806        10.2534 
 112   0.0000       0.386375        10.5138 
 113   0.0000       0.389664        10.6033 
 114   0.0000       0.396976        10.8023 
 115   0.0000       0.408317        11.1109 
 116   0.0000       0.412006        11.2112 
 117   0.0000       0.424879        11.5615 
 118   0.0000       0.434648        11.8274 
 119   0.0000       0.440299        11.9811 
 120   0.0000       0.445376        12.1193 
 121   0.0000       0.449537        12.2325 
 122   0.0000       0.452049        12.3009 
 123   0.0000       0.455339        12.3904 
 124   0.0000       0.462898        12.5961 
 125   0.0000       0.463979        12.6255 
 126   0.0000       0.467376        12.7179 
 127   0.0000       0.481553        13.1037 
 128   0.0000       0.486608        13.2413 
 129   0.0000       0.495530        13.4841 
 130   0.0000       0.499285        13.5862 
 131   0.0000       0.502901        13.6846 
 132   0.0000       0.507963        13.8224 
 133   0.0000       0.514529        14.0011 
 134   0.0000       0.520056        14.1514 
 135   0.0000       0.522318        14.2130 
 136   0.0000       0.531403        14.4602 
 137   0.0000       0.537306        14.6208 
 138   0.0000       0.539358        14.6767 
 139   0.0000       0.546951        14.8833 
 140   0.0000       0.552608        15.0372 
 141   0.0000       0.561606        15.2821 
 142   0.0000       0.567715        15.4483 
 143   0.0000       0.569707        15.5025 
 144   0.0000       0.578112        15.7312 
 145   0.0000       0.579181        15.7603 
 146   0.0000       0.580597        15.7989 
 147   0.0000       0.586877        15.9697 
 148   0.0000       0.593138        16.1401 
 149   0.0000       0.597093        16.2477 
 150   0.0000       0.601759        16.3747 
 151   0.0000       0.606582        16.5059 
 152   0.0000       0.610437        16.6108 
 153   0.0000       0.614493        16.7212 
 154   0.0000       0.618899        16.8411 
 155   0.0000       0.623640        16.9701 
 156   0.0000       0.628906        17.1134 
 157   0.0000       0.635058        17.2808 
 158   0.0000       0.636198        17.3118 
 159   0.0000       0.638588        17.3769 
 160   0.0000       0.644476        17.5371 
 161   0.0000       0.650755        17.7079 
 162   0.0000       0.655810        17.8455 
 163   0.0000       0.659334        17.9414 
 164   0.0000       0.662291        18.0218 
 165   0.0000       0.670172        18.2363 
 166   0.0000       0.677067        18.4239 
 167   0.0000       0.679316        18.4851 
 168   0.0000       0.686126        18.6704 
 169   0.0000       0.691087        18.8054 
 170   0.0000       0.701697        19.0941 
 171   0.0000       0.707256        19.2454 
 172   0.0000       0.709430        19.3046 
 173   0.0000       0.721617        19.6362 
 174   0.0000       0.731607        19.9080 
 175   0.0000       0.734343        19.9825 
 176   0.0000       0.737635        20.0721 
 177   0.0000       0.744479        20.2583 
 178   0.0000       0.754726        20.5371 
 179   0.0000       0.758700        20.6453 
 180   0.0000       0.771207        20.9856 
 181   0.0000       0.776991        21.1430 
 182   0.0000       0.780176        21.2297 
 183   0.0000       0.786961        21.4143 
 184   0.0000       0.794789        21.6273 
 185   0.0000       0.799868        21.7655 
 186   0.0000       0.821077        22.3426 
 187   0.0000       0.823366        22.4049 
 188   0.0000       0.827769        22.5247 
 189   0.0000       0.834299        22.7024 
 190   0.0000       0.843468        22.9519 
 191   0.0000       0.851271        23.1643 
 192   0.0000       0.855957        23.2918 
 193   0.0000       0.868734        23.6394 
 194   0.0000       0.872530        23.7428 
 195   0.0000       0.880927        23.9713 
 196   0.0000       0.884691        24.0737 
 197   0.0000       0.885698        24.1011 
 198   0.0000       0.894173        24.3317 
 199   0.0000       0.898391        24.4465 
 200   0.0000       0.901834        24.5402 
 201   0.0000       0.905784        24.6476 
 202   0.0000       0.931455        25.3462 
 203   0.0000       0.936337        25.4790 
 204   0.0000       0.948009        25.7966 
 205   0.0000       0.951534        25.8926 
 206   0.0000       0.953962        25.9586 
 207   0.0000       0.965778        26.2802 
 208   0.0000       0.970877        26.4189 
 209   0.0000       0.980770        26.6881 
 210   0.0000       0.986648        26.8481 
 211   0.0000       0.995823        27.0977 
 212   0.0000       0.999710        27.2035 
 213   0.0000       1.005837        27.3702 
 214   0.0000       1.010625        27.5005 
 215   0.0000       1.013291        27.5730 
 216   0.0000       1.024289        27.8723 
 217   0.0000       1.031652        28.0727 
 218   0.0000       1.037306        28.2265 
 219   0.0000       1.043396        28.3922 
 220   0.0000       1.045728        28.4557 
 221   0.0000       1.052370        28.6364 
 222   0.0000       1.063285        28.9335 
 223   0.0000       1.067727        29.0543 
 224   0.0000       1.073450        29.2101 
 225   0.0000       1.083675        29.4883 
 226   0.0000       1.092655        29.7327 
 227   0.0000       1.095573        29.8121 
 228   0.0000       1.109957        30.2035 
 229   0.0000       1.119602        30.4659 
 230   0.0000       1.122165        30.5357 
 231   0.0000       1.123548        30.5733 
 232   0.0000       1.138661        30.9845 
 233   0.0000       1.144683        31.1484 
 234   0.0000       1.149979        31.2925 
 235   0.0000       1.157541        31.4983 
 236   0.0000       1.171448        31.8767 
 237   0.0000       1.176823        32.0230 
 238   0.0000       1.182111        32.1669 
 239   0.0000       1.187848        32.3230 
 240   0.0000       1.201848        32.7040 
 241   0.0000       1.205992        32.8167 
 242   0.0000       1.215127        33.0653 
 243   0.0000       1.216242        33.0956 
 244   0.0000       1.221882        33.2491 
 245   0.0000       1.228729        33.4354 
 246   0.0000       1.231971        33.5236 
 247   0.0000       1.237512        33.6744 
 248   0.0000       1.248453        33.9721 
 249   0.0000       1.251960        34.0676 
 250   0.0000       1.255697        34.1692 
 251   0.0000       1.266323        34.4584 
 252   0.0000       1.277097        34.7516 
 253   0.0000       1.284970        34.9658 
 254   0.0000       1.290820        35.1250 
 255   0.0000       1.305474        35.5238 
 256   0.0000       1.307735        35.5853 
 257   0.0000       1.315131        35.7865 
 258   0.0000       1.319120        35.8951 
 259   0.0000       1.323308        36.0090 
 260   0.0000       1.332440        36.2575 
 261   0.0000       1.339854        36.4593 
 262   0.0000       1.356331        36.9076 
 263   0.0000       1.357557        36.9410 
 264   0.0000       1.374260        37.3955 
 265   0.0000       1.376121        37.4461 
 266   0.0000       1.382892        37.6304 
 267   0.0000       1.395630        37.9770 
 268   0.0000       1.406927        38.2844 
 269   0.0000       1.411255        38.4022 
 270   0.0000       1.416054        38.5328 
 271   0.0000       1.424912        38.7738 
 272   0.0000       1.430618        38.9291 
 273   0.0000       1.443472        39.2789 
 274   0.0000       1.444385        39.3037 
 275   0.0000       1.455941        39.6182 
 276   0.0000       1.465186        39.8697 
 277   0.0000       1.471103        40.0307 
 278   0.0000       1.477470        40.2040 
 279   0.0000       1.485688        40.4276 
 280   0.0000       1.492335        40.6085 
 281   0.0000       1.494889        40.6780 
 282   0.0000       1.506910        41.0051 
 283   0.0000       1.513567        41.1862 
 284   0.0000       1.521958        41.4146 
 285   0.0000       1.528191        41.5842 
 286   0.0000       1.528633        41.5962 
 287   0.0000       1.534922        41.7674 
 288   0.0000       1.538374        41.8613 
 289   0.0000       1.548851        42.1464 
 290   0.0000       1.551522        42.2191 
 291   0.0000       1.562170        42.5088 
 292   0.0000       1.573092        42.8060 
 293   0.0000       1.583819        43.0979 
 294   0.0000       1.585089        43.1325 
 295   0.0000       1.601299        43.5736 
 296   0.0000       1.611193        43.8428 
 297   0.0000       1.613700        43.9110 
 298   0.0000       1.631175        44.3865 
 299   0.0000       1.639755        44.6200 
 300   0.0000       1.640891        44.6509 
 301   0.0000       1.644757        44.7561 
 302   0.0000       1.655053        45.0363 
 303   0.0000       1.656624        45.0790 
 304   0.0000       1.669222        45.4218 
 305   0.0000       1.675378        45.5893 
 306   0.0000       1.678430        45.6724 
 307   0.0000       1.690103        45.9900 
 308   0.0000       1.703649        46.3586 
 309   0.0000       1.720750        46.8240 
 310   0.0000       1.727110        46.9970 
 311   0.0000       1.730395        47.0864 
 312   0.0000       1.740683        47.3664 
 313   0.0000       1.742680        47.4207 
 314   0.0000       1.757329        47.8193 
 315   0.0000       1.763718        47.9932 
 316   0.0000       1.771296        48.1994 
 317   0.0000       1.775443        48.3123 
 318   0.0000       1.786980        48.6262 
 319   0.0000       1.796818        48.8939 
 320   0.0000       1.807381        49.1813 
 321   0.0000       1.811397        49.2906 
 322   0.0000       1.820147        49.5287 
 323   0.0000       1.827247        49.7219 
 324   0.0000       1.838272        50.0219 
 325   0.0000       1.869474        50.8710 
 326   0.0000       1.882703        51.2310 
 327   0.0000       1.893439        51.5231 
 328   0.0000       1.903736        51.8033 
 329   0.0000       1.917408        52.1753 
 330   0.0000       1.922703        52.3194 
 331   0.0000       1.931892        52.5695 
 332   0.0000       1.940388        52.8006 
 333   0.0000       1.949492        53.0484 
 334   0.0000       1.959779        53.3283 
 335   0.0000       1.964873        53.4669 
 336   0.0000       1.987116        54.0722 
 337   0.0000       2.001450        54.4622 
 338   0.0000       2.006301        54.5942 
 339   0.0000       2.017207        54.8910 
 340   0.0000       2.026400        55.1412 
 341   0.0000       2.042315        55.5742 
 342   0.0000       2.046719        55.6941 
 343   0.0000       2.072275        56.3895 
 344   0.0000       2.083123        56.6847 
 345   0.0000       2.088947        56.8431 
 346   0.0000       2.133141        58.0457 
 347   0.0000       2.142451        58.2991 
 348   0.0000       2.155620        58.6574 
 349   0.0000       2.160142        58.7805 
 350   0.0000       2.170901        59.0732 
 351   0.0000       2.187696        59.5302 
 352   0.0000       2.203888        59.9709 
 353   0.0000       2.225757        60.5659 
 354   0.0000       2.235381        60.8278 
 355   0.0000       2.250056        61.2271 
 356   0.0000       2.276638        61.9505 
 357   0.0000       2.286834        62.2279 
 358   0.0000       2.292761        62.3892 
 359   0.0000       2.304228        62.7012 
 360   0.0000       2.315439        63.0063 
 361   0.0000       2.318960        63.1021 
 362   0.0000       2.341688        63.7206 
 363   0.0000       2.351415        63.9852 
 364   0.0000       2.364556        64.3428 
 365   0.0000       2.371436        64.5301 
 366   0.0000       2.379209        64.7416 
 367   0.0000       2.408262        65.5321 
 368   0.0000       2.409452        65.5645 
 369   0.0000       2.426050        66.0162 
 370   0.0000       2.437018        66.3146 
 371   0.0000       2.443819        66.4997 
 372   0.0000       2.450377        66.6781 
 373   0.0000       2.470607        67.2286 
 374   0.0000       2.485774        67.6414 
 375   0.0000       2.501171        68.0603 
 376   0.0000       2.515624        68.4536 
 377   0.0000       2.520301        68.5809 
 378   0.0000       2.539160        69.0941 
 379   0.0000       2.549740        69.3819 
 380   0.0000       2.572921        70.0127 
 381   0.0000       2.581618        70.2494 
 382   0.0000       2.590182        70.4824 
 383   0.0000       2.597187        70.6731 
 384   0.0000       2.601140        70.7806 
 385   0.0000       2.612715        71.0956 
 386   0.0000       2.622449        71.3605 
 387   0.0000       2.638006        71.7838 
 388   0.0000       2.656510        72.2873 
 389   0.0000       2.663301        72.4721 
 390   0.0000       2.673575        72.7517 
 391   0.0000       2.685859        73.0859 
 392   0.0000       2.691545        73.2407 
 393   0.0000       2.699422        73.4550 
 394   0.0000       2.715258        73.8859 
 395   0.0000       2.723615        74.1133 
 396   0.0000       2.738724        74.5245 
 397   0.0000       2.743753        74.6613 
 398   0.0000       2.749020        74.8046 
 399   0.0000       2.750716        74.8508 
 400   0.0000       2.772710        75.4493 
 401   0.0000       2.784363        75.7664 
 402   0.0000       2.790489        75.9331 
 403   0.0000       2.795016        76.0562 
 404   0.0000       2.802632        76.2635 
 405   0.0000       2.808778        76.4307 
 406   0.0000       2.817239        76.6610 
 407   0.0000       2.835579        77.1600 
 408   0.0000       2.845128        77.4199 
 409   0.0000       2.850604        77.5689 
 410   0.0000       2.867890        78.0392 
 411   0.0000       2.882761        78.4439 
 412   0.0000       2.888993        78.6135 
 413   0.0000       2.895006        78.7771 
 414   0.0000       2.909905        79.1825 
 415   0.0000       2.915795        79.3428 
 416   0.0000       2.919062        79.4317 
 417   0.0000       2.931707        79.7758 
 418   0.0000       2.933033        79.8119 
 419   0.0000       2.950951        80.2995 
 420   0.0000       2.957755        80.4846 
 421   0.0000       2.966547        80.7238 
 422   0.0000       2.983293        81.1795 
 423   0.0000       2.987193        81.2857 
 424   0.0000       2.997486        81.5657 
 425   0.0000       3.004994        81.7700 
 426   0.0000       3.011942        81.9591 
 427   0.0000       3.016438        82.0815 
 428   0.0000       3.023677        82.2784 
 429   0.0000       3.029794        82.4449 
 430   0.0000       3.042974        82.8035 
 431   0.0000       3.051578        83.0377 
 432   0.0000       3.062054        83.3227 
 433   0.0000       3.072113        83.5964 
 434   0.0000       3.074363        83.6577 
 435   0.0000       3.081251        83.8451 
 436   0.0000       3.092132        84.1412 
 437   0.0000       3.096837        84.2692 
 438   0.0000       3.102886        84.4338 
 439   0.0000       3.112336        84.6910 
 440   0.0000       3.116582        84.8065 
 441   0.0000       3.125145        85.0395 
 442   0.0000       3.126326        85.0717 
 443   0.0000       3.132133        85.2297 
 444   0.0000       3.143635        85.5427 
 445   0.0000       3.157586        85.9223 
 446   0.0000       3.163318        86.0782 
 447   0.0000       3.166904        86.1758 
 448   0.0000       3.173478        86.3547 
 449   0.0000       3.181539        86.5741 
 450   0.0000       3.196856        86.9909 
 451   0.0000       3.202896        87.1552 
 452   0.0000       3.212205        87.4085 
 453   0.0000       3.217710        87.5584 
 454   0.0000       3.227401        87.8220 
 455   0.0000       3.231306        87.9283 
 456   0.0000       3.242395        88.2301 
 457   0.0000       3.251800        88.4860 
 458   0.0000       3.262822        88.7859 
 459   0.0000       3.267248        88.9063 
 460   0.0000       3.274264        89.0973 
 461   0.0000       3.275628        89.1344 
 462   0.0000       3.283970        89.3614 
 463   0.0000       3.285890        89.4136 
 464   0.0000       3.294260        89.6414 
 465   0.0000       3.297385        89.7264 
 466   0.0000       3.305763        89.9544 
 467   0.0000       3.316418        90.2443 
 468   0.0000       3.322735        90.4162 
 469   0.0000       3.328500        90.5731 
 470   0.0000       3.334531        90.7372 
 471   0.0000       3.338667        90.8497 
 472   0.0000       3.351725        91.2051 
 473   0.0000       3.357525        91.3629 
 474   0.0000       3.361333        91.4665 
 475   0.0000       3.362950        91.5105 
 476   0.0000       3.370752        91.7228 
 477   0.0000       3.372425        91.7683 
 478   0.0000       3.376045        91.8669 
 479   0.0000       3.382608        92.0454 
 480   0.0000       3.392259        92.3081 
 481   0.0000       3.396886        92.4340 
 482   0.0000       3.402902        92.5977 
 483   0.0000       3.403758        92.6210 
 484   0.0000       3.409426        92.7752 
 485   0.0000       3.412261        92.8523 
 486   0.0000       3.420428        93.0746 
 487   0.0000       3.423141        93.1484 
 488   0.0000       3.429060        93.3095 
 489   0.0000       3.437926        93.5507 
 490   0.0000       3.443307        93.6971 
 491   0.0000       3.446018        93.7709 
 492   0.0000       3.448382        93.8352 
 493   0.0000       3.455416        94.0266 
 494   0.0000       3.468268        94.3764 
 495   0.0000       3.473531        94.5196 
 496   0.0000       3.480365        94.7055 
 497   0.0000       3.489715        94.9600 
 498   0.0000       3.497541        95.1729 
 499   0.0000       3.507252        95.4372 
 500   0.0000       3.519153        95.7610 
 501   0.0000       3.523423        95.8772 
 502   0.0000       3.529138        96.0327 
 503   0.0000       3.536493        96.2329 
 504   0.0000       3.540844        96.3513 
 505   0.0000       3.551875        96.6514 
 506   0.0000       3.562164        96.9314 
 507   0.0000       3.564906        97.0060 
 508   0.0000       3.577171        97.3398 
 509   0.0000       3.585289        97.5607 
 510   0.0000       3.591011        97.7164 
 511   0.0000       3.606228        98.1305 
 512   0.0000       3.609384        98.2163 
 513   0.0000       3.612370        98.2976 
 514   0.0000       3.623581        98.6027 
 515   0.0000       3.631764        98.8253 
 516   0.0000       3.640125        99.0528 
 517   0.0000       3.643670        99.1493 
 518   0.0000       3.650249        99.3283 
 519   0.0000       3.654681        99.4489 
 520   0.0000       3.660874        99.6175 
 521   0.0000       3.665419        99.7411 
 522   0.0000       3.670599        99.8821 
 523   0.0000       3.678189       100.0886 
 524   0.0000       3.679278       100.1183 
 525   0.0000       3.684425       100.2583 
 526   0.0000       3.692034       100.4653 
 527   0.0000       3.695902       100.5706 
 528   0.0000       3.699414       100.6662 
 529   0.0000       3.708003       100.8999 
 530   0.0000       3.714824       101.0855 
 531   0.0000       3.719940       101.2247 
 532   0.0000       3.729377       101.4815 
 533   0.0000       3.741757       101.8184 
 534   0.0000       3.742630       101.8421 
 535   0.0000       3.744727       101.8992 
 536   0.0000       3.749060       102.0171 
 537   0.0000       3.760937       102.3403 
 538   0.0000       3.777189       102.7825 
 539   0.0000       3.780175       102.8638 
 540   0.0000       3.781907       102.9109 
 541   0.0000       3.791231       103.1646 
 542   0.0000       3.795446       103.2793 
 543   0.0000       3.803420       103.4963 
 544   0.0000       3.809353       103.6578 
 545   0.0000       3.821315       103.9833 
 546   0.0000       3.831182       104.2518 
 547   0.0000       3.836754       104.4034 
 548   0.0000       3.842668       104.5643 
 549   0.0000       3.847567       104.6976 
 550   0.0000       3.852253       104.8251 
 551   0.0000       3.864281       105.1524 
 552   0.0000       3.869223       105.2869 
 553   0.0000       3.877446       105.5107 
 554   0.0000       3.879569       105.5684 
 555   0.0000       3.891134       105.8831 
 556   0.0000       3.905812       106.2826 
 557   0.0000       3.921665       106.7139 
 558   0.0000       3.928547       106.9012 
 559   0.0000       3.932938       107.0207 
 560   0.0000       3.942260       107.2744 
 561   0.0000       3.944603       107.3381 
 562   0.0000       3.955021       107.6216 
 563   0.0000       3.966667       107.9385 
 564   0.0000       3.978390       108.2575 
 565   0.0000       3.987088       108.4942 
 566   0.0000       3.991219       108.6066 
 567   0.0000       4.007116       109.0392 
 568   0.0000       4.014208       109.2322 
 569   0.0000       4.019742       109.3827 
 570   0.0000       4.023501       109.4850 
 571   0.0000       4.033194       109.7488 
 572   0.0000       4.039715       109.9262 
 573   0.0000       4.049527       110.1932 
 574   0.0000       4.060894       110.5025 
 575   0.0000       4.070777       110.7715 
 576   0.0000       4.074641       110.8766 
 577   0.0000       4.082826       111.0993 
 578   0.0000       4.083626       111.1211 
 579   0.0000       4.093134       111.3798 
 580   0.0000       4.097441       111.4970 
 581   0.0000       4.107239       111.7637 
 582   0.0000       4.113859       111.9438 
 583   0.0000       4.122257       112.1723 
 584   0.0000       4.129464       112.3684 
 585   0.0000       4.143134       112.7404 
 586   0.0000       4.147853       112.8688 
 587   0.0000       4.152396       112.9924 
 588   0.0000       4.158623       113.1619 
 589   0.0000       4.167076       113.3919 
 590   0.0000       4.178996       113.7163 
 591   0.0000       4.180497       113.7571 
 592   0.0000       4.186834       113.9295 
 593   0.0000       4.194189       114.1297 
 594   0.0000       4.204676       114.4150 
 595   0.0000       4.211331       114.5962 
 596   0.0000       4.219328       114.8138 
 597   0.0000       4.220736       114.8521 
 598   0.0000       4.226597       115.0116 
 599   0.0000       4.242015       115.4311 
 600   0.0000       4.252126       115.7062 
 601   0.0000       4.254652       115.7750 
 602   0.0000       4.262334       115.9840 
 603   0.0000       4.275358       116.3384 
 604   0.0000       4.287207       116.6608 
 605   0.0000       4.290812       116.7589 
 606   0.0000       4.297513       116.9413 
 607   0.0000       4.305594       117.1612 
 608   0.0000       4.318773       117.5198 
 609   0.0000       4.321865       117.6039 
 610   0.0000       4.340320       118.1061 
 611   0.0000       4.341351       118.1342 
 612   0.0000       4.352704       118.4431 
 613   0.0000       4.363477       118.7363 
 614   0.0000       4.368022       118.8599 
 615   0.0000       4.376262       119.0841 
 616   0.0000       4.382346       119.2497 
 617   0.0000       4.384370       119.3048 
 618   0.0000       4.396262       119.6284 
 619   0.0000       4.401413       119.7685 
 620   0.0000       4.408447       119.9599 
 621   0.0000       4.418779       120.2411 
 622   0.0000       4.423146       120.3599 
 623   0.0000       4.441350       120.8553 
 624   0.0000       4.450774       121.1117 
 625   0.0000       4.457581       121.2970 
 626   0.0000       4.458045       121.3096 
 627   0.0000       4.470574       121.6505 
 628   0.0000       4.473053       121.7180 
 629   0.0000       4.487882       122.1215 
 630   0.0000       4.495065       122.3170 
 631   0.0000       4.504276       122.5676 
 632   0.0000       4.507138       122.6455 
 633   0.0000       4.520229       123.0017 
 634   0.0000       4.523350       123.0866 
 635   0.0000       4.532650       123.3397 
 636   0.0000       4.537262       123.4652 
 637   0.0000       4.553255       123.9004 
 638   0.0000       4.557551       124.0173 
 639   0.0000       4.565090       124.2224 
 640   0.0000       4.575495       124.5055 
 641   0.0000       4.581863       124.6788 
 642   0.0000       4.596217       125.0694 
 643   0.0000       4.600012       125.1727 
 644   0.0000       4.611509       125.4855 
 645   0.0000       4.615221       125.5866 
 646   0.0000       4.624285       125.8332 
 647   0.0000       4.642719       126.3348 
 648   0.0000       4.646698       126.4431 
 649   0.0000       4.650557       126.5481 
 650   0.0000       4.654239       126.6483 
 651   0.0000       4.662730       126.8793 
 652   0.0000       4.671603       127.1208 
 653   0.0000       4.681630       127.3936 
 654   0.0000       4.701189       127.9259 
 655   0.0000       4.706730       128.0766 
 656   0.0000       4.713571       128.2628 
 657   0.0000       4.721782       128.4862 
 658   0.0000       4.730464       128.7225 
 659   0.0000       4.743658       129.0815 
 660   0.0000       4.758079       129.4739 
 661   0.0000       4.763760       129.6285 
 662   0.0000       4.787415       130.2722 
 663   0.0000       4.800488       130.6279 
 664   0.0000       4.807885       130.8292 
 665   0.0000       4.816193       131.0553 
 666   0.0000       4.842649       131.7752 
 667   0.0000       4.854260       132.0911 
 668   0.0000       4.869833       132.5149 
 669   0.0000       4.888092       133.0117 
 670   0.0000       4.901688       133.3817 
 671   0.0000       4.910387       133.6184 
 672   0.0000       4.946461       134.6001 
 673   0.0000       4.960799       134.9902 
 674   0.0000       4.976656       135.4217 
 675   0.0000       4.979038       135.4865 
 676   0.0000       5.008065       136.2764 
 677   0.0000       5.016015       136.4927 
 678   0.0000       5.020202       136.6066 
 679   0.0000       5.036963       137.0627 
 680   0.0000       5.046776       137.3298 
 681   0.0000       5.052960       137.4980 
 682   0.0000       5.078883       138.2034 
 683   0.0000       5.093293       138.5956 
 684   0.0000       5.103566       138.8751 
 685   0.0000       5.122752       139.3972 
 686   0.0000       5.138849       139.8352 
 687   0.0000       5.139514       139.8533 
 688   0.0000       5.146239       140.0363 
 689   0.0000       5.155044       140.2759 
 690   0.0000       5.171569       140.7255 
 691   0.0000       5.174466       140.8044 
 692   0.0000       5.183901       141.0611 
 693   0.0000       5.194986       141.3628 
 694   0.0000       5.218070       141.9909 
 695   0.0000       5.221323       142.0794 
 696   0.0000       5.226518       142.2208 
 697   0.0000       5.236464       142.4914 
 698   0.0000       5.247483       142.7913 
 699   0.0000       5.267059       143.3240 
 700   0.0000       5.268662       143.3676 
 701   0.0000       5.286915       143.8643 
 702   0.0000       5.290389       143.9588 
 703   0.0000       5.303097       144.3046 
 704   0.0000       5.314998       144.6285 
 705   0.0000       5.332464       145.1037 
 706   0.0000       5.336338       145.2091 
 707   0.0000       5.348353       145.5361 
 708   0.0000       5.351889       145.6323 
 709   0.0000       5.366528       146.0307 
 710   0.0000       5.382026       146.4524 
 711   0.0000       5.404395       147.0611 
 712   0.0000       5.423341       147.5766 
 713   0.0000       5.461865       148.6249 
 714   0.0000       5.473395       148.9387 
 715   0.0000       5.488034       149.3370 
 716   0.0000       5.498594       149.6243 
 717   0.0000       5.502194       149.7223 
 718   0.0000       5.514419       150.0550 
 719   0.0000       5.522116       150.2644 
 720   0.0000       5.532245       150.5400 
 721   0.0000       5.539175       150.7286 
 722   0.0000       5.553371       151.1149 
 723   0.0000       5.570359       151.5772 
 724   0.0000       5.575607       151.7200 
 725   0.0000       5.586086       152.0051 
 726   0.0000       5.591997       152.1660 
 727   0.0000       5.617255       152.8533 
 728   0.0000       5.628607       153.1622 
 729   0.0000       5.644468       153.5938 
 730   0.0000       5.651731       153.7914 
 731   0.0000       5.652798       153.8205 
 732   0.0000       5.668246       154.2408 
 733   0.0000       5.674916       154.4223 
 734   0.0000       5.692096       154.8898 
 735   0.0000       5.700150       155.1090 
 736   0.0000       5.719157       155.6262 
 737   0.0000       5.724039       155.7590 
 738   0.0000       5.735062       156.0590 
 739   0.0000       5.768953       156.9812 
 740   0.0000       5.794331       157.6718 
 741   0.0000       5.811114       158.1284 
 742   0.0000       5.813398       158.1906 
 743   0.0000       5.819844       158.3660 
 744   0.0000       5.842877       158.9928 
 745   0.0000       5.848895       159.1565 
 746   0.0000       5.860822       159.4811 
 747   0.0000       5.887032       160.1943 
 748   0.0000       5.911900       160.8710 
 749   0.0000       5.942764       161.7108 
 750   0.0000       5.956158       162.0753 
 751   0.0000       5.960207       162.1855 
 752   0.0000       5.983980       162.8324 
 753   0.0000       6.001293       163.3035 
 754   0.0000       6.017606       163.7474 
 755   0.0000       6.043555       164.4535 
 756   0.0000       6.050650       164.6465 
 757   0.0000       6.065687       165.0557 
 758   0.0000       6.079676       165.4364 
 759   0.0000       6.097610       165.9244 
 760   0.0000       6.173042       167.9770 
 761   0.0000       6.174098       168.0058 
 762   0.0000       6.208599       168.9446 
 763   0.0000       6.218763       169.2211 
 764   0.0000       6.233550       169.6235 
 765   0.0000       6.262577       170.4134 
 766   0.0000       6.279775       170.8814 
 767   0.0000       6.289461       171.1449 
 768   0.0000       6.312010       171.7585 
 769   0.0000       6.330873       172.2718 
 770   0.0000       6.341462       172.5600 
 771   0.0000       6.354855       172.9244 
 772   0.0000       6.394066       173.9914 
 773   0.0000       6.456660       175.6947 
 774   0.0000       6.472968       176.1384 
 775   0.0000       6.506236       177.0437 
 776   0.0000       6.569751       178.7720 
 777   0.0000       6.573398       178.8712 
 778   0.0000       6.588854       179.2918 
 779   0.0000       6.614734       179.9961 
 780   0.0000       6.689058       182.0185 
 781   0.0000       6.714392       182.7079 
 782   0.0000       6.762813       184.0255 
 783   0.0000       6.797353       184.9654 
 784   0.0000       6.815464       185.4582 
 785   0.0000       6.879824       187.2095 
 786   0.0000       6.898393       187.7148 
 787   0.0000       6.912540       188.0998 
 788   0.0000       6.929871       188.5714 
 789   0.0000       6.996683       190.3894 
 790   0.0000       7.007793       190.6917 
 791   0.0000       7.091112       192.9590 
 792   0.0000       7.108509       193.4324 
 793   0.0000       7.144153       194.4023 
 794   0.0000       7.199446       195.9069 
 795   0.0000       7.236879       196.9255 
 796   0.0000       7.246934       197.1991 
 797   0.0000       7.285673       198.2532 
 798   0.0000       7.340939       199.7571 
 799   0.0000       7.357921       200.2192 
 800   0.0000       7.445111       202.5918 
 801   0.0000       7.534783       205.0319 
 802   0.0000       7.571110       206.0204 
 803   0.0000       7.596479       206.7107 
 804   0.0000       7.662346       208.5030 
 805   0.0000       7.823599       212.8910 
 806   0.0000       7.915124       215.3815 
 807   0.0000       7.929126       215.7625 
 808   0.0000       7.968404       216.8313 
 809   0.0000       9.451356       257.1845 
 810   0.0000       9.668757       263.1002 
 811   0.0000      10.896515       296.5092 
 812   0.0000      11.304313       307.6060 
 813   0.0000      11.959851       325.4441 
 814   0.0000      12.670996       344.7953 
 815   0.0000      12.762297       347.2798 
 816   0.0000      12.988161       353.4258 
 817   0.0000      13.181228       358.6795 
 818   0.0000      13.283951       361.4747 
 819   0.0000      13.385118       364.2276 
 820   0.0000      13.609388       370.3303 
 821   0.0000      13.767197       374.6245 
 822   0.0000      13.846938       376.7943 
 823   0.0000      13.889676       377.9573 
 824   0.0000      13.993733       380.7888 
 825   0.0000      14.404060       391.9544 
 826   0.0000      14.517400       395.0385 
 827   0.0000      15.852659       431.3728 

                    ********************************
                    * MULLIKEN POPULATION ANALYSIS *
                    ********************************

-----------------------
MULLIKEN ATOMIC CHARGES
-----------------------
   0 C :   -0.274578
   1 C :    0.032304
   2 O :   -0.345223
   3 C :    0.453113
   4 O :   -0.425856
   5 C :   -0.160466
   6 C :    0.122941
   7 C :   -0.311848
   8 N :   -0.121272
   9 C :    0.193950
  10 S :   -0.440933
  11 N :   -0.188022
  12 C :    0.080873
  13 C :    0.026185
  14 C :   -0.202797
  15 C :   -0.119302
  16 C :   -0.283498
  17 C :    0.314086
  18 O :   -0.360659
  19 C :   -0.253570
  20 H :    0.118092
  21 H :    0.092090
  22 H :    0.088856
  23 H :    0.097834
  24 H :    0.104939
  25 H :    0.140935
  26 H :    0.121528
  27 H :    0.119489
  28 H :    0.190931
  29 H :    0.185743
  30 H :    0.185819
  31 H :    0.132772
  32 H :    0.156507
  33 H :    0.124615
  34 H :    0.243690
  35 H :    0.160731
Sum of atomic charges:   -0.0000000

--------------------------------
MULLIKEN REDUCED ORBITAL CHARGES
--------------------------------
  0 C s       :     3.260295  s :     3.260295
      pz      :     0.988979  p :     2.939298
      px      :     0.999222
      py      :     0.951097
      dz2     :     0.002267  d :     0.070501
      dxz     :     0.024070
      dyz     :     0.020814
      dx2y2   :     0.008487
      dxy     :     0.014863
      f0      :     0.000352  f :     0.004484
      f+1     :     0.000161
      f-1     :     0.000265
      f+2     :     0.000702
      f-2     :     0.002159
      f+3     :     0.000516
      f-3     :     0.000329
  1 C s       :     3.167474  s :     3.167474
      pz      :     0.848695  p :     2.634469
      px      :     0.919731
      py      :     0.866043
      dz2     :     0.026132  d :     0.153769
      dxz     :     0.039085
      dyz     :     0.031287
      dx2y2   :     0.022305
      dxy     :     0.034960
      f0      :     0.001459  f :     0.011985
      f+1     :     0.001527
      f-1     :     0.001826
      f+2     :     0.002027
      f-2     :     0.003006
      f+3     :     0.001093
      f-3     :     0.001047
  2 O s       :     3.699914  s :     3.699914
      pz      :     1.556642  p :     4.609287
      px      :     1.364320
      py      :     1.688326
      dz2     :     0.005575  d :     0.033516
      dxz     :     0.006249
      dyz     :     0.006724
      dx2y2   :     0.007966
      dxy     :     0.007003
      f0      :     0.000308  f :     0.002505
      f+1     :     0.000440
      f-1     :     0.000191
      f+2     :     0.000490
      f-2     :     0.000458
      f+3     :     0.000352
      f-3     :     0.000265
  3 C s       :     3.067796  s :     3.067796
      pz      :     0.716260  p :     2.149443
      px      :     0.659642
      py      :     0.773541
      dz2     :     0.036914  d :     0.302536
      dxz     :     0.060585
      dyz     :     0.050209
      dx2y2   :     0.097807
      dxy     :     0.057022
      f0      :     0.002098  f :     0.027113
      f+1     :     0.003869
      f-1     :     0.002433
      f+2     :     0.003209
      f-2     :     0.004512
      f+3     :     0.004557
      f-3     :     0.006433
  4 O s       :     3.766838  s :     3.766838
      pz      :     1.599000  p :     4.621549
      px      :     1.583061
      py      :     1.439488
      dz2     :     0.004305  d :     0.035094
      dxz     :     0.005054
      dyz     :     0.005664
      dx2y2   :     0.008890
      dxy     :     0.011180
      f0      :     0.000225  f :     0.002375
      f+1     :     0.000189
      f-1     :     0.000264
      f+2     :     0.000077
      f-2     :     0.000439
      f+3     :     0.000632
      f-3     :     0.000548
  5 C s       :     3.180138  s :     3.180138
      pz      :     1.019258  p :     2.880034
      px      :     0.934740
      py      :     0.926036
      dz2     :     0.014200  d :     0.089435
      dxz     :     0.011383
      dyz     :     0.025547
      dx2y2   :     0.019172
      dxy     :     0.019134
      f0      :     0.000967  f :     0.010858
      f+1     :     0.001157
      f-1     :     0.001438
      f+2     :     0.002191
      f-2     :     0.001732
      f+3     :     0.001446
      f-3     :     0.001927
  6 C s       :     3.215226  s :     3.215226
      pz      :     0.848205  p :     2.478491
      px      :     0.825230
      py      :     0.805056
      dz2     :     0.030107  d :     0.169541
      dxz     :     0.019132
      dyz     :     0.049263
      dx2y2   :     0.030157
      dxy     :     0.040880
      f0      :     0.001417  f :     0.013801
      f+1     :     0.001410
      f-1     :     0.002290
      f+2     :     0.001971
      f-2     :     0.002559
      f+3     :     0.001803
      f-3     :     0.002351
  7 C s       :     3.296417  s :     3.296417
      pz      :     0.941942  p :     2.940570
      px      :     0.982476
      py      :     1.016153
      dz2     :     0.010697  d :     0.070214
      dxz     :     0.016186
      dyz     :     0.019777
      dx2y2   :     0.003905
      dxy     :     0.019650
      f0      :     0.000190  f :     0.004646
      f+1     :     0.000729
      f-1     :     0.000748
      f+2     :     0.000398
      f-2     :     0.001995
      f+3     :     0.000074
      f-3     :     0.000513
  8 N s       :     3.342110  s :     3.342110
      pz      :     1.338621  p :     3.715000
      px      :     1.292853
      py      :     1.083527
      dz2     :     0.011391  d :     0.059124
      dxz     :     0.009445
      dyz     :     0.011739
      dx2y2   :     0.013663
      dxy     :     0.012887
      f0      :     0.000591  f :     0.005038
      f+1     :     0.001028
      f-1     :     0.000442
      f+2     :     0.000994
      f-2     :     0.001058
      f+3     :     0.000454
      f-3     :     0.000472
  9 C s       :     3.169763  s :     3.169763
      pz      :     0.750494  p :     2.353927
      px      :     0.730611
      py      :     0.872822
      dz2     :     0.055783  d :     0.264604
      dxz     :     0.032066
      dyz     :     0.048857
      dx2y2   :     0.067201
      dxy     :     0.060697
      f0      :     0.001965  f :     0.017756
      f+1     :     0.002894
      f-1     :     0.002020
      f+2     :     0.002911
      f-2     :     0.001970
      f+3     :     0.002758
      f-3     :     0.003237
 10 S s       :     5.855933  s :     5.855933
      pz      :     3.520347  p :    10.490456
      px      :     3.690704
      py      :     3.279405
      dz2     :     0.010708  d :     0.084405
      dxz     :     0.005050
      dyz     :     0.032005
      dx2y2   :     0.014866
      dxy     :     0.021777
      f0      :     0.001125  f :     0.010139
      f+1     :     0.000266
      f-1     :     0.001639
      f+2     :     0.002184
      f-2     :     0.001858
      f+3     :     0.002147
      f-3     :     0.000919
 11 N s       :     3.368069  s :     3.368069
      pz      :     1.309005  p :     3.755385
      px      :     1.400650
      py      :     1.045730
      dz2     :     0.007882  d :     0.060113
      dxz     :     0.008397
      dyz     :     0.016281
      dx2y2   :     0.013706
      dxy     :     0.013847
      f0      :     0.000361  f :     0.004454
      f+1     :     0.000530
      f-1     :     0.000582
      f+2     :     0.000736
      f-2     :     0.000667
      f+3     :     0.000798
      f-3     :     0.000780
 12 C s       :     3.105568  s :     3.105568
      pz      :     0.854992  p :     2.630639
      px      :     0.916395
      py      :     0.859253
      dz2     :     0.032398  d :     0.171993
      dxz     :     0.029621
      dyz     :     0.039440
      dx2y2   :     0.026524
      dxy     :     0.044011
      f0      :     0.001065  f :     0.010927
      f+1     :     0.001447
      f-1     :     0.001914
      f+2     :     0.002188
      f-2     :     0.001955
      f+3     :     0.001403
      f-3     :     0.000955
 13 C s       :     3.131828  s :     3.131828
      pz      :     0.877361  p :     2.716745
      px      :     0.901093
      py      :     0.938291
      dz2     :     0.025941  d :     0.114194
      dxz     :     0.015055
      dyz     :     0.023529
      dx2y2   :     0.025870
      dxy     :     0.023800
      f0      :     0.000944  f :     0.011048
      f+1     :     0.001945
[...]
      f+2     :     0.007950
      f-2     :     0.005186
      f+3     :     0.006426
      f-3     :     0.007988
 15 C s       :     2.703441  s :     2.703441
      pz      :     0.894451  p :     2.791739
      px      :     0.938641
      py      :     0.958647
      dz2     :     0.091040  d :     0.426199
      dxz     :     0.074894
      dyz     :     0.058097
      dx2y2   :     0.111945
      dxy     :     0.090222
      f0      :     0.003561  f :     0.042420
      f+1     :     0.005591
      f-1     :     0.005827
      f+2     :     0.007691
      f-2     :     0.005956
      f+3     :     0.007519
      f-3     :     0.006274
 16 C s       :     2.699977  s :     2.699977
      pz      :     0.938911  p :     2.875303
      px      :     0.966592
      py      :     0.969799
      dz2     :     0.041875  d :     0.394061
      dxz     :     0.064245
      dyz     :     0.082584
      dx2y2   :     0.096658
      dxy     :     0.108700
      f0      :     0.003742  f :     0.041100
      f+1     :     0.004929
      f-1     :     0.004420
      f+2     :     0.006380
      f-2     :     0.005044
      f+3     :     0.008979
      f-3     :     0.007606
 17 C s       :     2.704337  s :     2.704337
      pz      :     0.861005  p :     2.677191
      px      :     0.818772
      py      :     0.997413
      dz2     :     0.125061  d :     0.706952
      dxz     :     0.115293
      dyz     :     0.127972
      dx2y2   :     0.168805
      dxy     :     0.169820
      f0      :     0.008580  f :     0.099111
      f+1     :     0.016511
      f-1     :     0.008748
      f+2     :     0.016494
      f-2     :     0.013086
      f+3     :     0.017996
      f-3     :     0.017696
 18 O s       :     3.179232  s :     3.179232
      pz      :     1.442775  p :     4.350366
      px      :     1.398325
      py      :     1.509266
      dz2     :     0.007635  d :     0.075690
      dxz     :     0.017017
      dyz     :     0.017121
      dx2y2   :     0.017062
      dxy     :     0.016855
      f0      :     0.000566  f :     0.005120
      f+1     :     0.000729
      f-1     :     0.000401
      f+2     :     0.000671
      f-2     :     0.000934
      f+3     :     0.000810
      f-3     :     0.001008
 19 C s       :     2.699407  s :     2.699407
      pz      :     0.941486  p :     2.857191
      px      :     0.955001
      py      :     0.960704
      dz2     :     0.070412  d :     0.378744
      dxz     :     0.071344
      dyz     :     0.057010
      dx2y2   :     0.088050
      dxy     :     0.091927
      f0      :     0.003639  f :     0.039272
      f+1     :     0.005568
      f-1     :     0.004656
      f+2     :     0.007320
      f-2     :     0.005876
      f+3     :     0.007147
      f-3     :     0.005065
 20 H s       :     0.844204  s :     0.844204
      pz      :     0.051598  p :     0.150816
      px      :     0.052649
      py      :     0.046570
      dz2     :     0.005689  d :     0.027517
      dxz     :     0.005841
      dyz     :     0.005274
      dx2y2   :     0.005218
      dxy     :     0.005494
 21 H s       :     0.848590  s :     0.848590
      pz      :     0.051482  p :     0.152245
      px      :     0.047858
      py      :     0.052905
      dz2     :     0.005935  d :     0.027537
      dxz     :     0.005346
      dyz     :     0.006100
      dx2y2   :     0.005012
      dxy     :     0.005145
 22 H s       :     0.847402  s :     0.847402
      pz      :     0.051709  p :     0.150940
      px      :     0.056631
      py      :     0.042600
      dz2     :     0.005735  d :     0.027380
      dxz     :     0.006577
      dyz     :     0.004496
      dx2y2   :     0.005305
      dxy     :     0.005267
 23 H s       :     0.856548  s :     0.856548
      pz      :     0.054346  p :     0.147303
      px      :     0.051154
      py      :     0.041803
      dz2     :     0.006358  d :     0.027080
      dxz     :     0.007233
      dyz     :     0.005189
      dx2y2   :     0.003205
      dxy     :     0.005096
 24 H s       :     0.856394  s :     0.856394
      pz      :     0.041554  p :     0.142711
      px      :     0.055566
      py      :     0.045591
      dz2     :     0.003830  d :     0.026795
      dxz     :     0.005622
      dyz     :     0.005077
      dx2y2   :     0.006016
      dxy     :     0.006250
 25 H s       :     0.828542  s :     0.828542
      pz      :     0.055072  p :     0.163342
      px      :     0.045686
      py      :     0.062585
      dz2     :     0.007434  d :     0.029180
      dxz     :     0.005516
      dyz     :     0.006957
      dx2y2   :     0.004082
      dxy     :     0.005190
 26 H s       :     0.828830  s :     0.828830
      pz      :     0.047394  p :     0.153059
      px      :     0.049627
      py      :     0.056039
      dz2     :     0.005113  d :     0.027954
      dxz     :     0.005363
      dyz     :     0.005515
      dx2y2   :     0.006249
      dxy     :     0.005714
 27 H s       :     0.836293  s :     0.836293
      pz      :     0.040808  p :     0.154643
      px      :     0.061347
      py      :     0.052487
      dz2     :     0.003331  d :     0.027981
      dxz     :     0.005724
      dyz     :     0.003912
      dx2y2   :     0.008103
      dxy     :     0.006911
 28 H s       :     0.742581  s :     0.742581
      pz      :     0.068482  p :     0.254493
      px      :     0.071266
      py      :     0.114745
      dz2     :     0.006079  d :     0.062117
      dxz     :     0.002035
      dyz     :     0.019035
      dx2y2   :     0.016045
      dxy     :     0.018923
 29 H s       :     0.747262  s :     0.747262
      pz      :     0.107546  p :     0.254108
      px      :     0.103243
      py      :     0.043319
      dz2     :     0.019908  d :     0.061576
      dxz     :     0.015516
      dyz     :     0.009370
      dx2y2   :     0.010087
      dxy     :     0.006695
 30 H s       :     0.808190  s :     0.808190
      pz      :     0.043140  p :     0.168778
      px      :     0.050773
      py      :     0.074865
      dz2     :     0.003542  d :     0.030513
      dxz     :     0.004822
      dyz     :     0.005976
      dx2y2   :     0.007800
      dxy     :     0.008373
 31 H s       :     0.842738  s :     0.842738
      pz      :     0.052908  p :     0.160511
      px      :     0.065864
      py      :     0.041740
      dz2     :     0.004895  d :     0.027978
      dxz     :     0.006466
      dyz     :     0.003657
      dx2y2   :     0.006446
      dxy     :     0.006514
 32 H s       :     0.842810  s :     0.842810
      pz      :     0.037288  p :     0.149640
      px      :     0.038785
      py      :     0.073566
      dz2     :     0.002744  d :     0.026250
      dxz     :     0.000892
      dyz     :     0.007147
      dx2y2   :     0.007633
      dxy     :     0.007834
 33 H s       :     0.848949  s :     0.848949
      pz      :     0.059876  p :     0.159126
      px      :     0.049105
      py      :     0.050145
      dz2     :     0.006440  d :     0.027734
      dxz     :     0.005124
      dyz     :     0.005883
      dx2y2   :     0.005364
      dxy     :     0.004923
 34 H s       :     0.705063  s :     0.705063
      pz      :     0.118418  p :     0.345980
      px      :     0.082405
      py      :     0.145158
      dz2     :     0.024703  d :     0.099052
      dxz     :     0.012448
      dyz     :     0.024058
      dx2y2   :     0.019257
      dxy     :     0.018586
 35 H s       :     0.842515  s :     0.842515
      pz      :     0.042639  p :     0.160326
      px      :     0.043140
      py      :     0.074547
      dz2     :     0.003152  d :     0.028507
      dxz     :     0.001628
      dyz     :     0.007613
      dx2y2   :     0.008053
      dxy     :     0.008062


                      *****************************
                      * MAYER POPULATION ANALYSIS *
                      *****************************

  NA   - Mulliken gross atomic population
  ZA   - Total nuclear charge
  QA   - Mulliken gross atomic charge
  VA   - Mayer's total valence
  BVA  - Mayer's bonded valence
  FA   - Mayer's free valence

  ATOM       NA         ZA         QA         VA         BVA        FA
  0 C      6.2746     6.0000    -0.2746     3.8821     3.8821     0.0000
  1 C      5.9677     6.0000     0.0323     3.8549     3.8549    -0.0000
  2 O      8.3452     8.0000    -0.3452     2.0473     2.0473     0.0000
  3 C      5.5469     6.0000     0.4531     4.2454     4.2454    -0.0000
  4 O      8.4259     8.0000    -0.4259     2.0998     2.0998    -0.0000
  5 C      6.1605     6.0000    -0.1605     3.6179     3.6179    -0.0000
  6 C      5.8771     6.0000     0.1229     3.8486     3.8486     0.0000
  7 C      6.3118     6.0000    -0.3118     3.8784     3.8784    -0.0000
  8 N      7.1213     7.0000    -0.1213     3.2632     3.2632    -0.0000
  9 C      5.8061     6.0000     0.1939     4.1490     4.1490    -0.0000
 10 S     16.4409    16.0000    -0.4409     1.7542     1.7542     0.0000
 11 N      7.1880     7.0000    -0.1880     3.2705     3.2705    -0.0000
 12 C      5.9191     6.0000     0.0809     3.9017     3.9017    -0.0000
 13 C      5.9738     6.0000     0.0262     3.7359     3.7359    -0.0000
 14 C      6.2028     6.0000    -0.2028     3.8520     3.8520     0.0000
 15 C      6.1193     6.0000    -0.1193     3.8032     3.8032     0.0000
 16 C      6.2835     6.0000    -0.2835     3.7812     3.7812     0.0000
 17 C      5.6859     6.0000     0.3141     3.8737     3.8737     0.0000
 18 O      8.3607     8.0000    -0.3607     2.1136     2.1136    -0.0000
 19 C      6.2536     6.0000    -0.2536     3.8515     3.8515    -0.0000
 20 H      0.8819     1.0000     0.1181     0.9888     0.9888     0.0000
 21 H      0.9079     1.0000     0.0921     0.9842     0.9842     0.0000
 22 H      0.9111     1.0000     0.0889     0.9830     0.9830    -0.0000
 23 H      0.9022     1.0000     0.0978     0.9805     0.9805     0.0000
 24 H      0.8951     1.0000     0.1049     0.9734     0.9734    -0.0000
 25 H      0.8591     1.0000     0.1409     0.9844     0.9844     0.0000
 26 H      0.8785     1.0000     0.1215     0.9733     0.9733    -0.0000
 27 H      0.8805     1.0000     0.1195     0.9790     0.9790     0.0000
 28 H      0.8091     1.0000     0.1909     1.0247     1.0247    -0.0000
 29 H      0.8143     1.0000     0.1857     1.0273     1.0273    -0.0000
 30 H      0.8142     1.0000     0.1858     1.0000     1.0000    -0.0000
 31 H      0.8672     1.0000     0.1328     0.9900     0.9900     0.0000
 32 H      0.8435     1.0000     0.1565     0.9782     0.9782     0.0000
 33 H      0.8754     1.0000     0.1246     0.9929     0.9929    -0.0000
 34 H      0.7563     1.0000     0.2437     1.0085     1.0085    -0.0000
 35 H      0.8393     1.0000     0.1607     0.9912     0.9912    -0.0000

  Mayer bond orders larger than 0.100000
B(  0-C ,  1-C ) :   0.9664 B(  0-C , 20-H ) :   0.9762 B(  0-C , 21-H ) :   0.9765 
B(  0-C , 22-H ) :   0.9784 B(  1-C ,  2-O ) :   0.8917 B(  1-C , 23-H ) :   0.9800 
B(  1-C , 24-H ) :   0.9814 B(  2-O ,  3-C ) :   1.1703 B(  3-C ,  4-O ) :   2.0025 
B(  3-C ,  5-C ) :   1.0200 B(  5-C ,  6-C ) :   1.6587 B(  5-C , 12-C ) :   0.9955 
B(  6-C ,  7-C ) :   0.9541 B(  6-C ,  8-N ) :   1.1206 B(  7-C , 25-H ) :   0.9747 
B(  7-C , 26-H ) :   0.9671 B(  7-C , 27-H ) :   0.9715 B(  8-N ,  9-C ) :   1.1870 
B(  8-N , 28-H ) :   0.9545 B(  9-C , 10-S ) :   1.6022 B(  9-C , 11-N ) :   1.3079 
B( 11-N , 12-C ) :   0.9901 B( 11-N , 29-H ) :   0.9553 B( 12-C , 13-C ) :   0.9003 
B( 12-C , 30-H ) :   0.9773 B( 13-C , 14-C ) :   1.3735 B( 13-C , 19-C ) :   1.3798 
B( 14-C , 15-C ) :   1.3773 B( 14-C , 31-H ) :   0.9759 B( 15-C , 16-C ) :   1.3690 
B( 15-C , 32-H ) :   0.9718 B( 16-C , 17-C ) :   1.3131 B( 16-C , 33-H ) :   0.9892 
B( 17-C , 18-O ) :   1.1026 B( 17-C , 19-C ) :   1.3956 B( 18-O , 34-H ) :   0.9776 
B( 19-C , 35-H ) :   0.9530 

-------
TIMINGS
-------

Total SCF time: 0 days 1 hours 34 min 4 sec 

Total time                  ....    5644.036 sec
Sum of individual times     ....    5638.709 sec  ( 99.9%)

Fock matrix formation       ....    5625.469 sec  ( 99.7%)
Diagonalization             ....       1.273 sec  (  0.0%)
Density matrix formation    ....       0.216 sec  (  0.0%)
Population analysis         ....       0.182 sec  (  0.0%)
Initial guess               ....       5.033 sec  (  0.1%)
Orbital Transformation      ....       0.000 sec  (  0.0%)
Orbital Orthonormalization  ....       0.000 sec  (  0.0%)
DIIS solution               ....       3.070 sec  (  0.1%)
SOSCF solution              ....       2.190 sec  (  0.0%)

------------------------------------------------------------------------------
                                ORCA  MP2 
------------------------------------------------------------------------------

Freezing NCore=48 chemical core electrons

-------------
RI-MP2 ENERGY
-------------
Dimension of the basis                    ...  828
Memory devoted to MP2                     ...  256 MB   
Data format for buffers                   ... DOUBLE
Compression type for matrix containers    ... UNCOMPRESSED
Overall scaling of the MP2 energy         ...   1.000e+00
Calculating two index integrals           ... done (    0.040 sec)
Cholesky decomposition of V**-1           ... done (    0.325 sec)

-----------------
RI-TRANSFORMATION (AUX index driven)
-----------------

Dimension of the orbital-basis         ... 828
Dimension of the aux-basis             ... 2141
Transformation of internal/external MOs...   24-  76 to   77- 827
Number Format for Storage              ... Double (8 Byte)
Integral mode                          ... Direct

First Phase: integral generation and transformation of MO indices
  Aux angular momentum 0               ... done (    4.731 sec)
  Aux angular momentum 1               ... done (    7.541 sec)
  Aux angular momentum 2               ... done (    9.960 sec)
  Aux angular momentum 3               ... done (    7.900 sec)
  Aux angular momentum 4               ... done (    2.886 sec)
Closing buffer VIA ( 0.63 GB; CompressionRatio= 1.00)
  Phase 1 completed in    33.239 sec
Second Phase: sorting and transformation of aux index

IA-Transformation
Memory available                       ... 167 MB 
Max. # MO pairs treated in a batch     ... 12    
# of internal orbitals                 ... 53
# batches for internal orbitals        ... 5
Closing buffer IAV ( 0.63 GB; CompressionRatio= 1.00)
(ia|v) transformation done in    21.031 sec

  Phase 2 completed in    21.134 sec
RI-Integral transformation completed in    54.395 sec
Opening buffers                              ... done

Starting loop over batches of integrals:

Operator 0  - window                       ... ( 24- 76)x( 77-827)
Operator 0  - Memory available             ...   256 MB
Operator 0  - Memory needed per MO         ...  12.3 MB
Operator 0  - Number of orbitals per batch ... 13
Operator 0  - Number of batches            ... 5

OPERATOR  0   PASS   0:  MOs    24 ...   36
  Reading integrals       ... ok
  Internal MO  26
  Internal MO  29
  Internal MO  32
  Internal MO  35
OPERATOR  0   PASS   1:  MOs    37 ...   49
  Reading integrals       ... ok
  Internal MO  38
  Internal MO  41
  Internal MO  44
  Internal MO  47
OPERATOR  0   PASS   2:  MOs    50 ...   62
  Reading integrals       ... ok
  Internal MO  50
  Internal MO  53
  Internal MO  56
  Internal MO  59
  Internal MO  62
OPERATOR  0   PASS   3:  MOs    63 ...   75
  Reading integrals       ... ok
  Internal MO  65
  Internal MO  68
  Internal MO  71
  Internal MO  74
OPERATOR  0   PASS   4:  MOs    76 ...   76
  Reading integrals       ... ok
Time spent in pair loops =    94.751 sec
Deleting buffer (Ka|jb)[aa] ...done

-----------------------------------------------
 RI-MP2 CORRELATION ENERGY:     -3.545428102 Eh
-----------------------------------------------


-------
TIMINGS
-------

Total time                :  149.608 sec
Integral trafo            :   54.409 sec ( 36.4%)
I/O of integrals          :    1.675 sec (  1.1%)
K(i,j) Operators          :   57.996 sec ( 38.8%)
T(i,j) pair energies      :    9.277 sec (  6.2%)
V-calculation             :    0.040 sec (  0.0%)
V**(-1/2)                 :    0.325 sec (  0.2%)
Gamma(ia|P)               :    0.000 sec (  0.0%)
Gamma-Trafo               :    0.000 sec (  0.0%)
D(virtual)                :    0.000 sec (  0.0%)
D(internal)               :    0.000 sec (  0.0%)
W(virtual)                :    0.000 sec (  0.0%)
W(internal)               :    0.000 sec (  0.0%)
L(virtual)                :    0.000 sec (  0.0%)
L(internal)               :    0.000 sec (  0.0%)
G(D)                      :    0.000 sec (  0.0%)
G(Z)                      :    0.000 sec (  0.0%)
Z-Vector Solution         :    0.000 sec (  0.0%)
3-Index Derivative        :    0.000 sec (  0.0%)
2-Index Derivative        :    0.000 sec (  0.0%)
Separable Gradient        :    0.000 sec (  0.0%)


---------------------------------------
MP2 TOTAL ENERGY:    -1274.284279492 Eh
---------------------------------------

-------------------------   --------------------
FINAL SINGLE POINT ENERGY     -1274.284279492440
-------------------------   --------------------


                            ***************************************
                            *     ORCA property calculations      *
                            ***************************************


  WARNING: The energy has been calculated at the MP2 level but the densities
           used in the property calculations are still SCF densities
           MP2 response densities have not been calculated 
           use %mp2 Density relaxed end
           or  %mp2 Density unrelaxed end

                                    ---------------------
                                    Active property flags
                                    ---------------------
   (+) Dipole Moment


------------------------------------------------------------------------------
                       ORCA ELECTRIC PROPERTIES CALCULATION
------------------------------------------------------------------------------

Dipole Moment Calculation                       ... on
Quadrupole Moment Calculation                   ... off
Polarizability Calculation                      ... off
GBWName                                         ... G2_CONFS/Conf300.orca.gbw
Electron density file                           ... G2_CONFS/Conf300.orca.scfp
The origin for moment calculation is the CENTER OF MASS  = (32.913641, 31.489047 35.422062)

-------------
DIPOLE MOMENT
-------------
                                X             Y             Z
Electronic contribution:     11.00677       9.66774       9.55056
Nuclear contribution   :    -12.62928     -10.90031     -10.61326
                        -----------------------------------------
Total Dipole Moment    :     -1.62251      -1.23257      -1.06269
                        -----------------------------------------
Magnitude (a.u.)       :      2.29806
Magnitude (Debye)      :      5.84120



--------------------
Rotational spectrum 
--------------------
 
Rotational constants in cm-1:     0.010924     0.009156     0.006278 
Rotational constants in MHz :   327.486619   274.492303   188.202973 

 Dipole components along the rotational axes: 
x,y,z [a.u.] :    -2.168935     0.008875     0.759414 
x,y,z [Debye]:    -5.512995     0.022559     1.930278 

 

Timings for individual modules:

Sum of individual times         ...     5795.521 sec (=  96.592 min)
GTO integral calculation        ...        1.261 sec (=   0.021 min)   0.0 %
SCF iterations                  ...     5644.086 sec (=  94.068 min)  97.4 %
MP2 module                      ...      150.174 sec (=   2.503 min)   2.6 %
                             ****ORCA TERMINATED NORMALLY****
TOTAL RUN TIME: 0 days 1 hours 36 minutes 36 seconds 141 msec
