
                                 *****************
                                 * O   R   C   A *
                                 *****************

           --- An Ab Initio, DFT and Semiempirical electronic structure package ---

                  #######################################################
                  #                        -***-                        #
                  #          Department of theory and spectroscopy      #
                  #               Directorship: Frank Neese             #
                  #        Max Planck Institute fuer Kohlenforschung    #
                  #                Kaiser Wilhelm Platz 1               #
                  #                 D-45470 Muelheim/Ruhr               #
                  #                      Germany                        #
                  #                                                     #
                  #                  All rights reserved                #
                  #                        -***-                        #
                  #######################################################


                         Program Version 4.2.0 -  RELEASE  -


 With contributions from (in alphabetic order):
   Daniel Aravena         : Magnetic Suceptibility
   Michael Atanasov       : Ab Initio Ligand Field Theory (pilot matlab implementation)
   Alexander A. Auer      : GIAO ZORA, VPT2
   Ute Becker             : Parallelization
   Giovanni Bistoni       : ED, misc. LED, open-shell LED, HFLED
   Martin Brehm           : Molecular dynamics
   Dmytro Bykov           : SCF Hessian
   Vijay G. Chilkuri      : MRCI spin determinant printing, contributions to CSF-ICE
   Dipayan Datta          : RHF DLPNO-CCSD density
   Achintya Kumar Dutta   : EOM-CC, STEOM-CC
   Dmitry Ganyushin       : Spin-Orbit,Spin-Spin,Magnetic field MRCI
   Miquel Garcia          : C-PCM Hessian, Gaussian charge scheme
   Yang Guo               : DLPNO-NEVPT2, CIM, IAO-localization
   Andreas Hansen         : Spin unrestricted coupled pair/coupled cluster methods
   Benjamin Helmich-Paris : CASSCF linear response (MC-RPA)
   Lee Huntington         : MR-EOM, pCC
   Robert Izsak           : Overlap fitted RIJCOSX, COSX-SCS-MP3, EOM
   Christian Kollmar      : KDIIS, OOCD, Brueckner-CCSD(T), CCSD density
   Simone Kossmann        : Meta GGA functionals, TD-DFT gradient, OOMP2, MP2 Hessian
   Martin Krupicka        : AUTO-CI
   Lucas Lang             : DCDCAS
   Dagmar Lenk            : GEPOL surface, SMD
   Dimitrios Liakos       : Extrapolation schemes; Compound Job, initial MDCI parallelization
   Dimitrios Manganas     : Further ROCIS development; embedding schemes
   Dimitrios Pantazis     : SARC Basis sets
   Taras Petrenko         : DFT Hessian,TD-DFT gradient, ASA, ECA, R-Raman, ABS, FL, XAS/XES, NRVS
   Peter Pinski           : DLPNO-MP2, DLPNO-MP2 Gradient
   Christoph Reimann      : Effective Core Potentials
   Marius Retegan         : Local ZFS, SOC
   Christoph Riplinger    : Optimizer, TS searches, QM/MM, DLPNO-CCSD(T), (RO)-DLPNO pert. Triples
   Tobias Risthaus        : Range-separated hybrids, TD-DFT gradient, RPA, STAB
   Michael Roemelt        : Original ROCIS implementation
   Masaaki Saitow         : Open-shell DLPNO-CCSD energy and density
   Barbara Sandhoefer     : DKH picture change effects
   Avijit Sen             : IP-ROCIS
   Kantharuban Sivalingam : CASSCF convergence, NEVPT2, FIC-MRCI
   Bernardo de Souza      : ESD, SOC TD-DFT
   Georgi Stoychev        : AutoAux, RI-MP2 NMR
   Willem Van den Heuvel  : Paramagnetic NMR
   Boris Wezisla          : Elementary symmetry handling
   Frank Wennmohs         : Technical directorship


 We gratefully acknowledge several colleagues who have allowed us to
 interface, adapt or use parts of their codes:
   Stefan Grimme, W. Hujo, H. Kruse,             : VdW corrections, initial TS optimization,
                  C. Bannwarth                     DFT functionals, gCP, sTDA/sTD-DF
   Ed Valeev, F. Pavosevic, A. Kumar             : LibInt (2-el integral package), F12 methods
   Garnet Chan, S. Sharma, J. Yang, R. Olivares  : DMRG
   Ulf Ekstrom                                   : XCFun DFT Library
   Mihaly Kallay                                 : mrcc  (arbitrary order and MRCC methods)
   Andreas Klamt, Michael Diedenhofen            : otool_cosmo (COSMO solvation model)
   Jiri Pittner, Ondrej Demel                    : Mk-CCSD
   Frank Weinhold                                : gennbo (NPA and NBO analysis)
   Christopher J. Cramer and Donald G. Truhlar   : smd solvation model
   Lars Goerigk                                  : TD-DFT with DH, B97 family of functionals
   V. Asgeirsson, H. Jonsson                     : NEB implementation
   FAccTs GmbH                                   : IRC, NEB, NEB-TS, Multilevel, MM, QM/MM, CI optimization
   S Lehtola, MJT Oliveira, MAL Marques          : LibXC Library


 Your calculation uses the libint2 library for the computation of 2-el integrals
 For citations please refer to: http://libint.valeyev.net

 Your ORCA version has been built with support for libXC version: 4.2.3
 For citations please refer to: https://tddft.org/programs/libxc/

 This ORCA versions uses:
   CBLAS   interface :  Fast vector & matrix operations
   LAPACKE interface :  Fast linear algebra routines
   SCALAPACK package :  Parallel linear algebra routines


----- Orbital basis set information -----
Your calculation utilizes the basis: cc-pVTZ 
       H, B-Ne : Obtained from the ccRepo (grant-hill.group.shef.ac.uk/ccrepo) Feb. 2017
                 T. H. Dunning, Jr., J. Chem. Phys. 90, 1007 (1989)
            He : Obtained from the ccRepo (grant-hill.group.shef.ac.uk/ccrepo) Feb. 2017
                 D. E. Woon, T. H. Dunning, Jr., J. Chem. Phys. 100, 2975 (1994)
  Li-Be, Na-Mg : Obtained from the ccRepo (grant-hill.group.shef.ac.uk/ccrepo) Feb. 2017
                 B. P. Prascher, D. E. Woon, K. A. Peterson, T. H. Dunning, Jr., A. K. Wilson, Theor. Chem. Acc. 128, 69 (2011)
         Al-Ar : Obtained from the ccRepo (grant-hill.group.shef.ac.uk/ccrepo) Feb. 2017
                 D. E. Woon, T. H. Dunning, Jr., J. Chem. Phys. 98, 1358 (1993)
            Ca : Obtained from the Peterson Research Group Website (tyr0.chem.wsu.edu/~kipeters) Feb. 2017
                 J. Koput, K. A. Peterson, J. Phys. Chem. 106, 9595 (2002)
         Sc-Zn : Obtained from the ccRepo (grant-hill.group.shef.ac.uk/ccrepo) Feb. 2017
                 N. B. Balabanov, K. A. Peterson, J. Chem. Phys. 123, 064107 (2005)
                 N. B. Balabanov, K. A. Peterson, J. Chem. Phys. 125, 074110 (2006)
         Ga-Kr : Obtained from the ccRepo (grant-hill.group.shef.ac.uk/ccrepo) Feb. 2017
                 A. K. Wilson, D. E. Woon, K. A. Peterson, T. H. Dunning, Jr., J. Chem. Phys. 110, 7667 (1999)
             Y : Obtained from the ccRepo (grant-hill.group.shef.ac.uk/ccrepo) Feb. 2017
                 K. A. Peterson, D. Figgen, M. Dolg, H. Stoll, J. Chem. Phys. 126, 124101 (2007)
        Ag, Au : Obtained from the Peterson Research Group Website (tyr0.chem.wsu.edu/~kipeters) Feb. 2017
                 K. A. Peterson, C. Puzzarini, Theor. Chem. Acc. 114, 283 (2005)

----- AuxC basis set information -----
Your calculation utilizes the auxiliary basis: cc-pVTZ/C 
  Obtained from the EMSL Basis Set Exchange (bse.pnl.gov) Feb. 2017
  H-He, B-F, Al-Ar, Ga-Kr : F. Weigend, A. Kohn, C. Hattig, J. Chem. Phys. 116, 3175 (2002)
             Li-Be, Na-Mg : C. Haettig, Phys. Chem. Chem. Phys. 7, 59 (2005)
                       Ne : C. Haettig, Phys. Chem. Chem. Phys. 7, 59 (2005)
                            F. Weigend, A. Kohn, C. Hattig, J. Chem. Phys. 116, 3175 (2002)
                    Sc-Zn : J. G. Hill, J. A. Platts, J. Chem. Phys. 128, 044104 (2008)

================================================================================
                                        WARNINGS
                       Please study these warnings very carefully!
================================================================================


WARNING: No MP2 level density has been requested!
         To caclulate MP2 level properties use
         %mp2 Density relaxed end
         or
         %mp2 Density unrelaxed end

WARNING: Post HF methods need fully converged wavefunctions
  ===> : Setting SCFConvForced true
         You can overwrite this default with %scf ConvForced false 


INFO   : the flag for use of LIBINT has been found!

================================================================================
                                       INPUT FILE
================================================================================
NAME = G2_CONFS/Conf373.orca
|  1> ! ri-mp2 cc-pvtz cc-pvtz/c TightSCF  NoKeepInts
|  2> 
|  3> %scf
|  4>   MaxCore 4096
|  5> end
|  6> *xyz  0  1
|  7>     C       15.6531073   14.7068520   14.0867767
|  8>     C       15.1783596   14.7270769   15.5592423
|  9>     O       15.8491333   15.6816299   16.4145841
| 10>     C       17.0843775   15.4648334   16.9556730
| 11>     O       17.5371301   14.3377417   17.0810301
| 12>     C       17.5633905   16.6073872   17.8078406
| 13>     C       17.2641393   17.9113438   17.5124198
| 14>     C       16.4743269   18.4684467   16.3419396
| 15>     N       18.0754880   18.8815447   18.1300243
| 16>     C       19.1021521   18.6834558   19.0141250
| 17>     S       19.9777821   19.9613171   19.6055822
| 18>     N       19.3434966   17.3848879   19.3912409
| 19>     C       18.6696825   16.2038736   18.7934340
| 20>     C       17.8744467   15.8304546   20.0977156
| 21>     C       17.9210913   14.4547615   20.4741231
| 22>     C       17.1994340   13.9309698   21.5610071
| 23>     C       16.3786846   14.7792665   22.3099633
| 24>     C       16.2797008   16.1299187   21.9468774
| 25>     O       15.4634575   16.9394344   22.6693603
| 26>     C       17.0020294   16.6506072   20.8527997
| 27>     H       15.4063192   15.6726595   13.6241421
| 28>     H       15.0737790   13.9537393   13.5303859
| 29>     H       16.7185596   14.5028130   13.9431689
| 30>     H       14.0984547   14.8713225   15.6271371
| 31>     H       15.4004475   13.7243719   15.9559948
| 32>     H       16.7883859   18.0230581   15.3862101
| 33>     H       16.5866827   19.5556725   16.2305819
| 34>     H       15.4109692   18.2578404   16.4835289
| 35>     H       17.9433995   19.8494108   17.8697301
| 36>     H       20.1157198   17.2756493   20.0347964
| 37>     H       19.1458726   15.2279266   18.6802390
| 38>     H       18.5093700   13.7439962   19.8963351
| 39>     H       17.2703430   12.8709348   21.8131561
| 40>     H       15.8195212   14.3819057   23.1544057
| 41>     H       15.0976007   16.4122660   23.3981963
| 42>     H       16.8701648   17.6926297   20.6002368
| 43> *
| 44> 
| 45>                          ****END OF INPUT****
================================================================================

                       ****************************
                       * Single Point Calculation *
                       ****************************

---------------------------------
CARTESIAN COORDINATES (ANGSTROEM)
---------------------------------
  C     15.653107   14.706852   14.086777
  C     15.178360   14.727077   15.559242
  O     15.849133   15.681630   16.414584
  C     17.084377   15.464833   16.955673
  O     17.537130   14.337742   17.081030
  C     17.563391   16.607387   17.807841
  C     17.264139   17.911344   17.512420
  C     16.474327   18.468447   16.341940
  N     18.075488   18.881545   18.130024
  C     19.102152   18.683456   19.014125
  S     19.977782   19.961317   19.605582
  N     19.343497   17.384888   19.391241
  C     18.669683   16.203874   18.793434
  C     17.874447   15.830455   20.097716
  C     17.921091   14.454761   20.474123
  C     17.199434   13.930970   21.561007
  C     16.378685   14.779266   22.309963
  C     16.279701   16.129919   21.946877
  O     15.463457   16.939434   22.669360
  C     17.002029   16.650607   20.852800
  H     15.406319   15.672659   13.624142
  H     15.073779   13.953739   13.530386
  H     16.718560   14.502813   13.943169
  H     14.098455   14.871322   15.627137
  H     15.400448   13.724372   15.955995
  H     16.788386   18.023058   15.386210
  H     16.586683   19.555673   16.230582
  H     15.410969   18.257840   16.483529
  H     17.943400   19.849411   17.869730
  H     20.115720   17.275649   20.034796
  H     19.145873   15.227927   18.680239
  H     18.509370   13.743996   19.896335
  H     17.270343   12.870935   21.813156
  H     15.819521   14.381906   23.154406
  H     15.097601   16.412266   23.398196
  H     16.870165   17.692630   20.600237

----------------------------
CARTESIAN COORDINATES (A.U.)
----------------------------
  NO LB      ZA    FRAG     MASS         X           Y           Z
   0 C     6.0000    0    12.011   29.580086   27.791923   26.620150
   1 C     6.0000    0    12.011   28.682943   27.830142   29.402707
   2 O     8.0000    0    15.999   29.950521   29.633986   31.019069
   3 C     6.0000    0    12.011   32.284795   29.224300   32.041578
   4 O     8.0000    0    15.999   33.140373   27.094405   32.278469
   5 C     6.0000    0    12.011   33.189998   31.383414   33.651942
   6 C     6.0000    0    12.011   32.624495   33.847534   33.093677
   7 C     6.0000    0    12.011   31.131966   34.900306   30.881790
   8 N     7.0000    0    14.007   34.157722   35.680948   34.260781
   9 C     6.0000    0    12.011   36.097836   35.306615   35.931489
  10 S    16.0000    0    32.060   37.752537   37.721423   37.049181
  11 N     7.0000    0    14.007   36.553911   32.852677   36.644135
  12 C     6.0000    0    12.011   35.280587   30.620883   35.514443
  13 C     6.0000    0    12.011   33.777809   29.915224   37.979178
  14 C     6.0000    0    12.011   33.865955   27.315541   38.690485
  15 C     6.0000    0    12.011   32.502220   26.325718   40.744399
  16 C     6.0000    0    12.011   30.951228   27.928766   42.159721
  17 C     6.0000    0    12.011   30.764176   30.481129   41.473588
  18 O     8.0000    0    15.999   29.221700   32.010892   42.838883
  19 C     6.0000    0    12.011   32.129179   31.465088   39.406081
  20 H     1.0000    0     1.008   29.113724   29.617034   25.745897
  21 H     1.0000    0     1.008   28.485314   26.368746   25.568724
  22 H     1.0000    0     1.008   31.593499   27.406345   26.348771
  23 H     1.0000    0     1.008   26.642218   28.102727   29.531009
  24 H     1.0000    0     1.008   29.102628   25.935304   30.152460
  25 H     1.0000    0     1.008   31.725452   34.058644   29.075723
  26 H     1.0000    0     1.008   31.344288   36.954865   30.671355
  27 H     1.0000    0     1.008   29.122511   34.502318   31.149355
  28 H     1.0000    0     1.008   33.908111   37.509950   33.768896
  29 H     1.0000    0     1.008   38.013201   32.646246   37.860278
  30 H     1.0000    0     1.008   36.180456   28.776611   35.300536
  31 H     1.0000    0     1.008   34.977640   25.972389   37.598624
  32 H     1.0000    0     1.008   32.636219   24.322542   41.220891
  33 H     1.0000    0     1.008   29.894563   27.177863   43.755486
  34 H     1.0000    0     1.008   28.530331   31.014688   44.216183
  35 H     1.0000    0     1.008   31.879991   33.434225   38.928806

--------------------------------
INTERNAL COORDINATES (ANGSTROEM)
--------------------------------
 C      0   0   0     0.000000000000     0.00000000     0.00000000
 C      1   0   0     1.547239273163     0.00000000     0.00000000
 O      2   1   0     1.446623095781   115.40695185     0.00000000
 C      3   2   1     1.365871939001   123.28703596   280.53336302
 O      4   3   2     1.221079448495   121.49983290   338.50955535
 C      4   3   2     1.503686223437   113.07865115   180.00000191
 C      6   4   3     1.370083042906   122.09912188   325.50562358
 C      7   6   4     1.517956246726   128.99150879   358.59997959
 N      7   6   4     1.407484215817   115.81857718   198.14488769
 C      9   7   6     1.369274418907   128.01126426   358.16097838
 S     10   9   7     1.658155305865   120.98166512   178.20437865
 N     10   9   7     1.373587332725   116.47287958   357.18756940
 C     12  10   9     1.485325993798   124.15881999     6.95092582
 C     13  12  10     1.572575028182    94.84165506   247.46847773
 C     14  13  12     1.427021313840   115.54098791   227.34881403
 C     15  14  13     1.405867644228   123.11483313   184.18752731
 C     16  15  14     1.397917114263   119.30738309     0.84198228
 C     17  16  15     1.402102182013   119.16127160     0.91781484
 O     18  17  16     1.357774036478   118.61857473   178.99982659
 C     18  17  16     1.410631466418   121.35031979   359.27830417
 H      1   2   3     1.098962813964   108.67727282   295.19368622
 H      1   2   3     1.101077081955   109.17137632   180.38909735
 H      1   2   3     1.094277714896   115.21923628    57.95008352
 H      2   1   3     1.091609403601   111.37459018   125.72237323
 H      2   1   3     1.100978155373   105.61363527   241.89506929
 H      8   7   6     1.100192227595   111.88452995   313.32454011
 H      8   7   6     1.098673883975   112.83816010   193.29015470
 H      8   7   6     1.093220993955   109.60466322    73.33758933
 H      9   7   6     1.010922959436   118.14167569   174.30271473
 H     12  10   9     1.011150544641   114.27134326   179.23780933
 H     13  12  10     1.091807064537   123.68416866   147.67060581
 H     15  14  13     1.088622116945   120.46991173     2.25327701
 H     16  15  14     1.091916391354   120.45691781   180.24804107
 H     17  16  15     1.087953252761   119.73366439   180.19006790
 H     19  18  17     0.971061087142   107.58994750     3.21040674
 H     20  18  17     1.080271809174   118.35110106   178.45789355

---------------------------
INTERNAL COORDINATES (A.U.)
---------------------------
 C      0   0   0     0.000000000000     0.00000000     0.00000000
 C      1   0   0     2.923858489926     0.00000000     0.00000000
 O      2   1   0     2.733721470032   115.40695185     0.00000000
 C      3   2   1     2.581123898719   123.28703596   280.53336302
 O      4   3   2     2.307505745415   121.49983290   338.50955535
 C      4   3   2     2.841555153646   113.07865115   180.00000191
 C      6   4   3     2.589081731821   122.09912188   325.50562358
 C      7   6   4     2.868521589587   128.99150879   358.59997959
 N      7   6   4     2.659759705710   115.81857718   198.14488769
 C      9   7   6     2.587553653918   128.01126426   358.16097838
 S     10   9   7     3.133459415594   120.98166512   178.20437865
 N     10   9   7     2.595703879874   116.47287958   357.18756940
 C     12  10   9     2.806859347872   124.15881999     6.95092582
 C     13  12  10     2.971736128307    94.84165506   247.46847773
 C     14  13  12     2.696679470426   115.54098791   227.34881403
 C     15  14  13     2.656704828133   123.11483313   184.18752731
 C     16  15  14     2.641680503879   119.30738309     0.84198228
 C     17  16  15     2.649589135778   119.16127160     0.91781484
 O     18  17  16     2.565821080692   118.61857473   178.99982659
 C     18  17  16     2.665707147421   121.35031979   359.27830417
 H      1   2   3     2.076738749755   108.67727282   295.19368622
 H      1   2   3     2.080734137232   109.17137632   180.38909735
 H      1   2   3     2.067885195606   115.21923628    57.95008352
 H      2   1   3     2.062842818019   111.37459018   125.72237323
 H      2   1   3     2.080547193084   105.61363527   241.89506929
 H      8   7   6     2.079062004824   111.88452995   313.32454011
 H      8   7   6     2.076192751204   112.83816010   193.29015470
 H      8   7   6     2.065888282428   109.60466322    73.33758933
 H      9   7   6     1.910367535827   118.14167569   174.30271473
 H     12  10   9     1.910797609537   114.27134326   179.23780933
 H     13  12  10     2.063216343055   123.68416866   147.67060581
 H     15  14  13     2.057197664356   120.46991173     2.25327701
 H     16  15  14     2.063422940798   120.45691781   180.24804107
 H     17  16  15     2.055933694228   119.73366439   180.19006790
 H     19  18  17     1.835039514006   107.58994750     3.21040674
 H     20  18  17     2.041417869534   118.35110106   178.45789355

---------------------
BASIS SET INFORMATION
---------------------
There are 5 groups of distinct atoms

 Group   1 Type C   : 18s5p2d1f contracted to 4s3p2d1f pattern {8811/311/11/1}
 Group   2 Type O   : 18s5p2d1f contracted to 4s3p2d1f pattern {8811/311/11/1}
 Group   3 Type N   : 18s5p2d1f contracted to 4s3p2d1f pattern {8811/311/11/1}
 Group   4 Type S   : 41s16p2d1f contracted to 5s4p2d1f pattern {13131311/7711/11/1}
 Group   5 Type H   : 5s2p1d contracted to 3s2p1d pattern {311/11/1}

Atom   0C    basis set group =>   1
Atom   1C    basis set group =>   1
Atom   2O    basis set group =>   2
Atom   3C    basis set group =>   1
Atom   4O    basis set group =>   2
Atom   5C    basis set group =>   1
Atom   6C    basis set group =>   1
Atom   7C    basis set group =>   1
Atom   8N    basis set group =>   3
Atom   9C    basis set group =>   1
Atom  10S    basis set group =>   4
Atom  11N    basis set group =>   3
Atom  12C    basis set group =>   1
Atom  13C    basis set group =>   1
Atom  14C    basis set group =>   1
Atom  15C    basis set group =>   1
Atom  16C    basis set group =>   1
Atom  17C    basis set group =>   1
Atom  18O    basis set group =>   2
Atom  19C    basis set group =>   1
Atom  20H    basis set group =>   5
Atom  21H    basis set group =>   5
Atom  22H    basis set group =>   5
Atom  23H    basis set group =>   5
Atom  24H    basis set group =>   5
Atom  25H    basis set group =>   5
Atom  26H    basis set group =>   5
Atom  27H    basis set group =>   5
Atom  28H    basis set group =>   5
Atom  29H    basis set group =>   5
Atom  30H    basis set group =>   5
Atom  31H    basis set group =>   5
Atom  32H    basis set group =>   5
Atom  33H    basis set group =>   5
Atom  34H    basis set group =>   5
Atom  35H    basis set group =>   5
---------------------------------
AUXILIARY/C BASIS SET INFORMATION
---------------------------------
There are 5 groups of distinct atoms

 Group   1 Type C   : 8s6p5d3f1g contracted to 8s6p5d3f1g pattern {11111111/111111/11111/111/1}
 Group   2 Type O   : 8s6p5d3f1g contracted to 8s6p5d3f1g pattern {11111111/111111/11111/111/1}
 Group   3 Type N   : 8s6p5d3f1g contracted to 8s6p5d3f1g pattern {11111111/111111/11111/111/1}
 Group   4 Type S   : 10s8p7d5f2g contracted to 10s8p7d5f2g pattern {1111111111/11111111/1111111/11111/11}
 Group   5 Type H   : 4s3p2d1f contracted to 4s3p2d1f pattern {1111/111/11/1}

Atom   0C    basis set group =>   1
Atom   1C    basis set group =>   1
Atom   2O    basis set group =>   2
Atom   3C    basis set group =>   1
Atom   4O    basis set group =>   2
Atom   5C    basis set group =>   1
Atom   6C    basis set group =>   1
Atom   7C    basis set group =>   1
Atom   8N    basis set group =>   3
Atom   9C    basis set group =>   1
Atom  10S    basis set group =>   4
Atom  11N    basis set group =>   3
Atom  12C    basis set group =>   1
Atom  13C    basis set group =>   1
Atom  14C    basis set group =>   1
Atom  15C    basis set group =>   1
Atom  16C    basis set group =>   1
Atom  17C    basis set group =>   1
Atom  18O    basis set group =>   2
Atom  19C    basis set group =>   1
Atom  20H    basis set group =>   5
Atom  21H    basis set group =>   5
Atom  22H    basis set group =>   5
Atom  23H    basis set group =>   5
Atom  24H    basis set group =>   5
Atom  25H    basis set group =>   5
Atom  26H    basis set group =>   5
Atom  27H    basis set group =>   5
Atom  28H    basis set group =>   5
Atom  29H    basis set group =>   5
Atom  30H    basis set group =>   5
Atom  31H    basis set group =>   5
Atom  32H    basis set group =>   5
Atom  33H    basis set group =>   5
Atom  34H    basis set group =>   5
Atom  35H    basis set group =>   5
------------------------------------------------------------------------------
                           ORCA GTO INTEGRAL CALCULATION
------------------------------------------------------------------------------

                         BASIS SET STATISTICS AND STARTUP INFO

 # of primitive gaussian shells          ...  682
 # of primitive gaussian functions       ... 1312
 # of contracted shells                  ...  298
 # of contracted basis functions         ...  828
 Highest angular momentum                ...    3
 Maximum contraction depth               ...   13
 Integral package used                   ... LIBINT
 Integral threshhold            Thresh   ...  2.500e-11
 Primitive cut-off              TCut     ...  2.500e-12


------------------------------ INTEGRAL EVALUATION ----------------------------


 * One electron integrals 
 Pre-screening matrix                    ... done
 Shell pair data                         ... done (   0.013 sec)

-------------------------------------------------------------------------------
                                 ORCA SCF
-------------------------------------------------------------------------------

------------
SCF SETTINGS
------------
Hamiltonian:
 Ab initio Hamiltonian  Method          .... Hartree-Fock(GTOs)


General Settings:
 Integral files         IntName         .... G2_CONFS/Conf373.orca
 Hartree-Fock type      HFTyp           .... RHF
 Total Charge           Charge          ....    0
 Multiplicity           Mult            ....    1
 Number of Electrons    NEL             ....  154
 Basis Dimension        Dim             ....  828
 Nuclear Repulsion      ENuc            ....   1683.7988182656 Eh

Convergence Acceleration:
 DIIS                   CNVDIIS         .... on
   Start iteration      DIISMaxIt       ....    12
   Startup error        DIISStart       ....  0.200000
   # of expansion vecs  DIISMaxEq       ....     5
   Bias factor          DIISBfac        ....   1.050
   Max. coefficient     DIISMaxC        ....  10.000
 Newton-Raphson         CNVNR           .... off
 SOSCF                  CNVSOSCF        .... on
   Start iteration      SOSCFMaxIt      ....   150
   Startup grad/error   SOSCFStart      ....  0.003300
 Level Shifting         CNVShift        .... on
   Level shift para.    LevelShift      ....    0.2500
   Turn off err/grad.   ShiftErr        ....    0.0010
 Zerner damping         CNVZerner       .... off
 Static damping         CNVDamp         .... on
   Fraction old density DampFac         ....    0.7000
   Max. Damping (<1)    DampMax         ....    0.9800
   Min. Damping (>=0)   DampMin         ....    0.0000
   Turn off err/grad.   DampErr         ....    0.1000
 Fernandez-Rico         CNVRico         .... off

SCF Procedure:
 Maximum # iterations   MaxIter         ....   125
 SCF integral mode      SCFMode         .... Direct
   Integral package                     .... LIBINT
 Reset frequency        DirectResetFreq ....    20
 Integral Threshold     Thresh          ....  2.500e-11 Eh
 Primitive CutOff       TCut            ....  2.500e-12 Eh

Convergence Tolerance:
 Convergence Check Mode ConvCheckMode   .... Total+1el-Energy
 Convergence forced     ConvForced      .... 1
 Energy Change          TolE            ....  1.000e-08 Eh
 1-El. energy change                    ....  1.000e-05 Eh
 Orbital Gradient       TolG            ....  1.000e-05
 Orbital Rotation angle TolX            ....  1.000e-05
 DIIS Error             TolErr          ....  5.000e-07


Diagonalization of the overlap matrix:
Smallest eigenvalue                        ... 3.467e-05
Time for diagonalization                   ...    0.117 sec
Threshold for overlap eigenvalues          ... 1.000e-08
Number of eigenvalues below threshold      ... 0
Time for construction of square roots      ...    0.065 sec
Total time needed                          ...    0.186 sec

-------------------
DFT GRID GENERATION
-------------------

General Integration Accuracy     IntAcc      ...  4.340
Radial Grid Type                 RadialGrid  ... Gauss-Chebyshev
Angular Grid (max. acc.)         AngularGrid ... Lebedev-110
Angular grid pruning method      GridPruning ... 3 (G Style)
Weight generation scheme         WeightScheme... Becke
Basis function cutoff            BFCut       ...    1.0000e-11
Integration weight cutoff        WCut        ...    1.0000e-14
Grids for H and He will be reduced by one unit

# of grid points (after initial pruning)     ...  46246 (   0.0 sec)
# of grid points (after weights+screening)   ...  41402 (   0.3 sec)
nearest neighbour list constructed           ...    0.0 sec
Grid point re-assignment to atoms done       ...    0.0 sec
Grid point division into batches done        ...    0.0 sec
Reduced shell lists constructed in    0.9 sec

Total number of grid points                  ...    41402
Total number of batches                      ...      664
Average number of points per batch           ...       62
Average number of grid points per atom       ...     1150
Average number of shells per batch           ...   143.58 (48.18%)
Average number of basis functions per batch  ...   365.19 (44.11%)
Average number of large shells per batch     ...    91.98 (64.07%)
Average number of large basis fcns per batch ...   237.91 (65.15%)
Maximum spatial batch extension              ...  22.19, 20.46, 20.74 au
Average spatial batch extension              ...   3.63,  3.30,  3.45 au

Time for grid setup =    1.251 sec

------------------------------
INITIAL GUESS: MODEL POTENTIAL
------------------------------
Loading Hartree-Fock densities                     ... done
Calculating cut-offs                               ... done
Setting up the integral package                    ... done
Initializing the effective Hamiltonian             ... done
Starting the Coulomb interaction                   ... done (   3.0 sec)
Reading the grid                                   ... done
Mapping shells                                     ... done
Starting the XC term evaluation                    ... done (   1.4 sec)
Transforming the Hamiltonian                       ... done (   0.1 sec)
Diagonalizing the Hamiltonian                      ... done (   0.1 sec)
Back transforming the eigenvectors                 ... done (   0.0 sec)
Now organizing SCF variables                       ... done
                      ------------------
                      INITIAL GUESS DONE (   6.7 sec)
                      ------------------
--------------
SCF ITERATIONS
--------------
ITER       Energy         Delta-E        Max-DP      RMS-DP      [F,P]     Damp
               ***  Starting incremental Fock matrix formation  ***
  0  -1269.9519027927   0.000000000000 0.04936666  0.00043587  0.3179633 0.7000
  1  -1270.2201725839  -0.268269791199 0.03611505  0.00035147  0.1865362 0.7000
                               ***Turning on DIIS***
  2  -1270.3870696187  -0.166897034803 0.02585999  0.00023503  0.1098099 0.7000
  3  -1272.5059941913  -2.118924572655 0.06317600  0.00050581  0.0830434 0.0000
  4  -1270.6986583892   1.807335802092 0.00719957  0.00009724  0.0071267 0.0000
  5  -1270.7606932541  -0.062034864880 0.00400919  0.00005105  0.0037113 0.0000
                      *** Initiating the SOSCF procedure ***
                           *** Shutting down DIIS ***
                      *** Re-Reading the Fockian *** 
                      *** Removing any level shift *** 
ITER      Energy       Delta-E        Grad      Rot      Max-DP    RMS-DP
  6  -1270.73525913   0.0254341216  0.001763  0.001763  0.001786  0.000026
               *** Restarting incremental Fock matrix formation ***
  7  -1270.74973850  -0.0144793678  0.000888  0.002185  0.001247  0.000017
  8  -1270.74979190  -0.0000534022  0.000390  0.002529  0.001411  0.000018
  9  -1270.74981257  -0.0000206707  0.000148  0.000425  0.000356  0.000005
 10  -1270.74981526  -0.0000026856  0.000054  0.000150  0.000145  0.000002
 11  -1270.74981554  -0.0000002790  0.000025  0.000152  0.000102  0.000001
 12  -1270.74981562  -0.0000000798  0.000009  0.000033  0.000029  0.000000
 13  -1270.74981562  -0.0000000030  0.000003  0.000008  0.000006  0.000000
                  ***Gradient check signals convergence***
              ***Rediagonalizing the Fockian in SOSCF/NRSCF***

               *****************************************************
               *                     SUCCESS                       *
               *           SCF CONVERGED AFTER  14 CYCLES          *
               *****************************************************


----------------
TOTAL SCF ENERGY
----------------

Total Energy       :        -1270.74981561 Eh          -34578.86044 eV

Components:
Nuclear Repulsion  :         1683.79881827 Eh           45818.49521 eV
Electronic Energy  :        -2954.54863388 Eh          -80397.35565 eV
One Electron Energy:        -5089.05188494 Eh         -138480.14198 eV
Two Electron Energy:         2134.50325107 Eh           58082.78633 eV

Virial components:
Potential Energy   :        -2539.47809529 Eh          -69102.71209 eV
Kinetic Energy     :         1268.72827968 Eh           34523.85165 eV
Virial Ratio       :            2.00159336


---------------
SCF CONVERGENCE
---------------

  Last Energy change         ...    8.4920e-09  Tolerance :   1.0000e-08
  Last MAX-Density change    ...    2.4845e-06  Tolerance :   1.0000e-07
  Last RMS-Density change    ...    3.5556e-08  Tolerance :   5.0000e-09
  Last Orbital Gradient      ...    1.1163e-06  Tolerance :   1.0000e-05
  Last Orbital Rotation      ...    3.9828e-06  Tolerance :   1.0000e-05

             **** THE GBW FILE WAS UPDATED (G2_CONFS/Conf373.orca.gbw) ****
             **** DENSITY FILE WAS UPDATED (G2_CONFS/Conf373.orca.scfp) ****
             **** ENERGY FILE WAS UPDATED (G2_CONFS/Conf373.orca.en.tmp) ****
             **** THE GBW FILE WAS UPDATED (G2_CONFS/Conf373.orca.gbw) ****
             **** DENSITY FILE WAS UPDATED (G2_CONFS/Conf373.orca.scfp) ****
----------------
ORBITAL ENERGIES
----------------

  NO   OCC          E(Eh)            E(eV) 
   0   2.0000     -91.889010     -2500.4271 
   1   2.0000     -20.602533      -560.6234 
   2   2.0000     -20.587477      -560.2137 
   3   2.0000     -20.546151      -559.0892 
   4   2.0000     -15.627329      -425.2412 
   5   2.0000     -15.609918      -424.7675 
   6   2.0000     -11.396458      -310.1134 
   7   2.0000     -11.384339      -309.7836 
   8   2.0000     -11.341658      -308.6222 
   9   2.0000     -11.315001      -307.8968 
  10   2.0000     -11.306112      -307.6550 
  11   2.0000     -11.302566      -307.5585 
  12   2.0000     -11.267842      -306.6136 
  13   2.0000     -11.265612      -306.5529 
  14   2.0000     -11.253939      -306.2353 
  15   2.0000     -11.242890      -305.9346 
  16   2.0000     -11.237851      -305.7975 
  17   2.0000     -11.231424      -305.6226 
  18   2.0000     -11.231267      -305.6183 
  19   2.0000     -11.224988      -305.4474 
  20   2.0000      -8.893877      -242.0147 
  21   2.0000      -6.575440      -178.9268 
  22   2.0000      -6.573431      -178.8721 
  23   2.0000      -6.572859      -178.8566 
  24   2.0000      -1.451414       -39.4950 
  25   2.0000      -1.406587       -38.2752 
  26   2.0000      -1.355383       -36.8818 
  27   2.0000      -1.337837       -36.4044 
  28   2.0000      -1.238079       -33.6898 
  29   2.0000      -1.146060       -31.1859 
  30   2.0000      -1.117540       -30.4098 
  31   2.0000      -1.042733       -28.3742 
  32   2.0000      -1.036060       -28.1926 
  33   2.0000      -1.004723       -27.3399 
  34   2.0000      -0.995437       -27.0872 
  35   2.0000      -0.980907       -26.6918 
  36   2.0000      -0.923453       -25.1284 
  37   2.0000      -0.898170       -24.4405 
  38   2.0000      -0.850392       -23.1403 
  39   2.0000      -0.828775       -22.5521 
  40   2.0000      -0.822356       -22.3774 
  41   2.0000      -0.812632       -22.1128 
  42   2.0000      -0.752386       -20.4735 
  43   2.0000      -0.732791       -19.9402 
  44   2.0000      -0.716086       -19.4857 
  45   2.0000      -0.691537       -18.8177 
  46   2.0000      -0.684634       -18.6298 
  47   2.0000      -0.678262       -18.4564 
  48   2.0000      -0.672718       -18.3056 
  49   2.0000      -0.660010       -17.9598 
  50   2.0000      -0.645814       -17.5735 
  51   2.0000      -0.642103       -17.4725 
  52   2.0000      -0.629640       -17.1334 
  53   2.0000      -0.615871       -16.7587 
  54   2.0000      -0.598233       -16.2788 
  55   2.0000      -0.595558       -16.2060 
  56   2.0000      -0.589821       -16.0499 
  57   2.0000      -0.584161       -15.8958 
  58   2.0000      -0.570466       -15.5232 
  59   2.0000      -0.565779       -15.3956 
  60   2.0000      -0.554528       -15.0895 
  61   2.0000      -0.550067       -14.9681 
  62   2.0000      -0.540488       -14.7074 
  63   2.0000      -0.539009       -14.6672 
  64   2.0000      -0.512106       -13.9351 
  65   2.0000      -0.507468       -13.8089 
  66   2.0000      -0.493627       -13.4323 
  67   2.0000      -0.492799       -13.4097 
  68   2.0000      -0.480683       -13.0801 
  69   2.0000      -0.460611       -12.5339 
  70   2.0000      -0.454308       -12.3623 
  71   2.0000      -0.451627       -12.2894 
  72   2.0000      -0.345175        -9.3927 
  73   2.0000      -0.341100        -9.2818 
  74   2.0000      -0.326211        -8.8767 
  75   2.0000      -0.311892        -8.4870 
  76   2.0000      -0.306604        -8.3431 
  77   0.0000       0.065973         1.7952 
  78   0.0000       0.117146         3.1877 
  79   0.0000       0.119426         3.2497 
  80   0.0000       0.137019         3.7285 
  81   0.0000       0.139689         3.8011 
  82   0.0000       0.145003         3.9457 
  83   0.0000       0.155308         4.2262 
  84   0.0000       0.162444         4.4203 
  85   0.0000       0.165673         4.5082 
  86   0.0000       0.166939         4.5427 
  87   0.0000       0.174588         4.7508 
  88   0.0000       0.189362         5.1528 
  89   0.0000       0.196134         5.3371 
  90   0.0000       0.206154         5.6097 
  91   0.0000       0.209934         5.7126 
  92   0.0000       0.216141         5.8815 
  93   0.0000       0.217060         5.9065 
  94   0.0000       0.221805         6.0356 
  95   0.0000       0.226832         6.1724 
  96   0.0000       0.232889         6.3372 
  97   0.0000       0.245861         6.6902 
  98   0.0000       0.251004         6.8302 
  99   0.0000       0.267448         7.2776 
 100   0.0000       0.286165         7.7869 
 101   0.0000       0.299046         8.1375 
 102   0.0000       0.311955         8.4887 
 103   0.0000       0.321225         8.7410 
 104   0.0000       0.323331         8.7983 
 105   0.0000       0.328301         8.9335 
 106   0.0000       0.339922         9.2497 
 107   0.0000       0.354755         9.6534 
 108   0.0000       0.362526         9.8648 
 109   0.0000       0.363971         9.9042 
 110   0.0000       0.372527        10.1370 
 111   0.0000       0.377490        10.2720 
 112   0.0000       0.383977        10.4485 
 113   0.0000       0.387300        10.5390 
 114   0.0000       0.401201        10.9172 
 115   0.0000       0.401701        10.9308 
 116   0.0000       0.416398        11.3308 
 117   0.0000       0.422048        11.4845 
 118   0.0000       0.430265        11.7081 
 119   0.0000       0.432965        11.7816 
 120   0.0000       0.435645        11.8545 
 121   0.0000       0.447973        12.1900 
 122   0.0000       0.453424        12.3383 
 123   0.0000       0.460023        12.5179 
 124   0.0000       0.462100        12.5744 
 125   0.0000       0.470645        12.8069 
 126   0.0000       0.475528        12.9398 
 127   0.0000       0.479864        13.0578 
 128   0.0000       0.489852        13.3296 
 129   0.0000       0.499815        13.6006 
 130   0.0000       0.501016        13.6333 
 131   0.0000       0.506848        13.7920 
 132   0.0000       0.510922        13.9029 
 133   0.0000       0.511796        13.9267 
 134   0.0000       0.521845        14.2001 
 135   0.0000       0.530377        14.4323 
 136   0.0000       0.533330        14.5126 
 137   0.0000       0.537717        14.6320 
 138   0.0000       0.544718        14.8225 
 139   0.0000       0.548770        14.9328 
 140   0.0000       0.551108        14.9964 
 141   0.0000       0.558715        15.2034 
 142   0.0000       0.563992        15.3470 
 143   0.0000       0.570229        15.5167 
 144   0.0000       0.572369        15.5750 
 145   0.0000       0.579750        15.7758 
 146   0.0000       0.584545        15.9063 
 147   0.0000       0.586513        15.9598 
 148   0.0000       0.594512        16.1775 
 149   0.0000       0.599495        16.3131 
 150   0.0000       0.602892        16.4055 
 151   0.0000       0.606075        16.4921 
 152   0.0000       0.610205        16.6045 
 153   0.0000       0.611662        16.6442 
 154   0.0000       0.614166        16.7123 
 155   0.0000       0.627362        17.0714 
 156   0.0000       0.632649        17.2153 
 157   0.0000       0.633474        17.2377 
 158   0.0000       0.635909        17.3040 
 159   0.0000       0.638674        17.3792 
 160   0.0000       0.642175        17.4745 
 161   0.0000       0.646820        17.6009 
 162   0.0000       0.651196        17.7199 
 163   0.0000       0.658284        17.9128 
 164   0.0000       0.662660        18.0319 
 165   0.0000       0.666623        18.1397 
 166   0.0000       0.679274        18.4840 
 167   0.0000       0.681617        18.5477 
 168   0.0000       0.686037        18.6680 
 169   0.0000       0.686866        18.6906 
 170   0.0000       0.694116        18.8879 
 171   0.0000       0.704500        19.1704 
 172   0.0000       0.710549        19.3350 
 173   0.0000       0.719123        19.5683 
 174   0.0000       0.725295        19.7363 
 175   0.0000       0.733867        19.9695 
 176   0.0000       0.738160        20.0863 
 177   0.0000       0.740281        20.1441 
 178   0.0000       0.747628        20.3440 
 179   0.0000       0.756321        20.5805 
 180   0.0000       0.761796        20.7295 
 181   0.0000       0.764195        20.7948 
 182   0.0000       0.772697        21.0261 
 183   0.0000       0.792515        21.5654 
 184   0.0000       0.798751        21.7351 
 185   0.0000       0.802205        21.8291 
 186   0.0000       0.806834        21.9551 
 187   0.0000       0.817260        22.2388 
 188   0.0000       0.829597        22.5745 
 189   0.0000       0.836320        22.7574 
 190   0.0000       0.843006        22.9394 
 191   0.0000       0.851348        23.1663 
 192   0.0000       0.862171        23.4609 
 193   0.0000       0.868811        23.6415 
 194   0.0000       0.874197        23.7881 
 195   0.0000       0.883570        24.0432 
 196   0.0000       0.884656        24.0727 
 197   0.0000       0.892028        24.2733 
 198   0.0000       0.896849        24.4045 
 199   0.0000       0.903363        24.5818 
 200   0.0000       0.910440        24.7743 
 201   0.0000       0.913966        24.8703 
 202   0.0000       0.923896        25.1405 
 203   0.0000       0.928001        25.2522 
 204   0.0000       0.938872        25.5480 
 205   0.0000       0.945182        25.7197 
 206   0.0000       0.949363        25.8335 
 207   0.0000       0.958793        26.0901 
 208   0.0000       0.967576        26.3291 
 209   0.0000       0.968257        26.3476 
 210   0.0000       0.981342        26.7037 
 211   0.0000       0.987026        26.8583 
 212   0.0000       0.994008        27.0483 
 213   0.0000       1.004113        27.3233 
 214   0.0000       1.009232        27.4626 
 215   0.0000       1.013553        27.5802 
 216   0.0000       1.020381        27.7660 
 217   0.0000       1.029508        28.0143 
 218   0.0000       1.032577        28.0978 
 219   0.0000       1.044543        28.4235 
 220   0.0000       1.046240        28.4696 
 221   0.0000       1.049103        28.5475 
 222   0.0000       1.067235        29.0409 
 223   0.0000       1.075327        29.2611 
 224   0.0000       1.076986        29.3063 
 225   0.0000       1.088045        29.6072 
 226   0.0000       1.104543        30.0562 
 227   0.0000       1.104739        30.0615 
 228   0.0000       1.114137        30.3172 
 229   0.0000       1.118399        30.4332 
 230   0.0000       1.123400        30.5693 
 231   0.0000       1.133449        30.8427 
 232   0.0000       1.136662        30.9302 
 233   0.0000       1.140824        31.0434 
 234   0.0000       1.149255        31.2728 
 235   0.0000       1.156728        31.4762 
 236   0.0000       1.162960        31.6458 
 237   0.0000       1.172400        31.9026 
 238   0.0000       1.178405        32.0660 
 239   0.0000       1.181269        32.1440 
 240   0.0000       1.195891        32.5419 
 241   0.0000       1.200571        32.6692 
 242   0.0000       1.205389        32.8003 
 243   0.0000       1.213986        33.0342 
 244   0.0000       1.225668        33.3521 
 245   0.0000       1.228577        33.4313 
 246   0.0000       1.231237        33.5037 
 247   0.0000       1.236168        33.6378 
 248   0.0000       1.242250        33.8033 
 249   0.0000       1.252640        34.0861 
 250   0.0000       1.257458        34.2172 
 251   0.0000       1.267991        34.5038 
 252   0.0000       1.269998        34.5584 
 253   0.0000       1.284466        34.9521 
 254   0.0000       1.288416        35.0596 
 255   0.0000       1.296023        35.2666 
 256   0.0000       1.302525        35.4435 
 257   0.0000       1.314345        35.7651 
 258   0.0000       1.318175        35.8694 
 259   0.0000       1.327816        36.1317 
 260   0.0000       1.334435        36.3118 
 261   0.0000       1.345474        36.6122 
 262   0.0000       1.353961        36.8431 
 263   0.0000       1.356351        36.9082 
 264   0.0000       1.362790        37.0834 
 265   0.0000       1.368020        37.2257 
 266   0.0000       1.384732        37.6805 
 267   0.0000       1.395737        37.9799 
 268   0.0000       1.401067        38.1250 
 269   0.0000       1.406734        38.2792 
 270   0.0000       1.412407        38.4335 
 271   0.0000       1.420714        38.6596 
 272   0.0000       1.431021        38.9401 
 273   0.0000       1.437881        39.1267 
 274   0.0000       1.444797        39.3149 
 275   0.0000       1.457610        39.6636 
 276   0.0000       1.462807        39.8050 
 277   0.0000       1.465124        39.8680 
 278   0.0000       1.480815        40.2950 
 279   0.0000       1.486093        40.4386 
 280   0.0000       1.496707        40.7275 
 281   0.0000       1.499040        40.7909 
 282   0.0000       1.507808        41.0295 
 283   0.0000       1.518751        41.3273 
 284   0.0000       1.521981        41.4152 
 285   0.0000       1.530497        41.6469 
 286   0.0000       1.535957        41.7955 
 287   0.0000       1.543727        42.0069 
 288   0.0000       1.544633        42.0316 
 289   0.0000       1.548635        42.1405 
 290   0.0000       1.557712        42.3875 
 291   0.0000       1.567052        42.6416 
 292   0.0000       1.573819        42.8258 
 293   0.0000       1.578783        42.9609 
 294   0.0000       1.585187        43.1351 
 295   0.0000       1.590263        43.2732 
 296   0.0000       1.599851        43.5342 
 297   0.0000       1.602520        43.6068 
 298   0.0000       1.619041        44.0563 
 299   0.0000       1.625375        44.2287 
 300   0.0000       1.632877        44.4328 
 301   0.0000       1.640120        44.6299 
 302   0.0000       1.647590        44.8332 
 303   0.0000       1.655312        45.0433 
 304   0.0000       1.659917        45.1686 
 305   0.0000       1.664450        45.2920 
 306   0.0000       1.681385        45.7528 
 307   0.0000       1.687824        45.9280 
 308   0.0000       1.701664        46.3046 
 309   0.0000       1.706728        46.4424 
 310   0.0000       1.712641        46.6033 
 311   0.0000       1.721608        46.8473 
 312   0.0000       1.731860        47.1263 
 313   0.0000       1.739570        47.3361 
 314   0.0000       1.748084        47.5678 
 315   0.0000       1.751417        47.6585 
 316   0.0000       1.759582        47.8807 
 317   0.0000       1.763589        47.9897 
 318   0.0000       1.778385        48.3923 
 319   0.0000       1.783934        48.5433 
 320   0.0000       1.791535        48.7502 
 321   0.0000       1.809283        49.2331 
 322   0.0000       1.814647        49.3790 
 323   0.0000       1.827585        49.7311 
 324   0.0000       1.846358        50.2419 
 325   0.0000       1.862511        50.6815 
 326   0.0000       1.864249        50.7288 
 327   0.0000       1.890239        51.4360 
 328   0.0000       1.903683        51.8018 
 329   0.0000       1.911971        52.0274 
 330   0.0000       1.922607        52.3168 
 331   0.0000       1.927453        52.4487 
 332   0.0000       1.936837        52.7040 
 333   0.0000       1.947735        53.0006 
 334   0.0000       1.954448        53.1832 
 335   0.0000       1.966452        53.5099 
 336   0.0000       1.980084        53.8808 
 337   0.0000       1.989489        54.1367 
 338   0.0000       2.003057        54.5059 
 339   0.0000       2.008922        54.6656 
 340   0.0000       2.022582        55.0373 
 341   0.0000       2.043240        55.5994 
 342   0.0000       2.050055        55.7848 
 343   0.0000       2.065101        56.1942 
 344   0.0000       2.085228        56.7419 
 345   0.0000       2.094268        56.9879 
 346   0.0000       2.123318        57.7784 
 347   0.0000       2.137080        58.1529 
 348   0.0000       2.159427        58.7610 
 349   0.0000       2.171314        59.0845 
 350   0.0000       2.190444        59.6050 
 351   0.0000       2.203418        59.9580 
 352   0.0000       2.208353        60.0923 
 353   0.0000       2.224447        60.5303 
 354   0.0000       2.234588        60.8062 
 355   0.0000       2.239909        60.9510 
 356   0.0000       2.280697        62.0609 
 357   0.0000       2.287708        62.2517 
 358   0.0000       2.305703        62.7414 
 359   0.0000       2.310853        62.8815 
 360   0.0000       2.318740        63.0961 
 361   0.0000       2.329449        63.3875 
 362   0.0000       2.333360        63.4940 
 363   0.0000       2.339042        63.6486 
 364   0.0000       2.360939        64.2444 
 365   0.0000       2.369126        64.4672 
 366   0.0000       2.379265        64.7431 
 367   0.0000       2.390699        65.0542 
 368   0.0000       2.396705        65.2176 
 369   0.0000       2.431343        66.1602 
 370   0.0000       2.432703        66.1972 
 371   0.0000       2.441702        66.4421 
 372   0.0000       2.451261        66.7022 
 373   0.0000       2.473518        67.3079 
 374   0.0000       2.487158        67.6790 
 375   0.0000       2.499172        68.0059 
 376   0.0000       2.508600        68.2625 
 377   0.0000       2.524141        68.6854 
 378   0.0000       2.531323        68.8808 
 379   0.0000       2.552145        69.4474 
 380   0.0000       2.561790        69.7099 
 381   0.0000       2.577779        70.1449 
 382   0.0000       2.589836        70.4730 
 383   0.0000       2.592147        70.5359 
 384   0.0000       2.605408        70.8967 
 385   0.0000       2.607152        70.9442 
 386   0.0000       2.620360        71.3036 
 387   0.0000       2.630707        71.5852 
 388   0.0000       2.646271        72.0087 
 389   0.0000       2.662041        72.4378 
 390   0.0000       2.665904        72.5429 
 391   0.0000       2.674217        72.7691 
 392   0.0000       2.698055        73.4178 
 393   0.0000       2.700933        73.4961 
 394   0.0000       2.707154        73.6654 
 395   0.0000       2.717085        73.9356 
 396   0.0000       2.727228        74.2116 
 397   0.0000       2.737475        74.4905 
 398   0.0000       2.750094        74.8339 
 399   0.0000       2.750588        74.8473 
 400   0.0000       2.763589        75.2011 
 401   0.0000       2.773905        75.4818 
 402   0.0000       2.782450        75.7143 
 403   0.0000       2.788262        75.8725 
 404   0.0000       2.799598        76.1809 
 405   0.0000       2.809262        76.4439 
 406   0.0000       2.811376        76.5014 
 407   0.0000       2.843486        77.3752 
 408   0.0000       2.847919        77.4958 
 409   0.0000       2.861866        77.8753 
 410   0.0000       2.863172        77.9109 
 411   0.0000       2.879910        78.3663 
 412   0.0000       2.889394        78.6244 
 413   0.0000       2.894599        78.7660 
 414   0.0000       2.913738        79.2869 
 415   0.0000       2.918329        79.4118 
 416   0.0000       2.930053        79.7308 
 417   0.0000       2.935390        79.8760 
 418   0.0000       2.945487        80.1508 
 419   0.0000       2.948849        80.2423 
 420   0.0000       2.956150        80.4409 
 421   0.0000       2.966646        80.7265 
 422   0.0000       2.973920        80.9245 
 423   0.0000       2.987192        81.2856 
 424   0.0000       3.003951        81.7417 
 425   0.0000       3.010089        81.9087 
 426   0.0000       3.019444        82.1633 
 427   0.0000       3.026046        82.3429 
 428   0.0000       3.031495        82.4912 
 429   0.0000       3.035555        82.6017 
 430   0.0000       3.038972        82.6946 
 431   0.0000       3.050794        83.0163 
 432   0.0000       3.061100        83.2968 
 433   0.0000       3.066356        83.4398 
 434   0.0000       3.081439        83.8502 
 435   0.0000       3.087004        84.0017 
 436   0.0000       3.090208        84.0888 
 437   0.0000       3.095557        84.2344 
 438   0.0000       3.098701        84.3199 
 439   0.0000       3.104673        84.4824 
 440   0.0000       3.113066        84.7108 
 441   0.0000       3.119976        84.8989 
 442   0.0000       3.124861        85.0318 
 443   0.0000       3.129283        85.1521 
 444   0.0000       3.135766        85.3285 
 445   0.0000       3.153450        85.8097 
 446   0.0000       3.159427        85.9724 
 447   0.0000       3.167769        86.1994 
 448   0.0000       3.175365        86.4061 
 449   0.0000       3.182432        86.5984 
 450   0.0000       3.189800        86.7989 
 451   0.0000       3.195156        86.9446 
 452   0.0000       3.201761        87.1244 
 453   0.0000       3.210500        87.3621 
 454   0.0000       3.218627        87.5833 
 455   0.0000       3.221833        87.6705 
 456   0.0000       3.230582        87.9086 
 457   0.0000       3.243056        88.2481 
 458   0.0000       3.244617        88.2905 
 459   0.0000       3.254435        88.5577 
 460   0.0000       3.266068        88.8742 
 461   0.0000       3.270960        89.0074 
 462   0.0000       3.274612        89.1067 
 463   0.0000       3.280119        89.2566 
 464   0.0000       3.293926        89.6323 
 465   0.0000       3.295952        89.6874 
 466   0.0000       3.300632        89.8148 
 467   0.0000       3.302631        89.8691 
 468   0.0000       3.316215        90.2388 
 469   0.0000       3.320367        90.3518 
 470   0.0000       3.325473        90.4907 
 471   0.0000       3.329650        90.6044 
 472   0.0000       3.338180        90.8365 
 473   0.0000       3.349144        91.1348 
 474   0.0000       3.356875        91.3452 
 475   0.0000       3.365122        91.5696 
 476   0.0000       3.372275        91.7643 
 477   0.0000       3.372772        91.7778 
 478   0.0000       3.379810        91.9693 
 479   0.0000       3.383516        92.0701 
 480   0.0000       3.390328        92.2555 
 481   0.0000       3.394175        92.3602 
 482   0.0000       3.402881        92.5971 
 483   0.0000       3.407472        92.7220 
 484   0.0000       3.410386        92.8013 
 485   0.0000       3.416360        92.9639 
 486   0.0000       3.417415        92.9926 
 487   0.0000       3.423817        93.1668 
 488   0.0000       3.435636        93.4884 
 489   0.0000       3.436739        93.5184 
 490   0.0000       3.442486        93.6748 
 491   0.0000       3.444282        93.7237 
 492   0.0000       3.447104        93.8005 
 493   0.0000       3.457747        94.0901 
 494   0.0000       3.461803        94.2004 
 495   0.0000       3.473715        94.5246 
 496   0.0000       3.476769        94.6077 
 497   0.0000       3.484983        94.8312 
 498   0.0000       3.490721        94.9874 
 499   0.0000       3.499608        95.2292 
 500   0.0000       3.502399        95.3051 
 501   0.0000       3.517178        95.7073 
 502   0.0000       3.533285        96.1456 
 503   0.0000       3.538922        96.2990 
 504   0.0000       3.545268        96.4716 
 505   0.0000       3.547787        96.5402 
 506   0.0000       3.553559        96.6973 
 507   0.0000       3.563827        96.9767 
 508   0.0000       3.570887        97.1688 
 509   0.0000       3.575034        97.2816 
 510   0.0000       3.590443        97.7009 
 511   0.0000       3.594502        97.8114 
 512   0.0000       3.605070        98.0989 
 513   0.0000       3.616474        98.4093 
 514   0.0000       3.618012        98.4511 
 515   0.0000       3.621165        98.5369 
 516   0.0000       3.627404        98.7067 
 517   0.0000       3.634386        98.8967 
 518   0.0000       3.638767        99.0159 
 519   0.0000       3.644173        99.1630 
 520   0.0000       3.650792        99.3431 
 521   0.0000       3.659963        99.5926 
 522   0.0000       3.666066        99.7587 
 523   0.0000       3.670045        99.8670 
 524   0.0000       3.681602       100.1815 
 525   0.0000       3.682644       100.2098 
 526   0.0000       3.687931       100.3537 
 527   0.0000       3.698431       100.6394 
 528   0.0000       3.703243       100.7704 
 529   0.0000       3.708844       100.9228 
 530   0.0000       3.714799       101.0848 
 531   0.0000       3.717955       101.1707 
 532   0.0000       3.723768       101.3289 
 533   0.0000       3.730771       101.5194 
 534   0.0000       3.741611       101.8144 
 535   0.0000       3.743588       101.8682 
 536   0.0000       3.752622       102.1140 
 537   0.0000       3.761231       102.3483 
 538   0.0000       3.765620       102.4677 
 539   0.0000       3.773971       102.6950 
 540   0.0000       3.776854       102.7734 
 541   0.0000       3.782142       102.9173 
 542   0.0000       3.793043       103.2139 
 543   0.0000       3.799685       103.3947 
 544   0.0000       3.803294       103.4929 
 545   0.0000       3.813494       103.7705 
 546   0.0000       3.816556       103.8538 
 547   0.0000       3.823224       104.0352 
 548   0.0000       3.825660       104.1015 
 549   0.0000       3.837656       104.4279 
 550   0.0000       3.851885       104.8151 
 551   0.0000       3.854602       104.8891 
 552   0.0000       3.864620       105.1617 
 553   0.0000       3.879126       105.5564 
 554   0.0000       3.880576       105.5958 
 555   0.0000       3.890187       105.8574 
 556   0.0000       3.895546       106.0032 
 557   0.0000       3.907154       106.3191 
 558   0.0000       3.916480       106.5728 
 559   0.0000       3.927255       106.8660 
 560   0.0000       3.934746       107.0699 
 561   0.0000       3.951316       107.5208 
 562   0.0000       3.953687       107.5853 
 563   0.0000       3.956647       107.6658 
 564   0.0000       3.970017       108.0297 
 565   0.0000       3.982106       108.3586 
 566   0.0000       3.989615       108.5629 
 567   0.0000       3.999362       108.8282 
 568   0.0000       4.004561       108.9697 
 569   0.0000       4.010692       109.1365 
 570   0.0000       4.018337       109.3445 
 571   0.0000       4.024541       109.5133 
 572   0.0000       4.037791       109.8739 
 573   0.0000       4.045191       110.0752 
 574   0.0000       4.056082       110.3716 
 575   0.0000       4.063111       110.5629 
 576   0.0000       4.070994       110.7774 
 577   0.0000       4.077366       110.9508 
 578   0.0000       4.080118       111.0257 
 579   0.0000       4.099733       111.5594 
 580   0.0000       4.102126       111.6245 
 581   0.0000       4.107280       111.7648 
 582   0.0000       4.115169       111.9794 
 583   0.0000       4.118479       112.0695 
 584   0.0000       4.130648       112.4006 
 585   0.0000       4.138304       112.6090 
 586   0.0000       4.149034       112.9010 
 587   0.0000       4.154986       113.0629 
 588   0.0000       4.160338       113.2086 
 589   0.0000       4.162824       113.2762 
 590   0.0000       4.169000       113.4443 
 591   0.0000       4.173510       113.5670 
 592   0.0000       4.184919       113.8774 
 593   0.0000       4.191147       114.0469 
 594   0.0000       4.194683       114.1431 
 595   0.0000       4.203023       114.3701 
 596   0.0000       4.204888       114.4208 
 597   0.0000       4.212347       114.6238 
 598   0.0000       4.221662       114.8773 
 599   0.0000       4.239366       115.3590 
 600   0.0000       4.247418       115.5781 
 601   0.0000       4.247903       115.5913 
 602   0.0000       4.258421       115.8775 
 603   0.0000       4.264535       116.0439 
 604   0.0000       4.272224       116.2531 
 605   0.0000       4.282869       116.5428 
 606   0.0000       4.293681       116.8370 
 607   0.0000       4.311120       117.3116 
 608   0.0000       4.314407       117.4010 
 609   0.0000       4.319625       117.5430 
 610   0.0000       4.330574       117.8409 
 611   0.0000       4.341166       118.1291 
 612   0.0000       4.348530       118.3295 
 613   0.0000       4.351175       118.4015 
 614   0.0000       4.359786       118.6358 
 615   0.0000       4.363197       118.7286 
 616   0.0000       4.372909       118.9929 
 617   0.0000       4.384140       119.2985 
 618   0.0000       4.385578       119.3376 
 619   0.0000       4.391891       119.5094 
 620   0.0000       4.396937       119.6467 
 621   0.0000       4.400541       119.7448 
 622   0.0000       4.412021       120.0572 
 623   0.0000       4.413806       120.1058 
 624   0.0000       4.429373       120.5294 
 625   0.0000       4.436104       120.7125 
 626   0.0000       4.451662       121.1359 
 627   0.0000       4.463408       121.4555 
 628   0.0000       4.472607       121.7058 
 629   0.0000       4.476593       121.8143 
 630   0.0000       4.481478       121.9472 
 631   0.0000       4.488674       122.1430 
 632   0.0000       4.505695       122.6062 
 633   0.0000       4.512314       122.7863 
 634   0.0000       4.520975       123.0220 
 635   0.0000       4.526122       123.1620 
 636   0.0000       4.539839       123.5353 
 637   0.0000       4.545112       123.6788 
 638   0.0000       4.554294       123.9286 
 639   0.0000       4.562619       124.1552 
 640   0.0000       4.583378       124.7201 
 641   0.0000       4.587214       124.8245 
 642   0.0000       4.588900       124.8703 
 643   0.0000       4.591185       124.9325 
 644   0.0000       4.603147       125.2580 
 645   0.0000       4.612363       125.5088 
 646   0.0000       4.623513       125.8122 
 647   0.0000       4.630729       126.0085 
 648   0.0000       4.641130       126.2916 
 649   0.0000       4.645141       126.4007 
 650   0.0000       4.652904       126.6119 
 651   0.0000       4.660015       126.8055 
 652   0.0000       4.663174       126.8914 
 653   0.0000       4.672082       127.1338 
 654   0.0000       4.684957       127.4842 
 655   0.0000       4.698286       127.8469 
 656   0.0000       4.710301       128.1738 
 657   0.0000       4.714670       128.2927 
 658   0.0000       4.722685       128.5108 
 659   0.0000       4.726450       128.6132 
 660   0.0000       4.728952       128.6813 
 661   0.0000       4.743238       129.0701 
 662   0.0000       4.756448       129.4295 
 663   0.0000       4.773372       129.8901 
 664   0.0000       4.795407       130.4897 
 665   0.0000       4.810177       130.8916 
 666   0.0000       4.823044       131.2417 
 667   0.0000       4.842830       131.7801 
 668   0.0000       4.859584       132.2360 
 669   0.0000       4.878689       132.7559 
 670   0.0000       4.887944       133.0077 
 671   0.0000       4.898078       133.2835 
 672   0.0000       4.925878       134.0400 
 673   0.0000       4.942163       134.4831 
 674   0.0000       4.961734       135.0157 
 675   0.0000       4.964398       135.0881 
 676   0.0000       5.007543       136.2622 
 677   0.0000       5.018022       136.5473 
 678   0.0000       5.018717       136.5662 
 679   0.0000       5.026143       136.7683 
 680   0.0000       5.041036       137.1736 
 681   0.0000       5.052279       137.4795 
 682   0.0000       5.055665       137.5716 
 683   0.0000       5.063396       137.7820 
 684   0.0000       5.072324       138.0250 
 685   0.0000       5.110581       139.0660 
 686   0.0000       5.126047       139.4868 
 687   0.0000       5.131147       139.6256 
 688   0.0000       5.139259       139.8463 
 689   0.0000       5.146942       140.0554 
 690   0.0000       5.167422       140.6127 
 691   0.0000       5.173287       140.7723 
 692   0.0000       5.180192       140.9602 
 693   0.0000       5.182149       141.0135 
 694   0.0000       5.206623       141.6794 
 695   0.0000       5.215353       141.9170 
 696   0.0000       5.224069       142.1542 
 697   0.0000       5.230208       142.3212 
 698   0.0000       5.235756       142.4722 
 699   0.0000       5.248140       142.8091 
 700   0.0000       5.265619       143.2848 
 701   0.0000       5.268383       143.3600 
 702   0.0000       5.281316       143.7119 
 703   0.0000       5.301556       144.2627 
 704   0.0000       5.326008       144.9281 
 705   0.0000       5.343960       145.4165 
 706   0.0000       5.347144       145.5032 
 707   0.0000       5.357641       145.7888 
 708   0.0000       5.364468       145.9746 
 709   0.0000       5.373956       146.2328 
 710   0.0000       5.395261       146.8125 
 711   0.0000       5.402687       147.0146 
 712   0.0000       5.414233       147.3288 
 713   0.0000       5.450139       148.3058 
 714   0.0000       5.466915       148.7623 
 715   0.0000       5.478700       149.0830 
 716   0.0000       5.490473       149.4034 
 717   0.0000       5.498756       149.6288 
 718   0.0000       5.505368       149.8087 
 719   0.0000       5.512959       150.0153 
 720   0.0000       5.520400       150.2177 
 721   0.0000       5.526640       150.3875 
 722   0.0000       5.538405       150.7077 
 723   0.0000       5.559693       151.2870 
 724   0.0000       5.575874       151.7272 
 725   0.0000       5.580729       151.8594 
 726   0.0000       5.594791       152.2420 
 727   0.0000       5.603022       152.4660 
 728   0.0000       5.614351       152.7743 
 729   0.0000       5.626491       153.1046 
 730   0.0000       5.643926       153.5790 
 731   0.0000       5.649279       153.7247 
 732   0.0000       5.665213       154.1583 
 733   0.0000       5.666706       154.1989 
 734   0.0000       5.678468       154.5190 
 735   0.0000       5.692617       154.9040 
 736   0.0000       5.700303       155.1131 
 737   0.0000       5.718266       155.6019 
 738   0.0000       5.734523       156.0443 
 739   0.0000       5.740817       156.2156 
 740   0.0000       5.763387       156.8297 
 741   0.0000       5.776254       157.1799 
 742   0.0000       5.799608       157.8153 
 743   0.0000       5.808320       158.0524 
 744   0.0000       5.824435       158.4909 
 745   0.0000       5.843589       159.0121 
 746   0.0000       5.855317       159.3313 
 747   0.0000       5.871088       159.7604 
 748   0.0000       5.894633       160.4011 
 749   0.0000       5.934474       161.4853 
 750   0.0000       5.949527       161.8949 
 751   0.0000       5.976529       162.6296 
 752   0.0000       5.983041       162.8068 
 753   0.0000       5.991917       163.0483 
 754   0.0000       6.002125       163.3261 
 755   0.0000       6.031831       164.1345 
 756   0.0000       6.048083       164.5767 
 757   0.0000       6.059201       164.8792 
 758   0.0000       6.082900       165.5241 
 759   0.0000       6.088423       165.6744 
 760   0.0000       6.156277       167.5208 
 761   0.0000       6.180105       168.1692 
 762   0.0000       6.204995       168.8465 
 763   0.0000       6.209713       168.9749 
 764   0.0000       6.214841       169.1144 
 765   0.0000       6.247489       170.0028 
 766   0.0000       6.280348       170.8969 
 767   0.0000       6.292769       171.2349 
 768   0.0000       6.323242       172.0642 
 769   0.0000       6.329571       172.2364 
 770   0.0000       6.334704       172.3761 
 771   0.0000       6.353287       172.8817 
 772   0.0000       6.389171       173.8582 
 773   0.0000       6.433831       175.0734 
 774   0.0000       6.456367       175.6867 
 775   0.0000       6.508680       177.1102 
 776   0.0000       6.532060       177.7464 
 777   0.0000       6.555764       178.3914 
 778   0.0000       6.576181       178.9470 
 779   0.0000       6.592632       179.3946 
 780   0.0000       6.603596       179.6930 
 781   0.0000       6.697190       182.2398 
 782   0.0000       6.724888       182.9935 
 783   0.0000       6.741280       183.4396 
 784   0.0000       6.800949       185.0632 
 785   0.0000       6.875817       187.1005 
 786   0.0000       6.895990       187.6494 
 787   0.0000       6.921116       188.3331 
 788   0.0000       6.928848       188.5435 
 789   0.0000       7.000779       190.5009 
 790   0.0000       7.026060       191.1888 
 791   0.0000       7.089286       192.9093 
 792   0.0000       7.095681       193.0833 
 793   0.0000       7.124151       193.8580 
 794   0.0000       7.207751       196.1329 
 795   0.0000       7.220506       196.4800 
 796   0.0000       7.257995       197.5001 
 797   0.0000       7.288462       198.3291 
 798   0.0000       7.339245       199.7110 
 799   0.0000       7.367898       200.4907 
 800   0.0000       7.388047       201.0390 
 801   0.0000       7.506072       204.2506 
 802   0.0000       7.572897       206.0690 
 803   0.0000       7.594148       206.6473 
 804   0.0000       7.667259       208.6367 
 805   0.0000       7.804405       212.3687 
 806   0.0000       7.820441       212.8050 
 807   0.0000       7.937123       215.9801 
 808   0.0000       7.941619       216.1025 
 809   0.0000       9.411114       256.0894 
 810   0.0000       9.541072       259.6258 
 811   0.0000      10.793980       293.7191 
 812   0.0000      11.108161       302.2684 
 813   0.0000      11.736404       319.3638 
 814   0.0000      12.537824       341.1715 
 815   0.0000      12.716162       346.0244 
 816   0.0000      12.953345       352.4784 
 817   0.0000      12.962718       352.7335 
 818   0.0000      13.187432       358.8483 
 819   0.0000      13.306205       362.0802 
 820   0.0000      13.494193       367.1957 
 821   0.0000      13.671586       372.0228 
 822   0.0000      13.701042       372.8243 
 823   0.0000      13.809836       375.7848 
 824   0.0000      13.835652       376.4872 
 825   0.0000      14.400448       391.8561 
 826   0.0000      14.585976       396.9046 
 827   0.0000      15.744544       428.4308 

                    ********************************
                    * MULLIKEN POPULATION ANALYSIS *
                    ********************************

-----------------------
MULLIKEN ATOMIC CHARGES
-----------------------
   0 C :   -0.291082
   1 C :    0.024049
   2 O :   -0.351482
   3 C :    0.462306
   4 O :   -0.430092
   5 C :   -0.190171
   6 C :    0.140740
   7 C :   -0.289871
   8 N :   -0.123374
   9 C :    0.196374
  10 S :   -0.437439
  11 N :   -0.203678
  12 C :    0.074896
  13 C :    0.038330
  14 C :   -0.197895
  15 C :   -0.126573
  16 C :   -0.277809
  17 C :    0.310238
  18 O :   -0.361570
  19 C :   -0.254627
  20 H :    0.084797
  21 H :    0.103973
  22 H :    0.114288
  23 H :    0.121950
  24 H :    0.106921
  25 H :    0.124936
  26 H :    0.107509
  27 H :    0.135996
  28 H :    0.192046
  29 H :    0.190085
  30 H :    0.187987
  31 H :    0.137219
  32 H :    0.155297
  33 H :    0.124569
  34 H :    0.241882
  35 H :    0.159274
Sum of atomic charges:    0.0000000

--------------------------------
MULLIKEN REDUCED ORBITAL CHARGES
--------------------------------
  0 C s       :     3.261870  s :     3.261870
      pz      :     0.920541  p :     2.951027
      px      :     1.018391
      py      :     1.012095
      dz2     :     0.017699  d :     0.073804
      dxz     :     0.012422
      dyz     :     0.017756
      dx2y2   :     0.016278
      dxy     :     0.009649
      f0      :     0.001421  f :     0.004381
      f+1     :     0.000919
      f-1     :     0.000434
      f+2     :     0.000319
      f-2     :     0.000166
      f+3     :     0.000763
      f-3     :     0.000358
  1 C s       :     3.170040  s :     3.170040
      pz      :     0.831014  p :     2.645432
      px      :     0.952065
      py      :     0.862353
      dz2     :     0.036808  d :     0.149243
      dxz     :     0.024560
      dyz     :     0.034767
      dx2y2   :     0.032642
      dxy     :     0.020465
      f0      :     0.001749  f :     0.011236
      f+1     :     0.001782
      f-1     :     0.002179
      f+2     :     0.001406
      f-2     :     0.001640
      f+3     :     0.001383
      f-3     :     0.001097
  2 O s       :     3.716165  s :     3.716165
      pz      :     1.613684  p :     4.600226
      px      :     1.335534
      py      :     1.651008
      dz2     :     0.004663  d :     0.032804
      dxz     :     0.005159
      dyz     :     0.006633
      dx2y2   :     0.009902
      dxy     :     0.006446
      f0      :     0.000321  f :     0.002287
      f+1     :     0.000342
      f-1     :     0.000157
      f+2     :     0.000439
      f-2     :     0.000407
      f+3     :     0.000349
      f-3     :     0.000272
  3 C s       :     3.058374  s :     3.058374
      pz      :     0.671878  p :     2.153856
      px      :     0.670188
      py      :     0.811790
      dz2     :     0.032094  d :     0.298835
      dxz     :     0.043858
      dyz     :     0.068227
      dx2y2   :     0.083340
      dxy     :     0.071315
      f0      :     0.002114  f :     0.026630
      f+1     :     0.003090
      f-1     :     0.001982
      f+2     :     0.004195
      f-2     :     0.003252
      f+3     :     0.005096
      f-3     :     0.006901
  4 O s       :     3.769648  s :     3.769648
      pz      :     1.565471  p :     4.622902
      px      :     1.658351
      py      :     1.399079
      dz2     :     0.003760  d :     0.035134
      dxz     :     0.001257
      dyz     :     0.009704
      dx2y2   :     0.009966
      dxy     :     0.010447
      f0      :     0.000241  f :     0.002409
      f+1     :     0.000076
      f-1     :     0.000339
      f+2     :     0.000273
      f-2     :     0.000202
      f+3     :     0.000700
      f-3     :     0.000577
  5 C s       :     3.187723  s :     3.187723
      pz      :     1.025699  p :     2.902697
      px      :     1.007207
      py      :     0.869792
      dz2     :     0.016239  d :     0.089135
      dxz     :     0.009569
      dyz     :     0.028074
      dx2y2   :     0.011037
      dxy     :     0.024217
      f0      :     0.001031  f :     0.010616
      f+1     :     0.001093
      f-1     :     0.001318
      f+2     :     0.002319
      f-2     :     0.001571
      f+3     :     0.001808
      f-3     :     0.001475
  6 C s       :     3.191404  s :     3.191404
      pz      :     0.850962  p :     2.480342
      px      :     0.831455
      py      :     0.797926
      dz2     :     0.028216  d :     0.173637
      dxz     :     0.017121
      dyz     :     0.051015
      dx2y2   :     0.028110
      dxy     :     0.049174
      f0      :     0.001385  f :     0.013877
      f+1     :     0.001575
      f-1     :     0.001985
      f+2     :     0.002187
      f-2     :     0.002196
      f+3     :     0.002237
      f-3     :     0.002312
  7 C s       :     3.280722  s :     3.280722
      pz      :     0.923992  p :     2.933769
      px      :     1.002073
      py      :     1.007704
      dz2     :     0.022060  d :     0.070712
      dxz     :     0.011944
      dyz     :     0.009884
      dx2y2   :     0.020390
      dxy     :     0.006434
      f0      :     0.000363  f :     0.004668
      f+1     :     0.001146
      f-1     :     0.000983
      f+2     :     0.000468
      f-2     :     0.000599
      f+3     :     0.000457
      f-3     :     0.000652
  8 N s       :     3.340040  s :     3.340040
      pz      :     1.385046  p :     3.719023
      px      :     1.254088
      py      :     1.079889
      dz2     :     0.009300  d :     0.059359
      dxz     :     0.009923
      dyz     :     0.010958
      dx2y2   :     0.016606
      dxy     :     0.012572
      f0      :     0.000592  f :     0.004952
      f+1     :     0.000986
      f-1     :     0.000326
      f+2     :     0.000933
      f-2     :     0.001017
      f+3     :     0.000478
      f-3     :     0.000618
  9 C s       :     3.168711  s :     3.168711
      pz      :     0.719982  p :     2.354272
      px      :     0.771466
      py      :     0.862825
      dz2     :     0.048445  d :     0.263027
      dxz     :     0.032813
      dyz     :     0.055539
      dx2y2   :     0.070252
      dxy     :     0.055979
      f0      :     0.001776  f :     0.017616
      f+1     :     0.002853
      f-1     :     0.002197
      f+2     :     0.003299
      f-2     :     0.001732
      f+3     :     0.003013
      f-3     :     0.002746
 10 S s       :     5.858127  s :     5.858127
      pz      :     3.613832  p :    10.485217
      px      :     3.532905
      py      :     3.338480
      dz2     :     0.010858  d :     0.084022
      dxz     :     0.006739
      dyz     :     0.021890
      dx2y2   :     0.010814
      dxy     :     0.033721
      f0      :     0.001111  f :     0.010073
      f+1     :     0.000613
      f-1     :     0.001067
      f+2     :     0.000952
      f-2     :     0.002190
      f+3     :     0.002704
      f-3     :     0.001437
 11 N s       :     3.381750  s :     3.381750
      pz      :     1.382390  p :     3.757927
      px      :     1.363429
      py      :     1.012107
      dz2     :     0.005295  d :     0.059598
      dxz     :     0.008448
      dyz     :     0.016576
      dx2y2   :     0.014818
      dxy     :     0.014461
      f0      :     0.000522  f :     0.004403
      f+1     :     0.000369
      f-1     :     0.000530
      f+2     :     0.000842
      f-2     :     0.000667
      f+3     :     0.000695
      f-3     :     0.000778
 12 C s       :     3.103608  s :     3.103608
      pz      :     0.863728  p :     2.639167
      px      :     0.871055
      py      :     0.904384
      dz2     :     0.036798  d :     0.171656
      dxz     :     0.029930
      dyz     :     0.032967
      dx2y2   :     0.032600
      dxy     :     0.039361
      f0      :     0.001137  f :     0.010673
      f+1     :     0.001695
      f-1     :     0.001511
      f+2     :     0.001719
      f-2     :     0.001842
      f+3     :     0.001676
      f-3     :     0.001094
 13 C s       :     3.125534  s :     3.125534
      pz      :     0.880324  p :     2.714622
      px      :     0.900031
      py      :     0.934267
      dz2     :     0.026910  d :     0.110725
      dxz     :     0.012476
      dyz     :     0.023964
      dx2y2   :     0.021343
      dxy     :     0.026033
      f0      :     0.001079  f :     0.010789
      f+1     :     0.001794
[...]
      f+2     :     0.007352
      f-2     :     0.005205
      f+3     :     0.006646
      f-3     :     0.004390
 15 C s       :     2.706031  s :     2.706031
      pz      :     0.934961  p :     2.796274
      px      :     0.894295
      py      :     0.967018
      dz2     :     0.105164  d :     0.421237
      dxz     :     0.069571
      dyz     :     0.085902
      dx2y2   :     0.103580
      dxy     :     0.057020
      f0      :     0.005027  f :     0.041574
      f+1     :     0.005612
      f-1     :     0.007334
      f+2     :     0.007078
      f-2     :     0.006350
      f+3     :     0.004580
      f-3     :     0.005594
 16 C s       :     2.701810  s :     2.701810
      pz      :     0.948369  p :     2.874547
      px      :     0.941023
      py      :     0.985155
      dz2     :     0.061476  d :     0.393587
      dxz     :     0.055528
      dyz     :     0.098082
      dx2y2   :     0.090961
      dxy     :     0.087541
      f0      :     0.003541  f :     0.040866
      f+1     :     0.004156
      f-1     :     0.007786
      f+2     :     0.006631
      f-2     :     0.004876
      f+3     :     0.008065
      f-3     :     0.005810
 17 C s       :     2.705005  s :     2.705005
      pz      :     0.892494  p :     2.680490
      px      :     0.825425
      py      :     0.962570
      dz2     :     0.143128  d :     0.703306
      dxz     :     0.092837
      dyz     :     0.168722
      dx2y2   :     0.142767
      dxy     :     0.155853
      f0      :     0.010590  f :     0.098415
      f+1     :     0.011614
      f-1     :     0.016298
      f+2     :     0.017742
      f-2     :     0.013339
      f+3     :     0.016276
      f-3     :     0.012557
 18 O s       :     3.178494  s :     3.178494
      pz      :     1.356687  p :     4.352921
      px      :     1.474421
      py      :     1.521813
      dz2     :     0.011437  d :     0.075535
      dxz     :     0.014851
      dyz     :     0.022478
      dx2y2   :     0.010138
      dxy     :     0.016631
      f0      :     0.000606  f :     0.005029
      f+1     :     0.000527
      f-1     :     0.000836
      f+2     :     0.000734
      f-2     :     0.001011
      f+3     :     0.000716
      f-3     :     0.000599
 19 C s       :     2.699164  s :     2.699164
      pz      :     0.953624  p :     2.856264
      px      :     0.934679
      py      :     0.967961
      dz2     :     0.086656  d :     0.381529
      dxz     :     0.068520
      dyz     :     0.077103
      dx2y2   :     0.089769
      dxy     :     0.059481
      f0      :     0.004677  f :     0.039499
      f+1     :     0.006309
      f-1     :     0.006229
      f+2     :     0.006586
      f-2     :     0.006360
      f+3     :     0.004436
      f-3     :     0.004903
 20 H s       :     0.852214  s :     0.852214
      pz      :     0.046934  p :     0.153155
      px      :     0.040854
      py      :     0.065368
      dz2     :     0.004877  d :     0.027555
      dxz     :     0.001619
      dyz     :     0.007529
      dx2y2   :     0.006440
      dxy     :     0.007091
 21 H s       :     0.841204  s :     0.841204
      pz      :     0.047285  p :     0.149859
      px      :     0.047522
      py      :     0.055051
      dz2     :     0.005584  d :     0.027218
      dxz     :     0.003857
      dyz     :     0.005390
      dx2y2   :     0.007404
      dxy     :     0.004983
 22 H s       :     0.847690  s :     0.847690
      pz      :     0.037899  p :     0.151584
      px      :     0.072567
      py      :     0.041118
      dz2     :     0.002709  d :     0.027422
      dxz     :     0.008346
      dyz     :     0.000319
      dx2y2   :     0.007152
      dxy     :     0.008897
 23 H s       :     0.852456  s :     0.852456
      pz      :     0.034833  p :     0.146102
      px      :     0.077385
      py      :     0.033884
      dz2     :     0.002888  d :     0.027398
      dxz     :     0.008341
      dyz     :     0.000138
      dx2y2   :     0.008045
      dxy     :     0.007986
 24 H s       :     0.848549  s :     0.848549
      pz      :     0.042291  p :     0.151889
      px      :     0.038778
      py      :     0.070820
      dz2     :     0.004310  d :     0.027530
      dxz     :     0.000984
      dyz     :     0.007810
      dx2y2   :     0.007186
      dxy     :     0.007241
 25 H s       :     0.830190  s :     0.830190
      pz      :     0.063483  p :     0.149258
      px      :     0.041319
      py      :     0.044456
      dz2     :     0.008769  d :     0.027343
      dxz     :     0.007114
      dyz     :     0.006961
      dx2y2   :     0.002945
      dxy     :     0.001553
 26 H s       :     0.840906  s :     0.840906
      pz      :     0.036755  p :     0.149323
      px      :     0.039849
      py      :     0.072718
      dz2     :     0.002340  d :     0.027500
      dxz     :     0.000203
      dyz     :     0.008950
      dx2y2   :     0.007125
      dxy     :     0.008882
 27 H s       :     0.829229  s :     0.829229
      pz      :     0.038650  p :     0.153961
      px      :     0.073759
      py      :     0.041552
      dz2     :     0.002631  d :     0.028174
      dxz     :     0.008776
      dyz     :     0.000289
      dx2y2   :     0.007942
      dxy     :     0.008535
 28 H s       :     0.744337  s :     0.744337
      pz      :     0.074154  p :     0.254405
      px      :     0.063122
      py      :     0.117129
      dz2     :     0.007234  d :     0.061550
      dxz     :     0.001550
      dyz     :     0.019815
      dx2y2   :     0.014803
      dxy     :     0.018149
 29 H s       :     0.747981  s :     0.747981
      pz      :     0.101630  p :     0.255826
      px      :     0.111780
      py      :     0.042416
      dz2     :     0.018169  d :     0.061598
      dxz     :     0.015333
      dyz     :     0.006756
      dx2y2   :     0.012308
      dxy     :     0.009031
 30 H s       :     0.811350  s :     0.811350
      pz      :     0.044073  p :     0.169122
      px      :     0.042822
      py      :     0.082227
      dz2     :     0.003413  d :     0.030442
      dxz     :     0.003071
      dyz     :     0.007751
      dx2y2   :     0.007991
      dxy     :     0.008216
 31 H s       :     0.843994  s :     0.843994
      pz      :     0.052111  p :     0.159669
      px      :     0.055560
      py      :     0.051998
      dz2     :     0.005448  d :     0.027777
      dxz     :     0.004627
      dyz     :     0.005848
      dx2y2   :     0.006068
      dxy     :     0.005786
 32 H s       :     0.843959  s :     0.843959
      pz      :     0.037317  p :     0.149615
      px      :     0.036739
      py      :     0.075559
      dz2     :     0.003072  d :     0.026109
      dxz     :     0.000478
      dyz     :     0.007988
      dx2y2   :     0.007208
      dxy     :     0.007363
 33 H s       :     0.849886  s :     0.849886
      pz      :     0.065174  p :     0.158062
      px      :     0.053705
      py      :     0.039183
      dz2     :     0.007852  d :     0.027454
      dxz     :     0.006597
      dyz     :     0.006144
      dx2y2   :     0.003464
      dxy     :     0.003398
 34 H s       :     0.706768  s :     0.706768
      pz      :     0.128273  p :     0.346260
      px      :     0.098111
      py      :     0.119876
      dz2     :     0.028704  d :     0.099010
      dxz     :     0.018913
      dyz     :     0.024051
      dx2y2   :     0.013071
      dxy     :     0.014272
 35 H s       :     0.843462  s :     0.843462
      pz      :     0.041546  p :     0.160699
      px      :     0.040694
      py      :     0.078459
      dz2     :     0.003292  d :     0.028688
      dxz     :     0.000720
      dyz     :     0.008736
      dx2y2   :     0.007531
      dxy     :     0.008409


                      *****************************
                      * MAYER POPULATION ANALYSIS *
                      *****************************

  NA   - Mulliken gross atomic population
  ZA   - Total nuclear charge
  QA   - Mulliken gross atomic charge
  VA   - Mayer's total valence
  BVA  - Mayer's bonded valence
  FA   - Mayer's free valence

  ATOM       NA         ZA         QA         VA         BVA        FA
  0 C      6.2911     6.0000    -0.2911     3.8770     3.8770     0.0000
  1 C      5.9760     6.0000     0.0240     3.8459     3.8459     0.0000
  2 O      8.3515     8.0000    -0.3515     2.0658     2.0658     0.0000
  3 C      5.5377     6.0000     0.4623     4.2189     4.2189    -0.0000
  4 O      8.4301     8.0000    -0.4301     2.0837     2.0837    -0.0000
  5 C      6.1902     6.0000    -0.1902     3.6707     3.6707     0.0000
  6 C      5.8593     6.0000     0.1407     3.8527     3.8527    -0.0000
  7 C      6.2899     6.0000    -0.2899     3.8942     3.8942    -0.0000
  8 N      7.1234     7.0000    -0.1234     3.2837     3.2837    -0.0000
  9 C      5.8036     6.0000     0.1964     4.1483     4.1483     0.0000
 10 S     16.4374    16.0000    -0.4374     1.7534     1.7534    -0.0000
 11 N      7.2037     7.0000    -0.2037     3.2705     3.2705    -0.0000
 12 C      5.9251     6.0000     0.0749     3.9112     3.9112    -0.0000
 13 C      5.9617     6.0000     0.0383     3.7479     3.7479     0.0000
 14 C      6.1979     6.0000    -0.1979     3.8616     3.8616     0.0000
 15 C      6.1266     6.0000    -0.1266     3.8053     3.8053     0.0000
 16 C      6.2778     6.0000    -0.2778     3.7870     3.7870    -0.0000
 17 C      5.6898     6.0000     0.3102     3.8736     3.8736     0.0000
 18 O      8.3616     8.0000    -0.3616     2.1111     2.1111     0.0000
 19 C      6.2546     6.0000    -0.2546     3.8507     3.8507     0.0000
 20 H      0.9152     1.0000     0.0848     0.9808     0.9808     0.0000
 21 H      0.8960     1.0000     0.1040     0.9839     0.9839    -0.0000
 22 H      0.8857     1.0000     0.1143     0.9840     0.9840     0.0000
 23 H      0.8780     1.0000     0.1220     0.9753     0.9753     0.0000
 24 H      0.8931     1.0000     0.1069     0.9852     0.9852    -0.0000
 25 H      0.8751     1.0000     0.1249     0.9782     0.9782    -0.0000
 26 H      0.8925     1.0000     0.1075     0.9860     0.9860    -0.0000
 27 H      0.8640     1.0000     0.1360     0.9784     0.9784    -0.0000
 28 H      0.8080     1.0000     0.1920     1.0255     1.0255    -0.0000
 29 H      0.8099     1.0000     0.1901     1.0219     1.0219     0.0000
 30 H      0.8120     1.0000     0.1880     0.9969     0.9969    -0.0000
 31 H      0.8628     1.0000     0.1372     0.9922     0.9922     0.0000
 32 H      0.8447     1.0000     0.1553     0.9787     0.9787     0.0000
 33 H      0.8754     1.0000     0.1246     0.9927     0.9927     0.0000
 34 H      0.7581     1.0000     0.2419     1.0099     1.0099    -0.0000
 35 H      0.8407     1.0000     0.1593     0.9918     0.9918     0.0000

  Mayer bond orders larger than 0.100000
B(  0-C ,  1-C ) :   0.9602 B(  0-C , 20-H ) :   0.9786 B(  0-C , 21-H ) :   0.9747 
B(  0-C , 22-H ) :   0.9758 B(  1-C ,  2-O ) :   0.8922 B(  1-C , 23-H ) :   0.9826 
B(  1-C , 24-H ) :   0.9789 B(  2-O ,  3-C ) :   1.1524 B(  3-C ,  4-O ) :   1.9746 
B(  3-C ,  5-C ) :   1.0427 B(  5-C ,  6-C ) :   1.6712 B(  5-C , 12-C ) :   0.9846 
B(  6-C ,  7-C ) :   0.9484 B(  6-C ,  8-N ) :   1.1266 B(  7-C , 25-H ) :   0.9650 
B(  7-C , 26-H ) :   0.9879 B(  7-C , 27-H ) :   0.9675 B(  8-N ,  9-C ) :   1.1856 
B(  8-N , 28-H ) :   0.9500 B(  9-C , 10-S ) :   1.6025 B(  9-C , 11-N ) :   1.3036 
B( 11-N , 12-C ) :   0.9974 B( 11-N , 29-H ) :   0.9516 B( 12-C , 13-C ) :   0.9092 
B( 12-C , 30-H ) :   0.9767 B( 13-C , 14-C ) :   1.3829 B( 13-C , 19-C ) :   1.3846 
B( 14-C , 15-C ) :   1.3840 B( 14-C , 31-H ) :   0.9714 B( 15-C , 16-C ) :   1.3650 
B( 15-C , 32-H ) :   0.9721 B( 16-C , 17-C ) :   1.3241 B( 16-C , 33-H ) :   0.9877 
B( 17-C , 18-O ) :   1.1011 B( 17-C , 19-C ) :   1.3855 B( 18-O , 34-H ) :   0.9791 
B( 19-C , 35-H ) :   0.9531 

-------
TIMINGS
-------

Total SCF time: 0 days 1 hours 30 min 49 sec 

Total time                  ....    5449.277 sec
Sum of individual times     ....    5443.198 sec  ( 99.9%)

Fock matrix formation       ....    5430.143 sec  ( 99.6%)
Diagonalization             ....       1.282 sec  (  0.0%)
Density matrix formation    ....       0.217 sec  (  0.0%)
Population analysis         ....       0.181 sec  (  0.0%)
Initial guess               ....       5.437 sec  (  0.1%)
Orbital Transformation      ....       0.000 sec  (  0.0%)
Orbital Orthonormalization  ....       0.000 sec  (  0.0%)
DIIS solution               ....       2.613 sec  (  0.0%)
SOSCF solution              ....       2.074 sec  (  0.0%)

------------------------------------------------------------------------------
                                ORCA  MP2 
------------------------------------------------------------------------------

Freezing NCore=48 chemical core electrons

-------------
RI-MP2 ENERGY
-------------
Dimension of the basis                    ...  828
Memory devoted to MP2                     ...  256 MB   
Data format for buffers                   ... DOUBLE
Compression type for matrix containers    ... UNCOMPRESSED
Overall scaling of the MP2 energy         ...   1.000e+00
Calculating two index integrals           ... done (    0.041 sec)
Cholesky decomposition of V**-1           ... done (    0.377 sec)

-----------------
RI-TRANSFORMATION (AUX index driven)
-----------------

Dimension of the orbital-basis         ... 828
Dimension of the aux-basis             ... 2141
Transformation of internal/external MOs...   24-  76 to   77- 827
Number Format for Storage              ... Double (8 Byte)
Integral mode                          ... Direct

First Phase: integral generation and transformation of MO indices
  Aux angular momentum 0               ... done (    4.655 sec)
  Aux angular momentum 1               ... done (    7.371 sec)
  Aux angular momentum 2               ... done (    9.721 sec)
  Aux angular momentum 3               ... done (    7.814 sec)
  Aux angular momentum 4               ... done (    2.753 sec)
Closing buffer VIA ( 0.63 GB; CompressionRatio= 1.00)
  Phase 1 completed in    32.470 sec
Second Phase: sorting and transformation of aux index

IA-Transformation
Memory available                       ... 167 MB 
Max. # MO pairs treated in a batch     ... 12    
# of internal orbitals                 ... 53
# batches for internal orbitals        ... 5
Closing buffer IAV ( 0.63 GB; CompressionRatio= 1.00)
(ia|v) transformation done in    19.320 sec

  Phase 2 completed in    19.344 sec
RI-Integral transformation completed in    51.832 sec
Opening buffers                              ... done

Starting loop over batches of integrals:

Operator 0  - window                       ... ( 24- 76)x( 77-827)
Operator 0  - Memory available             ...   256 MB
Operator 0  - Memory needed per MO         ...  12.3 MB
Operator 0  - Number of orbitals per batch ... 13
Operator 0  - Number of batches            ... 5

OPERATOR  0   PASS   0:  MOs    24 ...   36
  Reading integrals       ... ok
  Internal MO  26
  Internal MO  29
  Internal MO  32
  Internal MO  35
OPERATOR  0   PASS   1:  MOs    37 ...   49
  Reading integrals       ... ok
  Internal MO  38
  Internal MO  41
  Internal MO  44
  Internal MO  47
OPERATOR  0   PASS   2:  MOs    50 ...   62
  Reading integrals       ... ok
  Internal MO  50
  Internal MO  53
  Internal MO  56
  Internal MO  59
  Internal MO  62
OPERATOR  0   PASS   3:  MOs    63 ...   75
  Reading integrals       ... ok
  Internal MO  65
  Internal MO  68
  Internal MO  71
  Internal MO  74
OPERATOR  0   PASS   4:  MOs    76 ...   76
  Reading integrals       ... ok
Time spent in pair loops =    84.620 sec
Deleting buffer (Ka|jb)[aa] ...done

-----------------------------------------------
 RI-MP2 CORRELATION ENERGY:     -3.543830178 Eh
-----------------------------------------------


-------
TIMINGS
-------

Total time                :  137.034 sec
Integral trafo            :   51.836 sec ( 37.8%)
I/O of integrals          :    1.149 sec (  0.8%)
K(i,j) Operators          :   57.530 sec ( 42.0%)
T(i,j) pair energies      :    8.009 sec (  5.8%)
V-calculation             :    0.041 sec (  0.0%)
V**(-1/2)                 :    0.377 sec (  0.3%)
Gamma(ia|P)               :    0.000 sec (  0.0%)
Gamma-Trafo               :    0.000 sec (  0.0%)
D(virtual)                :    0.000 sec (  0.0%)
D(internal)               :    0.000 sec (  0.0%)
W(virtual)                :    0.000 sec (  0.0%)
W(internal)               :    0.000 sec (  0.0%)
L(virtual)                :    0.000 sec (  0.0%)
L(internal)               :    0.000 sec (  0.0%)
G(D)                      :    0.000 sec (  0.0%)
G(Z)                      :    0.000 sec (  0.0%)
Z-Vector Solution         :    0.000 sec (  0.0%)
3-Index Derivative        :    0.000 sec (  0.0%)
2-Index Derivative        :    0.000 sec (  0.0%)
Separable Gradient        :    0.000 sec (  0.0%)


---------------------------------------
MP2 TOTAL ENERGY:    -1274.293645790 Eh
---------------------------------------

-------------------------   --------------------
FINAL SINGLE POINT ENERGY     -1274.293645789997
-------------------------   --------------------


                            ***************************************
                            *     ORCA property calculations      *
                            ***************************************


  WARNING: The energy has been calculated at the MP2 level but the densities
           used in the property calculations are still SCF densities
           MP2 response densities have not been calculated 
           use %mp2 Density relaxed end
           or  %mp2 Density unrelaxed end

                                    ---------------------
                                    Active property flags
                                    ---------------------
   (+) Dipole Moment


------------------------------------------------------------------------------
                       ORCA ELECTRIC PROPERTIES CALCULATION
------------------------------------------------------------------------------

Dipole Moment Calculation                       ... on
Quadrupole Moment Calculation                   ... off
Polarizability Calculation                      ... off
GBWName                                         ... G2_CONFS/Conf373.orca.gbw
Electron density file                           ... G2_CONFS/Conf373.orca.scfp
The origin for moment calculation is the CENTER OF MASS  = (32.919893, 31.377878 35.576262)

-------------
DIPOLE MOMENT
-------------
                                X             Y             Z
Electronic contribution:     10.16269       8.18002      12.88711
Nuclear contribution   :    -11.81097      -9.18077     -14.09128
                        -----------------------------------------
Total Dipole Moment    :     -1.64828      -1.00076      -1.20418
                        -----------------------------------------
Magnitude (a.u.)       :      2.27341
Magnitude (Debye)      :      5.77855



--------------------
Rotational spectrum 
--------------------
 
Rotational constants in cm-1:     0.010888     0.008473     0.005748 
Rotational constants in MHz :   326.423783   254.000060   172.316317 

 Dipole components along the rotational axes: 
x,y,z [a.u.] :    -1.913378    -0.972600     0.749287 
x,y,z [Debye]:    -4.863419    -2.472153     1.904536 

 

Timings for individual modules:

Sum of individual times         ...     5588.107 sec (=  93.135 min)
GTO integral calculation        ...        1.334 sec (=   0.022 min)   0.0 %
SCF iterations                  ...     5449.335 sec (=  90.822 min)  97.5 %
MP2 module                      ...      137.438 sec (=   2.291 min)   2.5 %
                             ****ORCA TERMINATED NORMALLY****
TOTAL RUN TIME: 0 days 1 hours 33 minutes 8 seconds 759 msec
