
                                 *****************
                                 * O   R   C   A *
                                 *****************

           --- An Ab Initio, DFT and Semiempirical electronic structure package ---

                  #######################################################
                  #                        -***-                        #
                  #          Department of theory and spectroscopy      #
                  #               Directorship: Frank Neese             #
                  #        Max Planck Institute fuer Kohlenforschung    #
                  #                Kaiser Wilhelm Platz 1               #
                  #                 D-45470 Muelheim/Ruhr               #
                  #                      Germany                        #
                  #                                                     #
                  #                  All rights reserved                #
                  #                        -***-                        #
                  #######################################################


                         Program Version 4.2.0 -  RELEASE  -


 With contributions from (in alphabetic order):
   Daniel Aravena         : Magnetic Suceptibility
   Michael Atanasov       : Ab Initio Ligand Field Theory (pilot matlab implementation)
   Alexander A. Auer      : GIAO ZORA, VPT2
   Ute Becker             : Parallelization
   Giovanni Bistoni       : ED, misc. LED, open-shell LED, HFLED
   Martin Brehm           : Molecular dynamics
   Dmytro Bykov           : SCF Hessian
   Vijay G. Chilkuri      : MRCI spin determinant printing, contributions to CSF-ICE
   Dipayan Datta          : RHF DLPNO-CCSD density
   Achintya Kumar Dutta   : EOM-CC, STEOM-CC
   Dmitry Ganyushin       : Spin-Orbit,Spin-Spin,Magnetic field MRCI
   Miquel Garcia          : C-PCM Hessian, Gaussian charge scheme
   Yang Guo               : DLPNO-NEVPT2, CIM, IAO-localization
   Andreas Hansen         : Spin unrestricted coupled pair/coupled cluster methods
   Benjamin Helmich-Paris : CASSCF linear response (MC-RPA)
   Lee Huntington         : MR-EOM, pCC
   Robert Izsak           : Overlap fitted RIJCOSX, COSX-SCS-MP3, EOM
   Christian Kollmar      : KDIIS, OOCD, Brueckner-CCSD(T), CCSD density
   Simone Kossmann        : Meta GGA functionals, TD-DFT gradient, OOMP2, MP2 Hessian
   Martin Krupicka        : AUTO-CI
   Lucas Lang             : DCDCAS
   Dagmar Lenk            : GEPOL surface, SMD
   Dimitrios Liakos       : Extrapolation schemes; Compound Job, initial MDCI parallelization
   Dimitrios Manganas     : Further ROCIS development; embedding schemes
   Dimitrios Pantazis     : SARC Basis sets
   Taras Petrenko         : DFT Hessian,TD-DFT gradient, ASA, ECA, R-Raman, ABS, FL, XAS/XES, NRVS
   Peter Pinski           : DLPNO-MP2, DLPNO-MP2 Gradient
   Christoph Reimann      : Effective Core Potentials
   Marius Retegan         : Local ZFS, SOC
   Christoph Riplinger    : Optimizer, TS searches, QM/MM, DLPNO-CCSD(T), (RO)-DLPNO pert. Triples
   Tobias Risthaus        : Range-separated hybrids, TD-DFT gradient, RPA, STAB
   Michael Roemelt        : Original ROCIS implementation
   Masaaki Saitow         : Open-shell DLPNO-CCSD energy and density
   Barbara Sandhoefer     : DKH picture change effects
   Avijit Sen             : IP-ROCIS
   Kantharuban Sivalingam : CASSCF convergence, NEVPT2, FIC-MRCI
   Bernardo de Souza      : ESD, SOC TD-DFT
   Georgi Stoychev        : AutoAux, RI-MP2 NMR
   Willem Van den Heuvel  : Paramagnetic NMR
   Boris Wezisla          : Elementary symmetry handling
   Frank Wennmohs         : Technical directorship


 We gratefully acknowledge several colleagues who have allowed us to
 interface, adapt or use parts of their codes:
   Stefan Grimme, W. Hujo, H. Kruse,             : VdW corrections, initial TS optimization,
                  C. Bannwarth                     DFT functionals, gCP, sTDA/sTD-DF
   Ed Valeev, F. Pavosevic, A. Kumar             : LibInt (2-el integral package), F12 methods
   Garnet Chan, S. Sharma, J. Yang, R. Olivares  : DMRG
   Ulf Ekstrom                                   : XCFun DFT Library
   Mihaly Kallay                                 : mrcc  (arbitrary order and MRCC methods)
   Andreas Klamt, Michael Diedenhofen            : otool_cosmo (COSMO solvation model)
   Jiri Pittner, Ondrej Demel                    : Mk-CCSD
   Frank Weinhold                                : gennbo (NPA and NBO analysis)
   Christopher J. Cramer and Donald G. Truhlar   : smd solvation model
   Lars Goerigk                                  : TD-DFT with DH, B97 family of functionals
   V. Asgeirsson, H. Jonsson                     : NEB implementation
   FAccTs GmbH                                   : IRC, NEB, NEB-TS, Multilevel, MM, QM/MM, CI optimization
   S Lehtola, MJT Oliveira, MAL Marques          : LibXC Library


 Your calculation uses the libint2 library for the computation of 2-el integrals
 For citations please refer to: http://libint.valeyev.net

 Your ORCA version has been built with support for libXC version: 4.2.3
 For citations please refer to: https://tddft.org/programs/libxc/

 This ORCA versions uses:
   CBLAS   interface :  Fast vector & matrix operations
   LAPACKE interface :  Fast linear algebra routines
   SCALAPACK package :  Parallel linear algebra routines


----- Orbital basis set information -----
Your calculation utilizes the basis: cc-pVTZ 
       H, B-Ne : Obtained from the ccRepo (grant-hill.group.shef.ac.uk/ccrepo) Feb. 2017
                 T. H. Dunning, Jr., J. Chem. Phys. 90, 1007 (1989)
            He : Obtained from the ccRepo (grant-hill.group.shef.ac.uk/ccrepo) Feb. 2017
                 D. E. Woon, T. H. Dunning, Jr., J. Chem. Phys. 100, 2975 (1994)
  Li-Be, Na-Mg : Obtained from the ccRepo (grant-hill.group.shef.ac.uk/ccrepo) Feb. 2017
                 B. P. Prascher, D. E. Woon, K. A. Peterson, T. H. Dunning, Jr., A. K. Wilson, Theor. Chem. Acc. 128, 69 (2011)
         Al-Ar : Obtained from the ccRepo (grant-hill.group.shef.ac.uk/ccrepo) Feb. 2017
                 D. E. Woon, T. H. Dunning, Jr., J. Chem. Phys. 98, 1358 (1993)
            Ca : Obtained from the Peterson Research Group Website (tyr0.chem.wsu.edu/~kipeters) Feb. 2017
                 J. Koput, K. A. Peterson, J. Phys. Chem. 106, 9595 (2002)
         Sc-Zn : Obtained from the ccRepo (grant-hill.group.shef.ac.uk/ccrepo) Feb. 2017
                 N. B. Balabanov, K. A. Peterson, J. Chem. Phys. 123, 064107 (2005)
                 N. B. Balabanov, K. A. Peterson, J. Chem. Phys. 125, 074110 (2006)
         Ga-Kr : Obtained from the ccRepo (grant-hill.group.shef.ac.uk/ccrepo) Feb. 2017
                 A. K. Wilson, D. E. Woon, K. A. Peterson, T. H. Dunning, Jr., J. Chem. Phys. 110, 7667 (1999)
             Y : Obtained from the ccRepo (grant-hill.group.shef.ac.uk/ccrepo) Feb. 2017
                 K. A. Peterson, D. Figgen, M. Dolg, H. Stoll, J. Chem. Phys. 126, 124101 (2007)
        Ag, Au : Obtained from the Peterson Research Group Website (tyr0.chem.wsu.edu/~kipeters) Feb. 2017
                 K. A. Peterson, C. Puzzarini, Theor. Chem. Acc. 114, 283 (2005)

----- AuxC basis set information -----
Your calculation utilizes the auxiliary basis: cc-pVTZ/C 
  Obtained from the EMSL Basis Set Exchange (bse.pnl.gov) Feb. 2017
  H-He, B-F, Al-Ar, Ga-Kr : F. Weigend, A. Kohn, C. Hattig, J. Chem. Phys. 116, 3175 (2002)
             Li-Be, Na-Mg : C. Haettig, Phys. Chem. Chem. Phys. 7, 59 (2005)
                       Ne : C. Haettig, Phys. Chem. Chem. Phys. 7, 59 (2005)
                            F. Weigend, A. Kohn, C. Hattig, J. Chem. Phys. 116, 3175 (2002)
                    Sc-Zn : J. G. Hill, J. A. Platts, J. Chem. Phys. 128, 044104 (2008)

================================================================================
                                        WARNINGS
                       Please study these warnings very carefully!
================================================================================


WARNING: No MP2 level density has been requested!
         To caclulate MP2 level properties use
         %mp2 Density relaxed end
         or
         %mp2 Density unrelaxed end

WARNING: Post HF methods need fully converged wavefunctions
  ===> : Setting SCFConvForced true
         You can overwrite this default with %scf ConvForced false 


INFO   : the flag for use of LIBINT has been found!

================================================================================
                                       INPUT FILE
================================================================================
NAME = G2_CONFS/Conf9.orca
|  1> ! ri-mp2 cc-pvtz cc-pvtz/c TightSCF NoKeepInts
|  2> 
|  3> %scf
|  4>   MaxCore 4096
|  5> end
|  6> *xyz  0  1
|  7>     C       14.4481816   15.2416878   14.2716772
|  8>     C       15.6960346   14.7870274   15.0470718
|  9>     O       15.9750868   15.7880832   16.0392492
| 10>     C       17.0510709   15.6219010   16.8619439
| 11>     O       17.7697253   14.6377772   16.7819406
| 12>     C       17.2544507   16.6907325   17.9066492
| 13>     C       16.8452940   17.9694917   17.6631153
| 14>     C       15.8255682   18.4800707   16.6620913
| 15>     N       17.4086270   19.0265397   18.3851659
| 16>     C       18.5825208   18.9558352   19.0825885
| 17>     S       19.2851618   20.2947009   19.7526489
| 18>     N       19.1538372   17.7148088   19.1758276
| 19>     C       18.5015497   16.4533072   18.7753779
| 20>     C       18.1247601   15.6592394   20.0217181
| 21>     C       18.4669053   14.2975984   20.1112944
| 22>     C       18.1211481   13.5446679   21.2459325
| 23>     C       17.4225286   14.1572448   22.3001285
| 24>     C       17.0713801   15.5112042   22.2113587
| 25>     O       16.3888056   16.1026670   23.2240808
| 26>     C       17.4168076   16.2582041   21.0806324
| 27>     H       13.5900000   15.3459856   14.9472120
| 28>     H       14.1887419   14.5089327   13.4978300
| 29>     H       14.6260848   16.2081042   13.7839450
| 30>     H       15.5082529   13.8161410   15.5256022
| 31>     H       16.5467916   14.6803825   14.3603593
| 32>     H       14.8694965   17.9541315   16.7778597
| 33>     H       16.1771453   18.3283918   15.6339346
| 34>     H       15.6153081   19.5503288   16.7771097
| 35>     H       17.0147403   19.9501572   18.3043287
| 36>     H       20.0108404   17.6815240   19.7130149
| 37>     H       19.2536134   15.9034286   18.1912653
| 38>     H       18.9939098   13.8186246   19.2890867
| 39>     H       18.3901353   12.4913748   21.3017732
| 40>     H       17.1516716   13.5792700   23.1773590
| 41>     H       16.2680845   15.4385366   23.9190298
| 42>     H       17.1327388   17.3038909   21.0337940
| 43> *
| 44> 
| 45>                          ****END OF INPUT****
================================================================================

                       ****************************
                       * Single Point Calculation *
                       ****************************

---------------------------------
CARTESIAN COORDINATES (ANGSTROEM)
---------------------------------
  C     14.448182   15.241688   14.271677
  C     15.696035   14.787027   15.047072
  O     15.975087   15.788083   16.039249
  C     17.051071   15.621901   16.861944
  O     17.769725   14.637777   16.781941
  C     17.254451   16.690732   17.906649
  C     16.845294   17.969492   17.663115
  C     15.825568   18.480071   16.662091
  N     17.408627   19.026540   18.385166
  C     18.582521   18.955835   19.082588
  S     19.285162   20.294701   19.752649
  N     19.153837   17.714809   19.175828
  C     18.501550   16.453307   18.775378
  C     18.124760   15.659239   20.021718
  C     18.466905   14.297598   20.111294
  C     18.121148   13.544668   21.245932
  C     17.422529   14.157245   22.300128
  C     17.071380   15.511204   22.211359
  O     16.388806   16.102667   23.224081
  C     17.416808   16.258204   21.080632
  H     13.590000   15.345986   14.947212
  H     14.188742   14.508933   13.497830
  H     14.626085   16.208104   13.783945
  H     15.508253   13.816141   15.525602
  H     16.546792   14.680382   14.360359
  H     14.869497   17.954131   16.777860
  H     16.177145   18.328392   15.633935
  H     15.615308   19.550329   16.777110
  H     17.014740   19.950157   18.304329
  H     20.010840   17.681524   19.713015
  H     19.253613   15.903429   18.191265
  H     18.993910   13.818625   19.289087
  H     18.390135   12.491375   21.301773
  H     17.151672   13.579270   23.177359
  H     16.268085   15.438537   23.919030
  H     17.132739   17.303891   21.033794

----------------------------
CARTESIAN COORDINATES (A.U.)
----------------------------
  NO LB      ZA    FRAG     MASS         X           Y           Z
   0 C     6.0000    0    12.011   27.303106   28.802616   26.969561
   1 C     6.0000    0    12.011   29.661207   27.943432   28.434845
   2 O     8.0000    0    15.999   30.188539   29.835153   30.309788
   3 C     6.0000    0    12.011   32.221854   29.521115   31.864456
   4 O     8.0000    0    15.999   33.579914   27.661390   31.713272
   5 C     6.0000    0    12.011   32.606186   31.540913   33.838663
   6 C     6.0000    0    12.011   31.832992   33.957418   33.378451
   7 C     6.0000    0    12.011   29.905990   34.922273   31.486789
   8 N     7.0000    0    14.007   32.897537   35.954949   34.742928
   9 C     6.0000    0    12.011   35.115875   35.821337   36.060866
  10 S    16.0000    0    32.060   36.443674   38.351427   37.327097
  11 N     7.0000    0    14.007   36.195507   33.476137   36.237063
  12 C     6.0000    0    12.011   34.962862   31.092245   35.480322
  13 C     6.0000    0    12.011   34.250833   29.591674   37.835564
  14 C     6.0000    0    12.011   34.897394   27.018545   38.004839
  15 C     6.0000    0    12.011   34.244007   25.595713   40.148994
  16 C     6.0000    0    12.011   32.923808   26.753315   42.141136
  17 C     6.0000    0    12.011   32.260233   29.311928   41.973385
  18 O     8.0000    0    15.999   30.970354   30.429631   43.887152
  19 C     6.0000    0    12.011   32.912996   30.723553   39.836622
  20 H     1.0000    0     1.008   25.681378   28.999710   28.246137
  21 H     1.0000    0     1.008   26.812836   27.417909   25.507202
  22 H     1.0000    0     1.008   27.639295   30.628878   26.047881
  23 H     1.0000    0     1.008   29.306351   26.108723   29.339136
  24 H     1.0000    0     1.008   31.268905   27.741902   27.137146
  25 H     1.0000    0     1.008   28.099276   33.928392   31.705560
  26 H     1.0000    0     1.008   30.570374   34.635641   29.543855
  27 H     1.0000    0     1.008   29.508656   36.944767   31.704143
  28 H     1.0000    0     1.008   32.153199   37.700333   34.590168
  29 H     1.0000    0     1.008   37.815008   33.413238   37.252199
  30 H     1.0000    0     1.008   36.384056   30.053125   34.376509
  31 H     1.0000    0     1.008   35.893288   26.113416   36.451091
  32 H     1.0000    0     1.008   34.752319   23.605277   40.254518
  33 H     1.0000    0     1.008   32.411962   25.661101   43.798861
  34 H     1.0000    0     1.008   30.742224   29.174606   45.200416
  35 H     1.0000    0     1.008   32.376184   32.699615   39.748110

--------------------------------
INTERNAL COORDINATES (ANGSTROEM)
--------------------------------
 C      0   0   0     0.000000000000     0.00000000     0.00000000
 C      1   0   0     1.537884902926     0.00000000     0.00000000
 O      2   1   0     1.436801600121   107.44439440     0.00000000
 C      3   2   1     1.364618949179   118.98654923   180.42621508
 O      4   3   2     1.221214284381   121.50994084   359.21531434
 C      4   3   2     1.508367754325   115.94941003   181.89737002
 C      6   4   3     1.364530343081   120.00115608   330.38038211
 C      7   6   4     1.517425672316   129.38791221    20.63388695
 N      7   6   4     1.398589150592   119.69421685   201.54139975
 C      9   7   6     1.367268833474   124.75564046    17.85076972
 S     10   9   7     1.653858118814   121.97572817   172.05794208
 N     10   9   7     1.369394933602   116.09067151   353.06216578
 C     12  10   9     1.475542351710   124.88197500   349.88043516
 C     13  12  10     1.525082938007   109.42499991   252.37567068
 C     14  13  12     1.406823892421   119.72899652   228.95471185
 C     15  14  13     1.404939855351   120.68209885   180.46499780
 C     16  15  14     1.405222000472   119.64306356     0.20866664
 C     17  16  15     1.401567480820   119.87867149     0.23458242
 O     18  17  16     1.356960664007   119.98840013   179.55294749
 C     18  17  16     1.398524570348   120.35240670   359.76801589
 H      1   2   3     1.097133061973   110.63078990   299.90486190
 H      1   2   3     1.096849344012   110.49583663   180.05910510
 H      1   2   3     1.097038242577   110.67187298    60.16388169
 H      2   1   3     1.098578041053   110.01122736   120.18657432
 H      2   1   3     1.098514754294   109.99381285   239.76727350
 H      8   7   6     1.097309190737   110.77155646    53.30738684
 H      8   7   6     1.097141351743   110.87587027   293.20345127
 H      8   7   6     1.096763849972   112.82976787   173.02673600
 H      9   7   6     1.007348336797   119.60710864   188.94411487
 H     12  10   9     1.011994346823   114.78766272   181.27619104
 H     13  12  10     1.099615302310   105.62524434   133.95300754
 H     15  14  13     1.087738546732   119.72902280   359.71493278
 H     16  15  14     1.088530501202   119.94599428   179.87806663
 H     17  16  15     1.084874063666   119.90025266   179.87590173
 H     19  18  17     0.968812099837   107.41150850     1.86795474
 H     20  18  17     1.084596608211   119.02539637   179.89302058

---------------------------
INTERNAL COORDINATES (A.U.)
---------------------------
 C      0   0   0     0.000000000000     0.00000000     0.00000000
 C      1   0   0     2.906181292021     0.00000000     0.00000000
 O      2   1   0     2.715161533008   107.44439440     0.00000000
 C      3   2   1     2.578756091107   118.98654923   180.42621508
 O      4   3   2     2.307760548313   121.50994084   359.21531434
 C      4   3   2     2.850401964913   115.94941003   181.89737002
 C      6   4   3     2.578588649849   120.00115608   330.38038211
 C      7   6   4     2.867518949258   129.38791221    20.63388695
 N      7   6   4     2.642950468492   119.69421685   201.54139975
 C      9   7   6     2.583763646712   124.75564046    17.85076972
 S     10   9   7     3.125338908920   121.97572817   172.05794208
 N     10   9   7     2.587781393687   116.09067151   353.06216578
 C     12  10   9     2.788370943733   124.88197500   349.88043516
 C     13  12  10     2.881989084350   109.42499991   252.37567068
 C     14  13  12     2.658511875332   119.72899652   228.95471185
 C     15  14  13     2.654951561244   120.68209885   180.46499780
 C     16  15  14     2.655484738253   119.64306356     0.20866664
 C     17  16  15     2.648578696960   119.87867149     0.23458242
 O     18  17  16     2.564284029477   119.98840013   179.55294749
 C     18  17  16     2.642828429518   120.35240670   359.76801589
 H      1   2   3     2.073281019600   110.63078990   299.90486190
 H      1   2   3     2.072744870354   110.49583663   180.05910510
 H      1   2   3     2.073101836908   110.67187298    60.16388169
 H      2   1   3     2.076011634330   110.01122736   120.18657432
 H      2   1   3     2.075892039687   109.99381285   239.76727350
 H      8   7   6     2.073613854728   110.77155646    53.30738684
 H      8   7   6     2.073296684994   110.87587027   293.20345127
 H      8   7   6     2.072583310033   112.82976787   173.02673600
 H      9   7   6     1.903612478007   119.60710864   188.94411487
 H     12  10   9     1.912392164573   114.78766272   181.27619104
 H     13  12  10     2.077971774035   105.62524434   133.95300754
 H     15  14  13     2.055527958632   119.72902280   359.71493278
 H     16  15  14     2.057024535693   119.94599428   179.87806663
 H     17  16  15     2.050114870122   119.90025266   179.87590173
 H     19  18  17     1.830789543921   107.41150850     1.86795474
 H     20  18  17     2.049590555298   119.02539637   179.89302058

---------------------
BASIS SET INFORMATION
---------------------
There are 5 groups of distinct atoms

 Group   1 Type C   : 18s5p2d1f contracted to 4s3p2d1f pattern {8811/311/11/1}
 Group   2 Type O   : 18s5p2d1f contracted to 4s3p2d1f pattern {8811/311/11/1}
 Group   3 Type N   : 18s5p2d1f contracted to 4s3p2d1f pattern {8811/311/11/1}
 Group   4 Type S   : 41s16p2d1f contracted to 5s4p2d1f pattern {13131311/7711/11/1}
 Group   5 Type H   : 5s2p1d contracted to 3s2p1d pattern {311/11/1}

Atom   0C    basis set group =>   1
Atom   1C    basis set group =>   1
Atom   2O    basis set group =>   2
Atom   3C    basis set group =>   1
Atom   4O    basis set group =>   2
Atom   5C    basis set group =>   1
Atom   6C    basis set group =>   1
Atom   7C    basis set group =>   1
Atom   8N    basis set group =>   3
Atom   9C    basis set group =>   1
Atom  10S    basis set group =>   4
Atom  11N    basis set group =>   3
Atom  12C    basis set group =>   1
Atom  13C    basis set group =>   1
Atom  14C    basis set group =>   1
Atom  15C    basis set group =>   1
Atom  16C    basis set group =>   1
Atom  17C    basis set group =>   1
Atom  18O    basis set group =>   2
Atom  19C    basis set group =>   1
Atom  20H    basis set group =>   5
Atom  21H    basis set group =>   5
Atom  22H    basis set group =>   5
Atom  23H    basis set group =>   5
Atom  24H    basis set group =>   5
Atom  25H    basis set group =>   5
Atom  26H    basis set group =>   5
Atom  27H    basis set group =>   5
Atom  28H    basis set group =>   5
Atom  29H    basis set group =>   5
Atom  30H    basis set group =>   5
Atom  31H    basis set group =>   5
Atom  32H    basis set group =>   5
Atom  33H    basis set group =>   5
Atom  34H    basis set group =>   5
Atom  35H    basis set group =>   5
---------------------------------
AUXILIARY/C BASIS SET INFORMATION
---------------------------------
There are 5 groups of distinct atoms

 Group   1 Type C   : 8s6p5d3f1g contracted to 8s6p5d3f1g pattern {11111111/111111/11111/111/1}
 Group   2 Type O   : 8s6p5d3f1g contracted to 8s6p5d3f1g pattern {11111111/111111/11111/111/1}
 Group   3 Type N   : 8s6p5d3f1g contracted to 8s6p5d3f1g pattern {11111111/111111/11111/111/1}
 Group   4 Type S   : 10s8p7d5f2g contracted to 10s8p7d5f2g pattern {1111111111/11111111/1111111/11111/11}
 Group   5 Type H   : 4s3p2d1f contracted to 4s3p2d1f pattern {1111/111/11/1}

Atom   0C    basis set group =>   1
Atom   1C    basis set group =>   1
Atom   2O    basis set group =>   2
Atom   3C    basis set group =>   1
Atom   4O    basis set group =>   2
Atom   5C    basis set group =>   1
Atom   6C    basis set group =>   1
Atom   7C    basis set group =>   1
Atom   8N    basis set group =>   3
Atom   9C    basis set group =>   1
Atom  10S    basis set group =>   4
Atom  11N    basis set group =>   3
Atom  12C    basis set group =>   1
Atom  13C    basis set group =>   1
Atom  14C    basis set group =>   1
Atom  15C    basis set group =>   1
Atom  16C    basis set group =>   1
Atom  17C    basis set group =>   1
Atom  18O    basis set group =>   2
Atom  19C    basis set group =>   1
Atom  20H    basis set group =>   5
Atom  21H    basis set group =>   5
Atom  22H    basis set group =>   5
Atom  23H    basis set group =>   5
Atom  24H    basis set group =>   5
Atom  25H    basis set group =>   5
Atom  26H    basis set group =>   5
Atom  27H    basis set group =>   5
Atom  28H    basis set group =>   5
Atom  29H    basis set group =>   5
Atom  30H    basis set group =>   5
Atom  31H    basis set group =>   5
Atom  32H    basis set group =>   5
Atom  33H    basis set group =>   5
Atom  34H    basis set group =>   5
Atom  35H    basis set group =>   5
------------------------------------------------------------------------------
                           ORCA GTO INTEGRAL CALCULATION
------------------------------------------------------------------------------

                         BASIS SET STATISTICS AND STARTUP INFO

 # of primitive gaussian shells          ...  682
 # of primitive gaussian functions       ... 1312
 # of contracted shells                  ...  298
 # of contracted basis functions         ...  828
 Highest angular momentum                ...    3
 Maximum contraction depth               ...   13
 Integral package used                   ... LIBINT
 Integral threshhold            Thresh   ...  2.500e-11
 Primitive cut-off              TCut     ...  2.500e-12


------------------------------ INTEGRAL EVALUATION ----------------------------


 * One electron integrals 
 Pre-screening matrix                    ... done
 Shell pair data                         ... done (   0.017 sec)

-------------------------------------------------------------------------------
                                 ORCA SCF
-------------------------------------------------------------------------------

------------
SCF SETTINGS
------------
Hamiltonian:
 Ab initio Hamiltonian  Method          .... Hartree-Fock(GTOs)


General Settings:
 Integral files         IntName         .... G2_CONFS/Conf9.orca
 Hartree-Fock type      HFTyp           .... RHF
 Total Charge           Charge          ....    0
 Multiplicity           Mult            ....    1
 Number of Electrons    NEL             ....  154
 Basis Dimension        Dim             ....  828
 Nuclear Repulsion      ENuc            ....   1670.0751989275 Eh

Convergence Acceleration:
 DIIS                   CNVDIIS         .... on
   Start iteration      DIISMaxIt       ....    12
   Startup error        DIISStart       ....  0.200000
   # of expansion vecs  DIISMaxEq       ....     5
   Bias factor          DIISBfac        ....   1.050
   Max. coefficient     DIISMaxC        ....  10.000
 Newton-Raphson         CNVNR           .... off
 SOSCF                  CNVSOSCF        .... on
   Start iteration      SOSCFMaxIt      ....   150
   Startup grad/error   SOSCFStart      ....  0.003300
 Level Shifting         CNVShift        .... on
   Level shift para.    LevelShift      ....    0.2500
   Turn off err/grad.   ShiftErr        ....    0.0010
 Zerner damping         CNVZerner       .... off
 Static damping         CNVDamp         .... on
   Fraction old density DampFac         ....    0.7000
   Max. Damping (<1)    DampMax         ....    0.9800
   Min. Damping (>=0)   DampMin         ....    0.0000
   Turn off err/grad.   DampErr         ....    0.1000
 Fernandez-Rico         CNVRico         .... off

SCF Procedure:
 Maximum # iterations   MaxIter         ....   125
 SCF integral mode      SCFMode         .... Direct
   Integral package                     .... LIBINT
 Reset frequency        DirectResetFreq ....    20
 Integral Threshold     Thresh          ....  2.500e-11 Eh
 Primitive CutOff       TCut            ....  2.500e-12 Eh

Convergence Tolerance:
 Convergence Check Mode ConvCheckMode   .... Total+1el-Energy
 Convergence forced     ConvForced      .... 1
 Energy Change          TolE            ....  1.000e-08 Eh
 1-El. energy change                    ....  1.000e-05 Eh
 Orbital Gradient       TolG            ....  1.000e-05
 Orbital Rotation angle TolX            ....  1.000e-05
 DIIS Error             TolErr          ....  5.000e-07


Diagonalization of the overlap matrix:
Smallest eigenvalue                        ... 3.542e-05
Time for diagonalization                   ...    0.179 sec
Threshold for overlap eigenvalues          ... 1.000e-08
Number of eigenvalues below threshold      ... 0
Time for construction of square roots      ...    0.144 sec
Total time needed                          ...    0.325 sec

-------------------
DFT GRID GENERATION
-------------------

General Integration Accuracy     IntAcc      ...  4.340
Radial Grid Type                 RadialGrid  ... Gauss-Chebyshev
Angular Grid (max. acc.)         AngularGrid ... Lebedev-110
Angular grid pruning method      GridPruning ... 3 (G Style)
Weight generation scheme         WeightScheme... Becke
Basis function cutoff            BFCut       ...    1.0000e-11
Integration weight cutoff        WCut        ...    1.0000e-14
Grids for H and He will be reduced by one unit

# of grid points (after initial pruning)     ...  46246 (   0.0 sec)
# of grid points (after weights+screening)   ...  41553 (   0.5 sec)
nearest neighbour list constructed           ...    0.0 sec
Grid point re-assignment to atoms done       ...    0.0 sec
Grid point division into batches done        ...    0.0 sec
Reduced shell lists constructed in    1.5 sec

Total number of grid points                  ...    41553
Total number of batches                      ...      670
Average number of points per batch           ...       62
Average number of grid points per atom       ...     1154
Average number of shells per batch           ...   140.85 (47.26%)
Average number of basis functions per batch  ...   358.51 (43.30%)
Average number of large shells per batch     ...    90.51 (64.26%)
Average number of large basis fcns per batch ...   234.69 (65.46%)
Maximum spatial batch extension              ...  24.68, 23.40, 21.53 au
Average spatial batch extension              ...   3.74,  3.38,  3.39 au

Time for grid setup =    2.062 sec

------------------------------
INITIAL GUESS: MODEL POTENTIAL
------------------------------
Loading Hartree-Fock densities                     ... done
Calculating cut-offs                               ... done
Setting up the integral package                    ... done
Initializing the effective Hamiltonian             ... done
Starting the Coulomb interaction                   ... done (   4.7 sec)
Reading the grid                                   ... done
Mapping shells                                     ... done
Starting the XC term evaluation                    ... done (   1.4 sec)
Transforming the Hamiltonian                       ... done (   0.1 sec)
Diagonalizing the Hamiltonian                      ... done (   0.2 sec)
Back transforming the eigenvectors                 ... done (   0.0 sec)
Now organizing SCF variables                       ... done
                      ------------------
                      INITIAL GUESS DONE (   9.1 sec)
                      ------------------
--------------
SCF ITERATIONS
--------------
ITER       Energy         Delta-E        Max-DP      RMS-DP      [F,P]     Damp
               ***  Starting incremental Fock matrix formation  ***
  0  -1270.0160676474   0.000000000000 0.04935733  0.00042455  0.3066636 0.7000
  1  -1270.2836723289  -0.267604681421 0.03610861  0.00034162  0.1769750 0.7000
                               ***Turning on DIIS***
  2  -1270.4505848525  -0.166912523633 0.02585641  0.00023094  0.1097241 0.7000
  3  -1272.5810273016  -2.130442449115 0.06318041  0.00050427  0.0829727 0.0000
  4  -1270.7610914865   1.819935815081 0.00708979  0.00009100  0.0070532 0.0000
  5  -1270.8211809209  -0.060089434347 0.00321180  0.00004747  0.0043048 0.0000
                      *** Initiating the SOSCF procedure ***
                           *** Shutting down DIIS ***
                      *** Re-Reading the Fockian *** 
                      *** Removing any level shift *** 
ITER      Energy       Delta-E        Grad      Rot      Max-DP    RMS-DP
  6  -1270.79914608   0.0220348446  0.001746  0.001746  0.001667  0.000024
               *** Restarting incremental Fock matrix formation ***
  7  -1270.81334315  -0.0141970743  0.000663  0.001674  0.001267  0.000014
  8  -1270.81338587  -0.0000427173  0.000425  0.001911  0.001363  0.000015
  9  -1270.81340152  -0.0000156491  0.000160  0.000300  0.000345  0.000004
 10  -1270.81340334  -0.0000018274  0.000038  0.000098  0.000103  0.000001
 11  -1270.81340351  -0.0000001650  0.000018  0.000091  0.000054  0.000001
 12  -1270.81340356  -0.0000000457  0.000007  0.000026  0.000026  0.000000
 13  -1270.81340355   0.0000000004  0.000003  0.000008  0.000005  0.000000
                  ***Gradient check signals convergence***
              ***Rediagonalizing the Fockian in SOSCF/NRSCF***

               *****************************************************
               *                     SUCCESS                       *
               *           SCF CONVERGED AFTER  14 CYCLES          *
               *****************************************************


----------------
TOTAL SCF ENERGY
----------------

Total Energy       :        -1270.81340355 Eh          -34580.59075 eV

Components:
Nuclear Repulsion  :         1670.07519893 Eh           45445.05654 eV
Electronic Energy  :        -2940.88860247 Eh          -80025.64730 eV
One Electron Energy:        -5061.54172936 Eh         -137731.55259 eV
Two Electron Energy:         2120.65312689 Eh           57705.90529 eV

Virial components:
Potential Energy   :        -2539.76666779 Eh          -69110.56454 eV
Kinetic Energy     :         1268.95326425 Eh           34529.97379 eV
Virial Ratio       :            2.00146588


---------------
SCF CONVERGENCE
---------------

  Last Energy change         ...    9.1386e-09  Tolerance :   1.0000e-08
  Last MAX-Density change    ...    1.6730e-06  Tolerance :   1.0000e-07
  Last RMS-Density change    ...    2.6266e-08  Tolerance :   5.0000e-09
  Last Orbital Gradient      ...    1.0440e-06  Tolerance :   1.0000e-05
  Last Orbital Rotation      ...    3.2356e-06  Tolerance :   1.0000e-05

             **** THE GBW FILE WAS UPDATED (G2_CONFS/Conf9.orca.gbw) ****
             **** DENSITY FILE WAS UPDATED (G2_CONFS/Conf9.orca.scfp) ****
             **** ENERGY FILE WAS UPDATED (G2_CONFS/Conf9.orca.en.tmp) ****
             **** THE GBW FILE WAS UPDATED (G2_CONFS/Conf9.orca.gbw) ****
             **** DENSITY FILE WAS UPDATED (G2_CONFS/Conf9.orca.scfp) ****
----------------
ORBITAL ENERGIES
----------------

  NO   OCC          E(Eh)            E(eV) 
   0   2.0000     -91.888686     -2500.4183 
   1   2.0000     -20.605906      -560.7152 
   2   2.0000     -20.590306      -560.2907 
   3   2.0000     -20.543638      -559.0208 
   4   2.0000     -15.629688      -425.3054 
   5   2.0000     -15.605386      -424.6441 
   6   2.0000     -11.395228      -310.0799 
   7   2.0000     -11.382478      -309.7330 
   8   2.0000     -11.342215      -308.6374 
   9   2.0000     -11.306560      -307.6671 
  10   2.0000     -11.304194      -307.6027 
  11   2.0000     -11.300338      -307.4978 
  12   2.0000     -11.262080      -306.4568 
  13   2.0000     -11.261104      -306.4302 
  14   2.0000     -11.252639      -306.1999 
  15   2.0000     -11.246722      -306.0389 
  16   2.0000     -11.236605      -305.7636 
  17   2.0000     -11.235556      -305.7350 
  18   2.0000     -11.231654      -305.6289 
  19   2.0000     -11.228211      -305.5351 
  20   2.0000      -8.893745      -242.0111 
  21   2.0000      -6.575323      -178.9236 
  22   2.0000      -6.573315      -178.8690 
  23   2.0000      -6.572727      -178.8530 
  24   2.0000      -1.456286       -39.6276 
  25   2.0000      -1.409985       -38.3676 
  26   2.0000      -1.356536       -36.9132 
  27   2.0000      -1.341901       -36.5150 
  28   2.0000      -1.238063       -33.6894 
  29   2.0000      -1.151076       -31.3224 
  30   2.0000      -1.120649       -30.4944 
  31   2.0000      -1.045745       -28.4562 
  32   2.0000      -1.036798       -28.2127 
  33   2.0000      -1.008747       -27.4494 
  34   2.0000      -0.998889       -27.1811 
  35   2.0000      -0.983681       -26.7673 
  36   2.0000      -0.921069       -25.0635 
  37   2.0000      -0.888486       -24.1769 
  38   2.0000      -0.848270       -23.0826 
  39   2.0000      -0.834168       -22.6989 
  40   2.0000      -0.826520       -22.4908 
  41   2.0000      -0.815713       -22.1967 
  42   2.0000      -0.763379       -20.7726 
  43   2.0000      -0.734517       -19.9872 
  44   2.0000      -0.723793       -19.6954 
  45   2.0000      -0.691758       -18.8237 
  46   2.0000      -0.684590       -18.6287 
  47   2.0000      -0.682539       -18.5728 
  48   2.0000      -0.675758       -18.3883 
  49   2.0000      -0.657877       -17.9018 
  50   2.0000      -0.651590       -17.7307 
  51   2.0000      -0.641704       -17.4617 
  52   2.0000      -0.633312       -17.2333 
  53   2.0000      -0.602866       -16.4048 
  54   2.0000      -0.598873       -16.2962 
  55   2.0000      -0.594065       -16.1653 
  56   2.0000      -0.592661       -16.1271 
  57   2.0000      -0.583826       -15.8867 
  58   2.0000      -0.572515       -15.5789 
  59   2.0000      -0.564400       -15.3581 
  60   2.0000      -0.562170       -15.2974 
  61   2.0000      -0.554389       -15.0857 
  62   2.0000      -0.543948       -14.8016 
  63   2.0000      -0.520259       -14.1570 
  64   2.0000      -0.514652       -14.0044 
  65   2.0000      -0.511912       -13.9298 
  66   2.0000      -0.505253       -13.7486 
  67   2.0000      -0.493680       -13.4337 
  68   2.0000      -0.479655       -13.0521 
  69   2.0000      -0.465490       -12.6666 
  70   2.0000      -0.458010       -12.4631 
  71   2.0000      -0.453623       -12.3437 
  72   2.0000      -0.357798        -9.7362 
  73   2.0000      -0.342206        -9.3119 
  74   2.0000      -0.327697        -8.9171 
  75   2.0000      -0.317208        -8.6317 
  76   2.0000      -0.312865        -8.5135 
  77   0.0000       0.076182         2.0730 
  78   0.0000       0.114971         3.1285 
  79   0.0000       0.119081         3.2404 
  80   0.0000       0.136357         3.7105 
  81   0.0000       0.138507         3.7690 
  82   0.0000       0.145093         3.9482 
  83   0.0000       0.154693         4.2094 
  84   0.0000       0.164300         4.4708 
  85   0.0000       0.165381         4.5002 
  86   0.0000       0.172258         4.6874 
  87   0.0000       0.176037         4.7902 
  88   0.0000       0.183879         5.0036 
  89   0.0000       0.196677         5.3518 
  90   0.0000       0.201543         5.4843 
  91   0.0000       0.206997         5.6327 
  92   0.0000       0.214723         5.8429 
  93   0.0000       0.216052         5.8791 
  94   0.0000       0.224261         6.1025 
  95   0.0000       0.240979         6.5574 
  96   0.0000       0.245628         6.6839 
  97   0.0000       0.251738         6.8501 
  98   0.0000       0.253771         6.9055 
  99   0.0000       0.267663         7.2835 
 100   0.0000       0.295943         8.0530 
 101   0.0000       0.302810         8.2399 
 102   0.0000       0.312011         8.4903 
 103   0.0000       0.319241         8.6870 
 104   0.0000       0.320439         8.7196 
 105   0.0000       0.326151         8.8750 
 106   0.0000       0.346599         9.4314 
 107   0.0000       0.354887         9.6570 
 108   0.0000       0.356073         9.6892 
 109   0.0000       0.360628         9.8132 
 110   0.0000       0.370966        10.0945 
 111   0.0000       0.375368        10.2143 
 112   0.0000       0.385444        10.4885 
 113   0.0000       0.388555        10.5731 
 114   0.0000       0.396169        10.7803 
 115   0.0000       0.413408        11.2494 
 116   0.0000       0.423562        11.5257 
 117   0.0000       0.426116        11.5952 
 118   0.0000       0.434360        11.8195 
 119   0.0000       0.439575        11.9614 
 120   0.0000       0.442470        12.0402 
 121   0.0000       0.446894        12.1606 
 122   0.0000       0.453429        12.3384 
 123   0.0000       0.462371        12.5818 
 124   0.0000       0.465285        12.6610 
 125   0.0000       0.465990        12.6802 
 126   0.0000       0.468056        12.7365 
 127   0.0000       0.483406        13.1541 
 128   0.0000       0.493311        13.4237 
 129   0.0000       0.498464        13.5639 
 130   0.0000       0.500418        13.6171 
 131   0.0000       0.504925        13.7397 
 132   0.0000       0.516127        14.0445 
 133   0.0000       0.523919        14.2566 
 134   0.0000       0.525963        14.3122 
 135   0.0000       0.529603        14.4112 
 136   0.0000       0.539105        14.6698 
 137   0.0000       0.541404        14.7324 
 138   0.0000       0.543546        14.7906 
 139   0.0000       0.546081        14.8596 
 140   0.0000       0.555958        15.1284 
 141   0.0000       0.562820        15.3151 
 142   0.0000       0.567623        15.4458 
 143   0.0000       0.574309        15.6277 
 144   0.0000       0.576435        15.6856 
 145   0.0000       0.579444        15.7675 
 146   0.0000       0.584129        15.8949 
 147   0.0000       0.585731        15.9386 
 148   0.0000       0.591167        16.0865 
 149   0.0000       0.595583        16.2066 
 150   0.0000       0.599453        16.3119 
 151   0.0000       0.605995        16.4900 
 152   0.0000       0.610059        16.6006 
 153   0.0000       0.614420        16.7192 
 154   0.0000       0.620107        16.8740 
 155   0.0000       0.623224        16.9588 
 156   0.0000       0.625824        17.0295 
 157   0.0000       0.632550        17.2126 
 158   0.0000       0.634513        17.2660 
 159   0.0000       0.638527        17.3752 
 160   0.0000       0.645879        17.5753 
 161   0.0000       0.647836        17.6285 
 162   0.0000       0.652271        17.7492 
 163   0.0000       0.656477        17.8636 
 164   0.0000       0.660778        17.9807 
 165   0.0000       0.662601        18.0303 
 166   0.0000       0.669276        18.2119 
 167   0.0000       0.674190        18.3457 
 168   0.0000       0.685294        18.6478 
 169   0.0000       0.686895        18.6914 
 170   0.0000       0.695972        18.9384 
 171   0.0000       0.700708        19.0672 
 172   0.0000       0.702437        19.1143 
 173   0.0000       0.713843        19.4246 
 174   0.0000       0.724723        19.7207 
 175   0.0000       0.731858        19.9149 
 176   0.0000       0.734290        19.9810 
 177   0.0000       0.738235        20.0884 
 178   0.0000       0.747911        20.3517 
 179   0.0000       0.758600        20.6426 
 180   0.0000       0.763290        20.7702 
 181   0.0000       0.769061        20.9272 
 182   0.0000       0.775743        21.1090 
 183   0.0000       0.787068        21.4172 
 184   0.0000       0.797092        21.6900 
 185   0.0000       0.801898        21.8207 
 186   0.0000       0.813666        22.1410 
 187   0.0000       0.827724        22.5235 
 188   0.0000       0.829013        22.5586 
 189   0.0000       0.836763        22.7695 
 190   0.0000       0.842702        22.9311 
 191   0.0000       0.843692        22.9580 
 192   0.0000       0.850627        23.1467 
 193   0.0000       0.854964        23.2647 
 194   0.0000       0.869908        23.6714 
 195   0.0000       0.876582        23.8530 
 196   0.0000       0.884716        24.0743 
 197   0.0000       0.886054        24.1108 
 198   0.0000       0.893021        24.3003 
 199   0.0000       0.896499        24.3950 
 200   0.0000       0.910467        24.7751 
 201   0.0000       0.916616        24.9424 
 202   0.0000       0.926556        25.2129 
 203   0.0000       0.930389        25.3172 
 204   0.0000       0.936970        25.4963 
 205   0.0000       0.939547        25.5664 
 206   0.0000       0.943251        25.6672 
 207   0.0000       0.953074        25.9345 
 208   0.0000       0.964597        26.2480 
 209   0.0000       0.967368        26.3234 
 210   0.0000       0.979868        26.6636 
 211   0.0000       0.989099        26.9147 
 212   0.0000       0.992993        27.0207 
 213   0.0000       1.001588        27.2546 
 214   0.0000       1.005742        27.3676 
 215   0.0000       1.014626        27.6094 
 216   0.0000       1.021467        27.7955 
 217   0.0000       1.033449        28.1216 
 218   0.0000       1.037723        28.2379 
 219   0.0000       1.046074        28.4651 
 220   0.0000       1.053465        28.6663 
 221   0.0000       1.061613        28.8880 
 222   0.0000       1.066414        29.0186 
 223   0.0000       1.070981        29.1429 
 224   0.0000       1.077355        29.3163 
 225   0.0000       1.085255        29.5313 
 226   0.0000       1.094314        29.7778 
 227   0.0000       1.105645        30.0861 
 228   0.0000       1.111923        30.2570 
 229   0.0000       1.117204        30.4007 
 230   0.0000       1.127597        30.6835 
 231   0.0000       1.132386        30.8138 
 232   0.0000       1.134002        30.8578 
 233   0.0000       1.138787        30.9880 
 234   0.0000       1.148461        31.2512 
 235   0.0000       1.161606        31.6089 
 236   0.0000       1.171441        31.8765 
 237   0.0000       1.173840        31.9418 
 238   0.0000       1.175255        31.9803 
 239   0.0000       1.179780        32.1035 
 240   0.0000       1.185008        32.2457 
 241   0.0000       1.192883        32.4600 
 242   0.0000       1.202641        32.7255 
 243   0.0000       1.203423        32.7468 
 244   0.0000       1.212828        33.0027 
 245   0.0000       1.217596        33.1325 
 246   0.0000       1.223315        33.2881 
 247   0.0000       1.238880        33.7116 
 248   0.0000       1.247667        33.9508 
 249   0.0000       1.250245        34.0209 
 250   0.0000       1.266381        34.4600 
 251   0.0000       1.269619        34.5481 
 252   0.0000       1.275024        34.6952 
 253   0.0000       1.282998        34.9122 
 254   0.0000       1.290113        35.1058 
 255   0.0000       1.291710        35.1492 
 256   0.0000       1.294780        35.2328 
 257   0.0000       1.302470        35.4420 
 258   0.0000       1.318537        35.8792 
 259   0.0000       1.325152        36.0592 
 260   0.0000       1.329640        36.1813 
 261   0.0000       1.339960        36.4622 
 262   0.0000       1.345971        36.6257 
 263   0.0000       1.355624        36.8884 
 264   0.0000       1.371183        37.3118 
 265   0.0000       1.375207        37.4213 
 266   0.0000       1.381225        37.5850 
 267   0.0000       1.391189        37.8562 
 268   0.0000       1.401678        38.1416 
 269   0.0000       1.404662        38.2228 
 270   0.0000       1.415169        38.5087 
 271   0.0000       1.425662        38.7942 
 272   0.0000       1.429878        38.9090 
 273   0.0000       1.439476        39.1701 
 274   0.0000       1.444111        39.2963 
 275   0.0000       1.455148        39.5966 
 276   0.0000       1.466406        39.9029 
 277   0.0000       1.468131        39.9499 
 278   0.0000       1.475687        40.1555 
 279   0.0000       1.478653        40.2362 
 280   0.0000       1.489771        40.5387 
 281   0.0000       1.499237        40.7963 
 282   0.0000       1.506121        40.9836 
 283   0.0000       1.513366        41.1808 
 284   0.0000       1.513991        41.1978 
 285   0.0000       1.526726        41.5443 
 286   0.0000       1.530315        41.6420 
 287   0.0000       1.541666        41.9509 
 288   0.0000       1.544877        42.0382 
 289   0.0000       1.554682        42.3050 
 290   0.0000       1.562842        42.5271 
 291   0.0000       1.570718        42.7414 
 292   0.0000       1.577866        42.9359 
 293   0.0000       1.582285        43.0562 
 294   0.0000       1.594718        43.3945 
 295   0.0000       1.601515        43.5794 
 296   0.0000       1.604612        43.6637 
 297   0.0000       1.612445        43.8768 
 298   0.0000       1.615307        43.9548 
 299   0.0000       1.625250        44.2253 
 300   0.0000       1.637127        44.5485 
 301   0.0000       1.639279        44.6070 
 302   0.0000       1.645315        44.7713 
 303   0.0000       1.650691        44.9176 
 304   0.0000       1.658110        45.1195 
 305   0.0000       1.665982        45.3337 
 306   0.0000       1.673867        45.5482 
 307   0.0000       1.686059        45.8800 
 308   0.0000       1.690702        46.0063 
 309   0.0000       1.694857        46.1194 
 310   0.0000       1.704023        46.3688 
 311   0.0000       1.714968        46.6666 
 312   0.0000       1.719251        46.7832 
 313   0.0000       1.736778        47.2601 
 314   0.0000       1.740019        47.3483 
 315   0.0000       1.755375        47.7662 
 316   0.0000       1.758485        47.8508 
 317   0.0000       1.768329        48.1187 
 318   0.0000       1.784354        48.5547 
 319   0.0000       1.788242        48.6605 
 320   0.0000       1.801022        49.0083 
 321   0.0000       1.819961        49.5237 
 322   0.0000       1.833038        49.8795 
 323   0.0000       1.844481        50.1909 
 324   0.0000       1.850198        50.3465 
 325   0.0000       1.874554        51.0092 
 326   0.0000       1.885332        51.3025 
 327   0.0000       1.903454        51.7956 
 328   0.0000       1.905201        51.8432 
 329   0.0000       1.913296        52.0634 
 330   0.0000       1.922757        52.3209 
 331   0.0000       1.929482        52.5039 
 332   0.0000       1.945863        52.9496 
 333   0.0000       1.947840        53.0034 
 334   0.0000       1.955167        53.2028 
 335   0.0000       1.963692        53.4348 
 336   0.0000       1.975264        53.7497 
 337   0.0000       2.002107        54.4801 
 338   0.0000       2.013264        54.7837 
 339   0.0000       2.020629        54.9841 
 340   0.0000       2.029260        55.2190 
 341   0.0000       2.034366        55.3579 
 342   0.0000       2.042989        55.5926 
 343   0.0000       2.058248        56.0078 
 344   0.0000       2.084761        56.7292 
 345   0.0000       2.120372        57.6983 
 346   0.0000       2.126172        57.8561 
 347   0.0000       2.137100        58.1535 
 348   0.0000       2.157856        58.7183 
 349   0.0000       2.171210        59.0816 
 350   0.0000       2.177811        59.2612 
 351   0.0000       2.191955        59.6461 
 352   0.0000       2.204620        59.9907 
 353   0.0000       2.218268        60.3622 
 354   0.0000       2.238443        60.9111 
 355   0.0000       2.250545        61.2404 
 356   0.0000       2.261946        61.5507 
 357   0.0000       2.282219        62.1023 
 358   0.0000       2.289880        62.3108 
 359   0.0000       2.307167        62.7812 
 360   0.0000       2.314321        62.9759 
 361   0.0000       2.326912        63.3185 
 362   0.0000       2.338643        63.6377 
 363   0.0000       2.346166        63.8424 
 364   0.0000       2.359221        64.1977 
 365   0.0000       2.374734        64.6198 
 366   0.0000       2.379911        64.7607 
 367   0.0000       2.402024        65.3624 
 368   0.0000       2.402404        65.3727 
 369   0.0000       2.420501        65.8652 
 370   0.0000       2.431810        66.1729 
 371   0.0000       2.444755        66.5252 
 372   0.0000       2.458869        66.9092 
 373   0.0000       2.472314        67.2751 
 374   0.0000       2.483946        67.5916 
 375   0.0000       2.494509        67.8790 
 376   0.0000       2.506927        68.2170 
 377   0.0000       2.511833        68.3505 
 378   0.0000       2.527684        68.7818 
 379   0.0000       2.534357        68.9634 
 380   0.0000       2.542640        69.1888 
 381   0.0000       2.566295        69.8324 
 382   0.0000       2.583980        70.3137 
 383   0.0000       2.586904        70.3932 
 384   0.0000       2.598805        70.7171 
 385   0.0000       2.608110        70.9703 
 386   0.0000       2.622666        71.3664 
 387   0.0000       2.638276        71.7911 
 388   0.0000       2.650404        72.1212 
 389   0.0000       2.663739        72.4840 
 390   0.0000       2.669992        72.6542 
 391   0.0000       2.674140        72.7670 
 392   0.0000       2.688170        73.1488 
 393   0.0000       2.701274        73.5054 
 394   0.0000       2.715296        73.8870 
 395   0.0000       2.729161        74.2642 
 396   0.0000       2.730845        74.3101 
 397   0.0000       2.738833        74.5274 
 398   0.0000       2.746228        74.7287 
 399   0.0000       2.754014        74.9405 
 400   0.0000       2.764642        75.2297 
 401   0.0000       2.773586        75.4731 
 402   0.0000       2.786099        75.8136 
 403   0.0000       2.791046        75.9482 
 404   0.0000       2.814176        76.5776 
 405   0.0000       2.823023        76.8184 
 406   0.0000       2.830419        77.0196 
 407   0.0000       2.840125        77.2837 
 408   0.0000       2.845675        77.4348 
 409   0.0000       2.852878        77.6308 
 410   0.0000       2.859922        77.8224 
 411   0.0000       2.869465        78.0821 
 412   0.0000       2.876653        78.2777 
 413   0.0000       2.891132        78.6717 
 414   0.0000       2.900067        78.9148 
 415   0.0000       2.918068        79.4047 
 416   0.0000       2.929820        79.7244 
 417   0.0000       2.935183        79.8704 
 418   0.0000       2.950384        80.2840 
 419   0.0000       2.952285        80.3358 
 420   0.0000       2.957811        80.4861 
 421   0.0000       2.971473        80.8579 
 422   0.0000       2.973988        80.9263 
 423   0.0000       2.981945        81.1429 
 424   0.0000       3.001845        81.6843 
 425   0.0000       3.003846        81.7388 
 426   0.0000       3.018736        82.1440 
 427   0.0000       3.032438        82.5168 
 428   0.0000       3.037996        82.6681 
 429   0.0000       3.040200        82.7280 
 430   0.0000       3.049693        82.9864 
 431   0.0000       3.056993        83.1850 
 432   0.0000       3.065173        83.4076 
 433   0.0000       3.072302        83.6016 
 434   0.0000       3.081026        83.8390 
 435   0.0000       3.086872        83.9981 
 436   0.0000       3.089584        84.0719 
 437   0.0000       3.094320        84.2007 
 438   0.0000       3.103333        84.4460 
 439   0.0000       3.105283        84.4990 
 440   0.0000       3.107695        84.5647 
 441   0.0000       3.120799        84.9213 
 442   0.0000       3.126698        85.0818 
 443   0.0000       3.134355        85.2901 
 444   0.0000       3.143385        85.5359 
 445   0.0000       3.152910        85.7951 
 446   0.0000       3.159916        85.9857 
 447   0.0000       3.166840        86.1741 
 448   0.0000       3.167946        86.2042 
 449   0.0000       3.175740        86.4163 
 450   0.0000       3.193083        86.8882 
 451   0.0000       3.208581        87.3099 
 452   0.0000       3.209683        87.3399 
 453   0.0000       3.216624        87.5288 
 454   0.0000       3.218244        87.5729 
 455   0.0000       3.224260        87.7366 
 456   0.0000       3.238983        88.1372 
 457   0.0000       3.245495        88.3144 
 458   0.0000       3.256190        88.6054 
 459   0.0000       3.264543        88.8327 
 460   0.0000       3.265068        88.8470 
 461   0.0000       3.266324        88.8812 
 462   0.0000       3.275271        89.1247 
 463   0.0000       3.280598        89.2696 
 464   0.0000       3.285884        89.4135 
 465   0.0000       3.306239        89.9673 
 466   0.0000       3.309230        90.0487 
 467   0.0000       3.314224        90.1846 
 468   0.0000       3.324928        90.4759 
 469   0.0000       3.331789        90.6626 
 470   0.0000       3.337221        90.8104 
 471   0.0000       3.345674        91.0404 
 472   0.0000       3.349315        91.1395 
 473   0.0000       3.353905        91.2644 
 474   0.0000       3.357281        91.3563 
 475   0.0000       3.364144        91.5430 
 476   0.0000       3.374160        91.8156 
 477   0.0000       3.382612        92.0456 
 478   0.0000       3.386284        92.1455 
 479   0.0000       3.390557        92.2618 
 480   0.0000       3.395243        92.3893 
 481   0.0000       3.397397        92.4479 
 482   0.0000       3.404420        92.6390 
 483   0.0000       3.411402        92.8290 
 484   0.0000       3.417152        92.9854 
 485   0.0000       3.418380        93.0189 
 486   0.0000       3.420196        93.0683 
 487   0.0000       3.424740        93.1919 
 488   0.0000       3.435680        93.4896 
 489   0.0000       3.436854        93.5216 
 490   0.0000       3.445707        93.7625 
 491   0.0000       3.449852        93.8753 
 492   0.0000       3.456961        94.0687 
 493   0.0000       3.462242        94.2124 
 494   0.0000       3.463458        94.2455 
 495   0.0000       3.474648        94.5500 
 496   0.0000       3.489265        94.9477 
 497   0.0000       3.490915        94.9926 
 498   0.0000       3.494131        95.0801 
 499   0.0000       3.501030        95.2679 
 500   0.0000       3.507654        95.4481 
 501   0.0000       3.519767        95.7777 
 502   0.0000       3.525895        95.9445 
 503   0.0000       3.529850        96.0521 
 504   0.0000       3.539537        96.3157 
 505   0.0000       3.554607        96.7258 
 506   0.0000       3.555924        96.7616 
 507   0.0000       3.563257        96.9612 
 508   0.0000       3.571896        97.1962 
 509   0.0000       3.590287        97.6967 
 510   0.0000       3.596128        97.8556 
 511   0.0000       3.605104        98.0999 
 512   0.0000       3.612496        98.3010 
 513   0.0000       3.614103        98.3447 
 514   0.0000       3.621115        98.5355 
 515   0.0000       3.624604        98.6305 
 516   0.0000       3.627931        98.7210 
 517   0.0000       3.632472        98.8446 
 518   0.0000       3.637138        98.9715 
 519   0.0000       3.646202        99.2182 
 520   0.0000       3.650358        99.3313 
 521   0.0000       3.657286        99.5198 
 522   0.0000       3.662821        99.6704 
 523   0.0000       3.666241        99.7635 
 524   0.0000       3.671523        99.9072 
 525   0.0000       3.678258       100.0905 
 526   0.0000       3.682254       100.1992 
 527   0.0000       3.691624       100.4542 
 528   0.0000       3.699697       100.6739 
 529   0.0000       3.703696       100.7827 
 530   0.0000       3.712064       101.0104 
 531   0.0000       3.718597       101.1882 
 532   0.0000       3.727644       101.4344 
 533   0.0000       3.737516       101.7030 
 534   0.0000       3.738486       101.7294 
 535   0.0000       3.753672       102.1426 
 536   0.0000       3.758963       102.2866 
 537   0.0000       3.763744       102.4167 
 538   0.0000       3.765055       102.4524 
 539   0.0000       3.767248       102.5120 
 540   0.0000       3.779187       102.8369 
 541   0.0000       3.786680       103.0408 
 542   0.0000       3.795611       103.2838 
 543   0.0000       3.797664       103.3397 
 544   0.0000       3.807867       103.6173 
 545   0.0000       3.813147       103.7610 
 546   0.0000       3.817472       103.8787 
 547   0.0000       3.820995       103.9746 
 548   0.0000       3.828116       104.1683 
 549   0.0000       3.842882       104.5701 
 550   0.0000       3.845189       104.6329 
 551   0.0000       3.854222       104.8787 
 552   0.0000       3.859639       105.0261 
 553   0.0000       3.872343       105.3718 
 554   0.0000       3.875844       105.4671 
 555   0.0000       3.898760       106.0907 
 556   0.0000       3.911859       106.4471 
 557   0.0000       3.919421       106.6529 
 558   0.0000       3.921968       106.7222 
 559   0.0000       3.924232       106.7838 
 560   0.0000       3.936879       107.1279 
 561   0.0000       3.942398       107.2781 
 562   0.0000       3.952893       107.5637 
 563   0.0000       3.971160       108.0607 
 564   0.0000       3.975246       108.1719 
 565   0.0000       3.976213       108.1983 
 566   0.0000       3.987098       108.4945 
 567   0.0000       3.997691       108.7827 
 568   0.0000       4.005941       109.0072 
 569   0.0000       4.007888       109.0602 
 570   0.0000       4.023006       109.4716 
 571   0.0000       4.028892       109.6317 
 572   0.0000       4.038370       109.8896 
 573   0.0000       4.056264       110.3766 
 574   0.0000       4.059331       110.4600 
 575   0.0000       4.074972       110.8856 
 576   0.0000       4.083035       111.1050 
 577   0.0000       4.088395       111.2509 
 578   0.0000       4.098725       111.5320 
 579   0.0000       4.104075       111.6776 
 580   0.0000       4.115470       111.9876 
 581   0.0000       4.118900       112.0810 
 582   0.0000       4.125494       112.2604 
 583   0.0000       4.131681       112.4287 
 584   0.0000       4.136883       112.5703 
 585   0.0000       4.144747       112.7843 
 586   0.0000       4.148701       112.8919 
 587   0.0000       4.157721       113.1373 
 588   0.0000       4.161870       113.2503 
 589   0.0000       4.166691       113.3814 
 590   0.0000       4.180350       113.7531 
 591   0.0000       4.184022       113.8530 
 592   0.0000       4.190338       114.0249 
 593   0.0000       4.193334       114.1064 
 594   0.0000       4.200992       114.3148 
 595   0.0000       4.204534       114.4112 
 596   0.0000       4.219163       114.8093 
 597   0.0000       4.227238       115.0290 
 598   0.0000       4.236069       115.2693 
 599   0.0000       4.238278       115.3294 
 600   0.0000       4.255138       115.7882 
 601   0.0000       4.258183       115.8711 
 602   0.0000       4.262163       115.9794 
 603   0.0000       4.279290       116.4454 
 604   0.0000       4.285137       116.6045 
 605   0.0000       4.300115       117.0121 
 606   0.0000       4.306077       117.1743 
 607   0.0000       4.308454       117.2390 
 608   0.0000       4.320007       117.5534 
 609   0.0000       4.324503       117.6757 
 610   0.0000       4.328591       117.7869 
 611   0.0000       4.335330       117.9703 
 612   0.0000       4.346450       118.2729 
 613   0.0000       4.351296       118.4048 
 614   0.0000       4.359528       118.6288 
 615   0.0000       4.368139       118.8631 
 616   0.0000       4.370901       118.9383 
 617   0.0000       4.377739       119.1243 
 618   0.0000       4.387027       119.3771 
 619   0.0000       4.389268       119.4381 
 620   0.0000       4.396875       119.6450 
 621   0.0000       4.415295       120.1463 
 622   0.0000       4.428809       120.5140 
 623   0.0000       4.429897       120.5436 
 624   0.0000       4.436138       120.7134 
 625   0.0000       4.442760       120.8936 
 626   0.0000       4.453801       121.1941 
 627   0.0000       4.458716       121.3278 
 628   0.0000       4.462751       121.4376 
 629   0.0000       4.478678       121.8710 
 630   0.0000       4.492623       122.2505 
 631   0.0000       4.502029       122.5064 
 632   0.0000       4.509955       122.7221 
 633   0.0000       4.522319       123.0586 
 634   0.0000       4.532848       123.3451 
 635   0.0000       4.548305       123.7657 
 636   0.0000       4.550469       123.8246 
 637   0.0000       4.557612       124.0189 
 638   0.0000       4.562877       124.1622 
 639   0.0000       4.575702       124.5112 
 640   0.0000       4.583029       124.7106 
 641   0.0000       4.588434       124.8576 
 642   0.0000       4.599235       125.1515 
 643   0.0000       4.612325       125.5077 
 644   0.0000       4.619820       125.7117 
 645   0.0000       4.621065       125.7456 
 646   0.0000       4.632019       126.0437 
 647   0.0000       4.635610       126.1414 
 648   0.0000       4.643098       126.3451 
 649   0.0000       4.647682       126.4699 
 650   0.0000       4.656119       126.6994 
 651   0.0000       4.662157       126.8637 
 652   0.0000       4.668566       127.0381 
 653   0.0000       4.686934       127.5380 
 654   0.0000       4.692239       127.6823 
 655   0.0000       4.698339       127.8483 
 656   0.0000       4.699700       127.8853 
 657   0.0000       4.713367       128.2572 
 658   0.0000       4.722997       128.5193 
 659   0.0000       4.730715       128.7293 
 660   0.0000       4.744484       129.1040 
 661   0.0000       4.761591       129.5695 
 662   0.0000       4.771511       129.8394 
 663   0.0000       4.774425       129.9187 
 664   0.0000       4.800442       130.6267 
 665   0.0000       4.812335       130.9503 
 666   0.0000       4.841695       131.7492 
 667   0.0000       4.854342       132.0934 
 668   0.0000       4.878611       132.7538 
 669   0.0000       4.889167       133.0410 
 670   0.0000       4.894946       133.1982 
 671   0.0000       4.902494       133.4036 
 672   0.0000       4.932109       134.2095 
 673   0.0000       4.967352       135.1685 
 674   0.0000       4.969088       135.2158 
 675   0.0000       4.989639       135.7750 
 676   0.0000       5.012978       136.4101 
 677   0.0000       5.018987       136.5736 
 678   0.0000       5.031575       136.9161 
 679   0.0000       5.045471       137.2942 
 680   0.0000       5.051680       137.4632 
 681   0.0000       5.058252       137.6420 
 682   0.0000       5.068540       137.9220 
 683   0.0000       5.084823       138.3651 
 684   0.0000       5.097406       138.7075 
 685   0.0000       5.106160       138.9457 
 686   0.0000       5.120526       139.3366 
 687   0.0000       5.135945       139.7562 
 688   0.0000       5.140906       139.8912 
 689   0.0000       5.145273       140.0100 
 690   0.0000       5.157359       140.3389 
 691   0.0000       5.164536       140.5342 
 692   0.0000       5.175765       140.8397 
 693   0.0000       5.196256       141.3973 
 694   0.0000       5.199969       141.4984 
 695   0.0000       5.212833       141.8484 
 696   0.0000       5.215654       141.9252 
 697   0.0000       5.226086       142.2090 
 698   0.0000       5.233330       142.4061 
 699   0.0000       5.242967       142.6684 
 700   0.0000       5.271689       143.4500 
 701   0.0000       5.277424       143.6060 
 702   0.0000       5.286595       143.8556 
 703   0.0000       5.307514       144.4248 
 704   0.0000       5.310537       144.5071 
 705   0.0000       5.317630       144.7001 
 706   0.0000       5.340553       145.3238 
 707   0.0000       5.348396       145.5372 
 708   0.0000       5.355765       145.7378 
 709   0.0000       5.377565       146.3310 
 710   0.0000       5.399147       146.9183 
 711   0.0000       5.425923       147.6469 
 712   0.0000       5.432397       147.8230 
 713   0.0000       5.458285       148.5275 
 714   0.0000       5.470080       148.8484 
 715   0.0000       5.488911       149.3609 
 716   0.0000       5.498296       149.6162 
 717   0.0000       5.509113       149.9106 
 718   0.0000       5.513823       150.0387 
 719   0.0000       5.522880       150.2852 
 720   0.0000       5.528864       150.4481 
 721   0.0000       5.531847       150.5292 
 722   0.0000       5.553858       151.1282 
 723   0.0000       5.569455       151.5526 
 724   0.0000       5.576221       151.7367 
 725   0.0000       5.600131       152.3873 
 726   0.0000       5.605710       152.5391 
 727   0.0000       5.622848       153.0055 
 728   0.0000       5.640280       153.4798 
 729   0.0000       5.646290       153.6434 
 730   0.0000       5.653361       153.8358 
 731   0.0000       5.664174       154.1300 
 732   0.0000       5.670821       154.3109 
 733   0.0000       5.676235       154.4582 
 734   0.0000       5.700501       155.1185 
 735   0.0000       5.710145       155.3809 
 736   0.0000       5.719531       155.6364 
 737   0.0000       5.728339       155.8760 
 738   0.0000       5.745721       156.3490 
 739   0.0000       5.753867       156.5707 
 740   0.0000       5.761535       156.7793 
 741   0.0000       5.778557       157.2425 
 742   0.0000       5.805291       157.9700 
 743   0.0000       5.824017       158.4796 
 744   0.0000       5.836531       158.8201 
 745   0.0000       5.847854       159.1282 
 746   0.0000       5.858131       159.4078 
 747   0.0000       5.876847       159.9171 
 748   0.0000       5.895278       160.4187 
 749   0.0000       5.933305       161.4534 
 750   0.0000       5.945450       161.7839 
 751   0.0000       5.966914       162.3680 
 752   0.0000       5.980081       162.7263 
 753   0.0000       5.988987       162.9686 
 754   0.0000       6.002316       163.3313 
 755   0.0000       6.018707       163.7774 
 756   0.0000       6.052790       164.7048 
 757   0.0000       6.056919       164.8172 
 758   0.0000       6.089070       165.6920 
 759   0.0000       6.100099       165.9921 
 760   0.0000       6.105731       166.1454 
 761   0.0000       6.154453       167.4712 
 762   0.0000       6.176283       168.0652 
 763   0.0000       6.220919       169.2798 
 764   0.0000       6.233255       169.6155 
 765   0.0000       6.256092       170.2369 
 766   0.0000       6.268599       170.5772 
 767   0.0000       6.321045       172.0044 
 768   0.0000       6.355547       172.9432 
 769   0.0000       6.359015       173.0376 
 770   0.0000       6.373146       173.4221 
 771   0.0000       6.382875       173.6868 
 772   0.0000       6.410312       174.4335 
 773   0.0000       6.446329       175.4135 
 774   0.0000       6.461322       175.8215 
 775   0.0000       6.485080       176.4680 
 776   0.0000       6.492044       176.6575 
 777   0.0000       6.513021       177.2283 
 778   0.0000       6.562469       178.5739 
 779   0.0000       6.575923       178.9400 
 780   0.0000       6.668686       181.4642 
 781   0.0000       6.671985       181.5539 
 782   0.0000       6.689659       182.0349 
 783   0.0000       6.723405       182.9532 
 784   0.0000       6.761265       183.9834 
 785   0.0000       6.883954       187.3219 
 786   0.0000       6.912413       188.0963 
 787   0.0000       6.924491       188.4250 
 788   0.0000       6.929599       188.5640 
 789   0.0000       7.031494       191.3367 
 790   0.0000       7.055231       191.9826 
 791   0.0000       7.059941       192.1108 
 792   0.0000       7.088229       192.8805 
 793   0.0000       7.094880       193.0615 
 794   0.0000       7.243784       197.1134 
 795   0.0000       7.265553       197.7058 
 796   0.0000       7.269240       197.8061 
 797   0.0000       7.287192       198.2946 
 798   0.0000       7.347354       199.9317 
 799   0.0000       7.359682       200.2671 
 800   0.0000       7.425620       202.0614 
 801   0.0000       7.476869       203.4559 
 802   0.0000       7.585789       206.4198 
 803   0.0000       7.589641       206.5246 
 804   0.0000       7.669178       208.6889 
 805   0.0000       7.823723       212.8943 
 806   0.0000       7.853628       213.7081 
 807   0.0000       7.940901       216.0829 
 808   0.0000       7.948895       216.3004 
 809   0.0000       9.384817       255.3738 
 810   0.0000       9.566952       260.3300 
 811   0.0000      10.692286       290.9519 
 812   0.0000      11.011472       299.6374 
 813   0.0000      11.914820       324.2187 
 814   0.0000      12.598424       342.8205 
 815   0.0000      12.937109       352.0366 
 816   0.0000      13.029920       354.5621 
 817   0.0000      13.090959       356.2231 
 818   0.0000      13.275278       361.2387 
 819   0.0000      13.432230       365.5096 
 820   0.0000      13.487451       367.0122 
 821   0.0000      13.715001       373.2042 
 822   0.0000      13.878008       377.6398 
 823   0.0000      13.940176       379.3315 
 824   0.0000      13.965691       380.0258 
 825   0.0000      14.402294       391.9064 
 826   0.0000      14.560193       396.2030 
 827   0.0000      15.939168       433.7268 

                    ********************************
                    * MULLIKEN POPULATION ANALYSIS *
                    ********************************

-----------------------
MULLIKEN ATOMIC CHARGES
-----------------------
   0 C :   -0.273056
   1 C :    0.043109
   2 O :   -0.332007
   3 C :    0.404236
   4 O :   -0.431111
   5 C :   -0.140961
   6 C :    0.155052
   7 C :   -0.282402
   8 N :   -0.126136
   9 C :    0.188661
  10 S :   -0.437618
  11 N :   -0.201758
  12 C :    0.031942
  13 C :    0.059253
  14 C :   -0.195164
  15 C :   -0.128415
  16 C :   -0.280977
  17 C :    0.307620
  18 O :   -0.357809
  19 C :   -0.253254
  20 H :    0.097257
  21 H :    0.102356
  22 H :    0.092390
  23 H :    0.097775
  24 H :    0.092545
  25 H :    0.132232
  26 H :    0.124596
  27 H :    0.105210
  28 H :    0.199320
  29 H :    0.194181
  30 H :    0.162088
  31 H :    0.160316
  32 H :    0.159349
  33 H :    0.127425
  34 H :    0.239753
  35 H :    0.164004
Sum of atomic charges:   -0.0000000

--------------------------------
MULLIKEN REDUCED ORBITAL CHARGES
--------------------------------
  0 C s       :     3.257764  s :     3.257764
      pz      :     0.988840  p :     2.937478
      px      :     0.942439
      py      :     1.006199
      dz2     :     0.004164  d :     0.073350
      dxz     :     0.019365
      dyz     :     0.020609
      dx2y2   :     0.023268
      dxy     :     0.005944
      f0      :     0.000288  f :     0.004464
      f+1     :     0.000535
      f-1     :     0.000211
      f+2     :     0.001918
      f-2     :     0.000778
      f+3     :     0.000387
      f-3     :     0.000347
  1 C s       :     3.174696  s :     3.174696
      pz      :     0.815973  p :     2.622606
      px      :     0.965555
      py      :     0.841078
      dz2     :     0.023789  d :     0.147926
      dxz     :     0.034914
      dyz     :     0.036396
      dx2y2   :     0.032824
      dxy     :     0.020003
      f0      :     0.001342  f :     0.011664
      f+1     :     0.000994
      f-1     :     0.002211
      f+2     :     0.002929
      f-2     :     0.002161
      f+3     :     0.001048
      f-3     :     0.000978
  2 O s       :     3.706902  s :     3.706902
      pz      :     1.454533  p :     4.588182
      px      :     1.518893
      py      :     1.614756
      dz2     :     0.004600  d :     0.034662
      dxz     :     0.008307
      dyz     :     0.008474
      dx2y2   :     0.009083
      dxy     :     0.004198
      f0      :     0.000275  f :     0.002261
      f+1     :     0.000428
      f-1     :     0.000287
      f+2     :     0.000597
      f-2     :     0.000363
      f+3     :     0.000158
      f-3     :     0.000154
  3 C s       :     3.106819  s :     3.106819
      pz      :     0.716102  p :     2.155954
      px      :     0.662541
      py      :     0.777311
      dz2     :     0.040546  d :     0.306414
      dxz     :     0.058546
      dyz     :     0.065407
      dx2y2   :     0.092651
      dxy     :     0.049264
      f0      :     0.003003  f :     0.026577
      f+1     :     0.003851
      f-1     :     0.002311
      f+2     :     0.002832
      f-2     :     0.005340
      f+3     :     0.003527
      f-3     :     0.005714
  4 O s       :     3.766277  s :     3.766277
      pz      :     1.675688  p :     4.627322
      px      :     1.532071
      py      :     1.419563
      dz2     :     0.004139  d :     0.035109
      dxz     :     0.003385
      dyz     :     0.005881
      dx2y2   :     0.010219
      dxy     :     0.011484
      f0      :     0.000245  f :     0.002402
      f+1     :     0.000184
      f-1     :     0.000306
      f+2     :     0.000046
      f-2     :     0.000339
      f+3     :     0.000671
      f-3     :     0.000610
  5 C s       :     3.174822  s :     3.174822
      pz      :     0.963474  p :     2.869693
      px      :     1.056041
      py      :     0.850178
      dz2     :     0.014731  d :     0.086648
      dxz     :     0.009940
      dyz     :     0.026470
      dx2y2   :     0.016574
      dxy     :     0.018933
      f0      :     0.000762  f :     0.009798
      f+1     :     0.000925
      f-1     :     0.001404
      f+2     :     0.002373
      f-2     :     0.001269
      f+3     :     0.001461
      f-3     :     0.001605
  6 C s       :     3.190528  s :     3.190528
      pz      :     0.793711  p :     2.462451
      px      :     0.877304
      py      :     0.791435
      dz2     :     0.029188  d :     0.177626
      dxz     :     0.015887
      dyz     :     0.050629
      dx2y2   :     0.030158
      dxy     :     0.051763
      f0      :     0.001544  f :     0.014344
      f+1     :     0.001297
      f-1     :     0.002350
      f+2     :     0.002389
      f-2     :     0.002212
      f+3     :     0.002303
      f-3     :     0.002248
  7 C s       :     3.275614  s :     3.275614
      pz      :     0.959479  p :     2.932724
      px      :     0.964029
      py      :     1.009215
      dz2     :     0.020837  d :     0.069413
      dxz     :     0.013373
      dyz     :     0.005994
      dx2y2   :     0.017488
      dxy     :     0.011721
      f0      :     0.000635  f :     0.004652
      f+1     :     0.001209
      f-1     :     0.000350
      f+2     :     0.000509
      f-2     :     0.000625
      f+3     :     0.000257
      f-3     :     0.001066
  8 N s       :     3.345487  s :     3.345487
      pz      :     1.428017  p :     3.716011
      px      :     1.196910
      py      :     1.091084
      dz2     :     0.008568  d :     0.059675
      dxz     :     0.009986
      dyz     :     0.009322
      dx2y2   :     0.015852
      dxy     :     0.015947
      f0      :     0.000619  f :     0.004963
      f+1     :     0.000808
      f-1     :     0.000481
      f+2     :     0.000926
      f-2     :     0.000911
      f+3     :     0.000636
      f-3     :     0.000582
  9 C s       :     3.172768  s :     3.172768
      pz      :     0.715902  p :     2.357815
      px      :     0.758719
      py      :     0.883194
      dz2     :     0.038424  d :     0.263088
      dxz     :     0.036991
      dyz     :     0.057362
      dx2y2   :     0.073241
      dxy     :     0.057070
      f0      :     0.001775  f :     0.017669
      f+1     :     0.003021
      f-1     :     0.001655
      f+2     :     0.002735
      f-2     :     0.002237
      f+3     :     0.002978
      f-3     :     0.003268
 10 S s       :     5.855869  s :     5.855869
      pz      :     3.544707  p :    10.487116
      px      :     3.658480
      py      :     3.283928
      dz2     :     0.010845  d :     0.084515
      dxz     :     0.005889
      dyz     :     0.026834
      dx2y2   :     0.013469
      dxy     :     0.027478
      f0      :     0.001097  f :     0.010119
      f+1     :     0.000417
      f-1     :     0.001414
      f+2     :     0.001497
      f-2     :     0.001990
      f+3     :     0.002721
      f-3     :     0.000983
 11 N s       :     3.375178  s :     3.375178
      pz      :     1.523026  p :     3.763939
      px      :     1.217465
      py      :     1.023448
      dz2     :     0.003923  d :     0.058182
      dxz     :     0.007411
      dyz     :     0.012208
      dx2y2   :     0.017216
      dxy     :     0.017424
      f0      :     0.000672  f :     0.004458
      f+1     :     0.000358
      f-1     :     0.000705
      f+2     :     0.000510
      f-2     :     0.000567
      f+3     :     0.000907
      f-3     :     0.000739
 12 C s       :     3.122667  s :     3.122667
      pz      :     0.905174  p :     2.653854
      px      :     0.934809
      py      :     0.813871
      dz2     :     0.030580  d :     0.180276
      dxz     :     0.033661
      dyz     :     0.044977
      dx2y2   :     0.031987
      dxy     :     0.039071
      f0      :     0.001311  f :     0.011262
      f+1     :     0.001336
      f-1     :     0.001750
      f+2     :     0.001843
      f-2     :     0.002079
      f+3     :     0.001663
      f-3     :     0.001280
 13 C s       :     3.101542  s :     3.101542
      pz      :     0.887852  p :     2.720077
      px      :     0.902866
      py      :     0.929359
      dz2     :     0.021992  d :     0.107870
      dxz     :     0.013303
      dyz     :     0.032051
      dx2y2   :     0.017330
      dxy     :     0.023195
      f0      :     0.001535  f :     0.011258
      f+1     :     0.001418
      f-1     :     0.002052
[...]
      f-1     :     0.006630
      f+2     :     0.006911
      f-2     :     0.004657
      f+3     :     0.004934
      f-3     :     0.005446
 15 C s       :     2.705951  s :     2.705951
      pz      :     0.971699  p :     2.795215
      px      :     0.859448
      py      :     0.964069
      dz2     :     0.127386  d :     0.416466
      dxz     :     0.079565
      dyz     :     0.094491
      dx2y2   :     0.070603
      dxy     :     0.044421
      f0      :     0.007258  f :     0.041038
      f+1     :     0.005609
      f-1     :     0.008005
      f+2     :     0.007409
      f-2     :     0.006823
      f+3     :     0.002911
      f-3     :     0.003023
 16 C s       :     2.701785  s :     2.701785
      pz      :     0.962997  p :     2.870539
      px      :     0.931715
      py      :     0.975826
      dz2     :     0.082680  d :     0.390526
      dxz     :     0.042610
      dyz     :     0.118413
      dx2y2   :     0.073305
      dxy     :     0.073518
      f0      :     0.006651  f :     0.040293
      f+1     :     0.004637
      f-1     :     0.006558
      f+2     :     0.006615
      f-2     :     0.004794
      f+3     :     0.006212
      f-3     :     0.004825
 17 C s       :     2.701685  s :     2.701685
      pz      :     0.873061  p :     2.682110
      px      :     0.811025
      py      :     0.998024
      dz2     :     0.160632  d :     0.708216
      dxz     :     0.117432
      dyz     :     0.193476
      dx2y2   :     0.114392
      dxy     :     0.122285
      f0      :     0.019299  f :     0.099211
      f+1     :     0.012351
      f-1     :     0.015381
      f+2     :     0.019209
      f-2     :     0.015309
      f+3     :     0.009151
      f-3     :     0.008513
 18 O s       :     3.177238  s :     3.177238
      pz      :     1.277132  p :     4.348215
      px      :     1.559089
      py      :     1.511994
      dz2     :     0.015298  d :     0.075534
      dxz     :     0.014299
      dyz     :     0.029296
      dx2y2   :     0.008507
      dxy     :     0.008133
      f0      :     0.000784  f :     0.005072
      f+1     :     0.000560
      f-1     :     0.001019
      f+2     :     0.001063
      f-2     :     0.001008
      f+3     :     0.000282
      f-3     :     0.000356
 19 C s       :     2.695308  s :     2.695308
      pz      :     0.969219  p :     2.848493
      px      :     0.915264
      py      :     0.964010
      dz2     :     0.112171  d :     0.386476
      dxz     :     0.069729
      dyz     :     0.094982
      dx2y2   :     0.062806
      dxy     :     0.046788
      f0      :     0.007074  f :     0.040704
      f+1     :     0.006287
      f-1     :     0.008129
      f+2     :     0.006931
      f-2     :     0.006637
      f+3     :     0.002992
      f-3     :     0.002653
 20 H s       :     0.848657  s :     0.848657
      pz      :     0.050907  p :     0.150790
      px      :     0.060375
      py      :     0.039509
      dz2     :     0.005904  d :     0.027478
      dxz     :     0.006968
      dyz     :     0.004105
      dx2y2   :     0.005146
      dxy     :     0.005355
 21 H s       :     0.844678  s :     0.844678
      pz      :     0.056112  p :     0.150449
      px      :     0.040769
      py      :     0.053567
      dz2     :     0.007061  d :     0.027368
      dxz     :     0.005401
      dyz     :     0.006501
      dx2y2   :     0.004333
      dxy     :     0.004072
 22 H s       :     0.850605  s :     0.850605
      pz      :     0.045904  p :     0.150899
      px      :     0.038977
      py      :     0.066018
      dz2     :     0.004110  d :     0.027494
      dxz     :     0.002481
      dyz     :     0.007992
      dx2y2   :     0.006291
      dxy     :     0.006619
 23 H s       :     0.855083  s :     0.855083
      pz      :     0.037395  p :     0.144748
      px      :     0.039535
      py      :     0.067818
      dz2     :     0.003056  d :     0.026944
      dxz     :     0.002721
      dyz     :     0.007201
      dx2y2   :     0.006810
      dxy     :     0.007155
 24 H s       :     0.857041  s :     0.857041
      pz      :     0.049066  p :     0.144966
      px      :     0.063810
      py      :     0.032090
      dz2     :     0.005461  d :     0.026951
      dxz     :     0.008088
      dyz     :     0.003710
      dx2y2   :     0.004725
      dxy     :     0.004967
 25 H s       :     0.829522  s :     0.829522
      pz      :     0.038375  p :     0.151387
      px      :     0.064686
      py      :     0.048327
      dz2     :     0.002620  d :     0.027803
      dxz     :     0.007264
      dyz     :     0.001748
      dx2y2   :     0.008968
      dxy     :     0.007204
 26 H s       :     0.830341  s :     0.830341
      pz      :     0.070131  p :     0.152101
      px      :     0.041512
      py      :     0.040458
      dz2     :     0.009395  d :     0.027822
      dxz     :     0.008112
      dyz     :     0.007892
      dx2y2   :     0.001401
      dxy     :     0.001022
 27 H s       :     0.842768  s :     0.842768
      pz      :     0.038282  p :     0.150215
      px      :     0.039970
      py      :     0.071963
      dz2     :     0.002612  d :     0.027758
      dxz     :     0.000628
      dyz     :     0.008324
      dx2y2   :     0.006879
      dxy     :     0.009316
 28 H s       :     0.742933  s :     0.742933
      pz      :     0.074258  p :     0.254260
      px      :     0.067748
      py      :     0.112253
      dz2     :     0.005349  d :     0.061954
      dxz     :     0.003423
      dyz     :     0.018461
      dx2y2   :     0.017061
      dxy     :     0.017659
 29 H s       :     0.748121  s :     0.748121
      pz      :     0.102138  p :     0.253598
      px      :     0.109196
      py      :     0.042264
      dz2     :     0.014992  d :     0.061359
      dxz     :     0.017079
      dyz     :     0.004512
      dx2y2   :     0.013562
      dxy     :     0.011214
 30 H s       :     0.826810  s :     0.826810
      pz      :     0.050298  p :     0.150297
      px      :     0.053654
      py      :     0.046346
      dz2     :     0.005447  d :     0.028492
      dxz     :     0.006552
      dyz     :     0.004533
      dx2y2   :     0.005818
      dxy     :     0.006142
 31 H s       :     0.840463  s :     0.840463
      pz      :     0.062720  p :     0.156736
      px      :     0.053226
      py      :     0.040790
      dz2     :     0.007489  d :     0.027429
      dxz     :     0.006357
      dyz     :     0.006497
      dx2y2   :     0.003544
      dxy     :     0.003542
 32 H s       :     0.843570  s :     0.843570
      pz      :     0.034168  p :     0.151209
      px      :     0.040955
      py      :     0.076086
      dz2     :     0.002773  d :     0.026459
      dxz     :     0.000581
      dyz     :     0.007963
      dx2y2   :     0.007583
      dxy     :     0.007559
 33 H s       :     0.849530  s :     0.849530
      pz      :     0.064746  p :     0.159350
      px      :     0.047602
      py      :     0.047002
      dz2     :     0.008258  d :     0.027789
      dxz     :     0.006037
      dyz     :     0.007473
      dx2y2   :     0.003027
      dxy     :     0.002994
 34 H s       :     0.707103  s :     0.707103
      pz      :     0.113452  p :     0.348206
      px      :     0.096188
      py      :     0.138566
      dz2     :     0.025619  d :     0.099653
      dxz     :     0.017933
      dyz     :     0.025198
      dx2y2   :     0.014228
      dxy     :     0.016675
 35 H s       :     0.839359  s :     0.839359
      pz      :     0.035052  p :     0.157661
      px      :     0.045264
      py      :     0.077345
      dz2     :     0.002724  d :     0.028042
      dxz     :     0.000689
      dyz     :     0.008236
      dx2y2   :     0.007904
      dxy     :     0.008489


                      *****************************
                      * MAYER POPULATION ANALYSIS *
                      *****************************

  NA   - Mulliken gross atomic population
  ZA   - Total nuclear charge
  QA   - Mulliken gross atomic charge
  VA   - Mayer's total valence
  BVA  - Mayer's bonded valence
  FA   - Mayer's free valence

  ATOM       NA         ZA         QA         VA         BVA        FA
  0 C      6.2731     6.0000    -0.2731     3.8897     3.8897    -0.0000
  1 C      5.9569     6.0000     0.0431     3.8707     3.8707    -0.0000
  2 O      8.3320     8.0000    -0.3320     2.0807     2.0807    -0.0000
  3 C      5.5958     6.0000     0.4042     4.2395     4.2395    -0.0000
  4 O      8.4311     8.0000    -0.4311     2.0755     2.0755    -0.0000
  5 C      6.1410     6.0000    -0.1410     3.6541     3.6541    -0.0000
  6 C      5.8449     6.0000     0.1551     3.8165     3.8165    -0.0000
  7 C      6.2824     6.0000    -0.2824     3.8910     3.8910    -0.0000
  8 N      7.1261     7.0000    -0.1261     3.2796     3.2796     0.0000
  9 C      5.8113     6.0000     0.1887     4.1579     4.1579    -0.0000
 10 S     16.4376    16.0000    -0.4376     1.7598     1.7598     0.0000
 11 N      7.2018     7.0000    -0.2018     3.2525     3.2525    -0.0000
 12 C      5.9681     6.0000     0.0319     3.9460     3.9460    -0.0000
 13 C      5.9407     6.0000     0.0593     3.7471     3.7471    -0.0000
 14 C      6.1952     6.0000    -0.1952     3.8615     3.8615    -0.0000
 15 C      6.1284     6.0000    -0.1284     3.8002     3.8002    -0.0000
 16 C      6.2810     6.0000    -0.2810     3.7958     3.7958    -0.0000
 17 C      5.6924     6.0000     0.3076     3.8738     3.8738    -0.0000
 18 O      8.3578     8.0000    -0.3578     2.1170     2.1170    -0.0000
 19 C      6.2533     6.0000    -0.2533     3.8466     3.8466     0.0000
 20 H      0.9027     1.0000     0.0973     0.9827     0.9827    -0.0000
 21 H      0.8976     1.0000     0.1024     0.9833     0.9833    -0.0000
 22 H      0.9076     1.0000     0.0924     0.9825     0.9825     0.0000
 23 H      0.9022     1.0000     0.0978     0.9809     0.9809    -0.0000
 24 H      0.9075     1.0000     0.0925     0.9805     0.9805     0.0000
 25 H      0.8678     1.0000     0.1322     0.9785     0.9785    -0.0000
 26 H      0.8754     1.0000     0.1246     0.9814     0.9814    -0.0000
 27 H      0.8948     1.0000     0.1052     0.9858     0.9858    -0.0000
 28 H      0.8007     1.0000     0.1993     1.0215     1.0215    -0.0000
 29 H      0.8058     1.0000     0.1942     1.0178     1.0178    -0.0000
 30 H      0.8379     1.0000     0.1621     1.0020     1.0020    -0.0000
 31 H      0.8397     1.0000     0.1603     0.9887     0.9887     0.0000
 32 H      0.8407     1.0000     0.1593     0.9773     0.9773    -0.0000
 33 H      0.8726     1.0000     0.1274     0.9924     0.9924    -0.0000
 34 H      0.7602     1.0000     0.2398     1.0114     1.0114    -0.0000
 35 H      0.8360     1.0000     0.1640     0.9899     0.9899     0.0000

  Mayer bond orders larger than 0.100000
B(  0-C ,  1-C ) :   0.9698 B(  0-C , 20-H ) :   0.9767 B(  0-C , 21-H ) :   0.9790 
B(  0-C , 22-H ) :   0.9779 B(  1-C ,  2-O ) :   0.9046 B(  1-C , 23-H ) :   0.9772 
B(  1-C , 24-H ) :   0.9775 B(  2-O ,  3-C ) :   1.1664 B(  3-C ,  4-O ) :   1.9617 
B(  3-C ,  5-C ) :   1.0545 B(  5-C ,  6-C ) :   1.6376 B(  5-C , 12-C ) :   0.9614 
B(  6-C ,  7-C ) :   0.9565 B(  6-C ,  8-N ) :   1.1154 B(  7-C , 25-H ) :   0.9636 
B(  7-C , 26-H ) :   0.9627 B(  7-C , 27-H ) :   0.9922 B(  8-N ,  9-C ) :   1.1809 
B(  8-N , 28-H ) :   0.9477 B(  9-C , 10-S ) :   1.6155 B(  9-C , 11-N ) :   1.3042 
B( 11-N , 12-C ) :   0.9800 B( 11-N , 29-H ) :   0.9524 B( 12-C , 13-C ) :   0.9652 
B( 12-C , 30-H ) :   0.9937 B( 13-C , 14-C ) :   1.3794 B( 13-C , 19-C ) :   1.3667 
B( 14-C , 15-C ) :   1.3873 B( 14-C , 31-H ) :   0.9641 B( 15-C , 16-C ) :   1.3660 
B( 15-C , 32-H ) :   0.9715 B( 16-C , 17-C ) :   1.3298 B( 16-C , 33-H ) :   0.9863 
B( 17-C , 18-O ) :   1.1088 B( 17-C , 19-C ) :   1.3751 B( 18-O , 34-H ) :   0.9808 
B( 19-C , 35-H ) :   0.9573 

-------
TIMINGS
-------

Total SCF time: 0 days 2 hours 13 min 46 sec 

Total time                  ....    8026.980 sec
Sum of individual times     ....    8016.278 sec  ( 99.9%)

Fock matrix formation       ....    7992.786 sec  ( 99.6%)
Diagonalization             ....       1.961 sec  (  0.0%)
Density matrix formation    ....       0.311 sec  (  0.0%)
Population analysis         ....       0.745 sec  (  0.0%)
Initial guess               ....       6.989 sec  (  0.1%)
Orbital Transformation      ....       0.000 sec  (  0.0%)
Orbital Orthonormalization  ....       0.000 sec  (  0.0%)
DIIS solution               ....       8.476 sec  (  0.1%)
SOSCF solution              ....       2.948 sec  (  0.0%)

------------------------------------------------------------------------------
                                ORCA  MP2 
------------------------------------------------------------------------------

Freezing NCore=48 chemical core electrons

-------------
RI-MP2 ENERGY
-------------
Dimension of the basis                    ...  828
Memory devoted to MP2                     ...  256 MB   
Data format for buffers                   ... DOUBLE
Compression type for matrix containers    ... UNCOMPRESSED
Overall scaling of the MP2 energy         ...   1.000e+00
Calculating two index integrals           ... done (    0.069 sec)
Cholesky decomposition of V**-1           ... done (    1.056 sec)

-----------------
RI-TRANSFORMATION (AUX index driven)
-----------------

Dimension of the orbital-basis         ... 828
Dimension of the aux-basis             ... 2141
Transformation of internal/external MOs...   24-  76 to   77- 827
Number Format for Storage              ... Double (8 Byte)
Integral mode                          ... Direct

First Phase: integral generation and transformation of MO indices
  Aux angular momentum 0               ... done (    9.114 sec)
  Aux angular momentum 1               ... done (   16.229 sec)
  Aux angular momentum 2               ... done (   20.295 sec)
  Aux angular momentum 3               ... done (   15.707 sec)
  Aux angular momentum 4               ... done (    6.116 sec)
Closing buffer VIA ( 0.63 GB; CompressionRatio= 1.00)
  Phase 1 completed in    68.457 sec
Second Phase: sorting and transformation of aux index

IA-Transformation
Memory available                       ... 167 MB 
Max. # MO pairs treated in a batch     ... 12    
# of internal orbitals                 ... 53
# batches for internal orbitals        ... 5
Closing buffer IAV ( 0.63 GB; CompressionRatio= 1.00)
(ia|v) transformation done in    99.814 sec

  Phase 2 completed in    99.998 sec
RI-Integral transformation completed in   168.494 sec
Opening buffers                              ... done

Starting loop over batches of integrals:

Operator 0  - window                       ... ( 24- 76)x( 77-827)
Operator 0  - Memory available             ...   256 MB
Operator 0  - Memory needed per MO         ...  12.3 MB
Operator 0  - Number of orbitals per batch ... 13
Operator 0  - Number of batches            ... 5

OPERATOR  0   PASS   0:  MOs    24 ...   36
  Reading integrals       ... ok
  Internal MO  26
  Internal MO  29
  Internal MO  32
  Internal MO  35
OPERATOR  0   PASS   1:  MOs    37 ...   49
  Reading integrals       ... ok
  Internal MO  38
  Internal MO  41
  Internal MO  44
  Internal MO  47
OPERATOR  0   PASS   2:  MOs    50 ...   62
  Reading integrals       ... ok
  Internal MO  50
  Internal MO  53
  Internal MO  56
  Internal MO  59
  Internal MO  62
OPERATOR  0   PASS   3:  MOs    63 ...   75
  Reading integrals       ... ok
  Internal MO  65
  Internal MO  68
  Internal MO  71
  Internal MO  74
OPERATOR  0   PASS   4:  MOs    76 ...   76
  Reading integrals       ... ok
Time spent in pair loops =   431.286 sec
Deleting buffer (Ka|jb)[aa] ...done

-----------------------------------------------
 RI-MP2 CORRELATION ENERGY:     -3.529862531 Eh
-----------------------------------------------


-------
TIMINGS
-------

Total time                :  601.552 sec
Integral trafo            :  168.515 sec ( 28.0%)
I/O of integrals          :   20.525 sec (  3.4%)
K(i,j) Operators          :  105.545 sec ( 17.5%)
T(i,j) pair energies      :    6.658 sec (  1.1%)
V-calculation             :    0.069 sec (  0.0%)
V**(-1/2)                 :    1.056 sec (  0.2%)
Gamma(ia|P)               :    0.000 sec (  0.0%)
Gamma-Trafo               :    0.000 sec (  0.0%)
D(virtual)                :    0.000 sec (  0.0%)
D(internal)               :    0.000 sec (  0.0%)
W(virtual)                :    0.000 sec (  0.0%)
W(internal)               :    0.000 sec (  0.0%)
L(virtual)                :    0.000 sec (  0.0%)
L(internal)               :    0.000 sec (  0.0%)
G(D)                      :    0.000 sec (  0.0%)
G(Z)                      :    0.000 sec (  0.0%)
Z-Vector Solution         :    0.000 sec (  0.0%)
3-Index Derivative        :    0.000 sec (  0.0%)
2-Index Derivative        :    0.000 sec (  0.0%)
Separable Gradient        :    0.000 sec (  0.0%)


---------------------------------------
MP2 TOTAL ENERGY:    -1274.343266077 Eh
---------------------------------------

-------------------------   --------------------
FINAL SINGLE POINT ENERGY     -1274.343266076742
-------------------------   --------------------


                            ***************************************
                            *     ORCA property calculations      *
                            ***************************************


  WARNING: The energy has been calculated at the MP2 level but the densities
           used in the property calculations are still SCF densities
           MP2 response densities have not been calculated 
           use %mp2 Density relaxed end
           or  %mp2 Density unrelaxed end

                                    ---------------------
                                    Active property flags
                                    ---------------------
   (+) Dipole Moment


------------------------------------------------------------------------------
                       ORCA ELECTRIC PROPERTIES CALCULATION
------------------------------------------------------------------------------

Dipole Moment Calculation                       ... on
Quadrupole Moment Calculation                   ... off
Polarizability Calculation                      ... off
GBWName                                         ... G2_CONFS/Conf9.orca.gbw
Electron density file                           ... G2_CONFS/Conf9.orca.scfp
The origin for moment calculation is the CENTER OF MASS  = (32.917471, 31.377498 35.592373)

-------------
DIPOLE MOMENT
-------------
                                X             Y             Z
Electronic contribution:     11.08790       7.51963      13.20778
Nuclear contribution   :    -12.61866      -8.68171     -14.22036
                        -----------------------------------------
Total Dipole Moment    :     -1.53076      -1.16208      -1.01258
                        -----------------------------------------
Magnitude (a.u.)       :      2.17232
Magnitude (Debye)      :      5.52160



--------------------
Rotational spectrum 
--------------------
 
Rotational constants in cm-1:     0.011075     0.007876     0.005410 
Rotational constants in MHz :   332.025460   236.125445   162.190807 

 Dipole components along the rotational axes: 
x,y,z [a.u.] :    -1.584866     1.273998    -0.764264 
x,y,z [Debye]:    -4.028409     3.238246    -1.942604 

 

Timings for individual modules:

Sum of individual times         ...     8636.500 sec (= 143.942 min)
GTO integral calculation        ...        2.233 sec (=   0.037 min)   0.0 %
SCF iterations                  ...     8027.111 sec (= 133.785 min)  92.9 %
MP2 module                      ...      607.157 sec (=  10.119 min)   7.0 %
                             ****ORCA TERMINATED NORMALLY****
TOTAL RUN TIME: 0 days 2 hours 23 minutes 59 seconds 452 msec
