
                                 *****************
                                 * O   R   C   A *
                                 *****************

           --- An Ab Initio, DFT and Semiempirical electronic structure package ---

                  #######################################################
                  #                        -***-                        #
                  #          Department of theory and spectroscopy      #
                  #               Directorship: Frank Neese             #
                  #        Max Planck Institute fuer Kohlenforschung    #
                  #                Kaiser Wilhelm Platz 1               #
                  #                 D-45470 Muelheim/Ruhr               #
                  #                      Germany                        #
                  #                                                     #
                  #                  All rights reserved                #
                  #                        -***-                        #
                  #######################################################


                         Program Version 4.2.0 -  RELEASE  -


 With contributions from (in alphabetic order):
   Daniel Aravena         : Magnetic Suceptibility
   Michael Atanasov       : Ab Initio Ligand Field Theory (pilot matlab implementation)
   Alexander A. Auer      : GIAO ZORA, VPT2
   Ute Becker             : Parallelization
   Giovanni Bistoni       : ED, misc. LED, open-shell LED, HFLED
   Martin Brehm           : Molecular dynamics
   Dmytro Bykov           : SCF Hessian
   Vijay G. Chilkuri      : MRCI spin determinant printing, contributions to CSF-ICE
   Dipayan Datta          : RHF DLPNO-CCSD density
   Achintya Kumar Dutta   : EOM-CC, STEOM-CC
   Dmitry Ganyushin       : Spin-Orbit,Spin-Spin,Magnetic field MRCI
   Miquel Garcia          : C-PCM Hessian, Gaussian charge scheme
   Yang Guo               : DLPNO-NEVPT2, CIM, IAO-localization
   Andreas Hansen         : Spin unrestricted coupled pair/coupled cluster methods
   Benjamin Helmich-Paris : CASSCF linear response (MC-RPA)
   Lee Huntington         : MR-EOM, pCC
   Robert Izsak           : Overlap fitted RIJCOSX, COSX-SCS-MP3, EOM
   Christian Kollmar      : KDIIS, OOCD, Brueckner-CCSD(T), CCSD density
   Simone Kossmann        : Meta GGA functionals, TD-DFT gradient, OOMP2, MP2 Hessian
   Martin Krupicka        : AUTO-CI
   Lucas Lang             : DCDCAS
   Dagmar Lenk            : GEPOL surface, SMD
   Dimitrios Liakos       : Extrapolation schemes; Compound Job, initial MDCI parallelization
   Dimitrios Manganas     : Further ROCIS development; embedding schemes
   Dimitrios Pantazis     : SARC Basis sets
   Taras Petrenko         : DFT Hessian,TD-DFT gradient, ASA, ECA, R-Raman, ABS, FL, XAS/XES, NRVS
   Peter Pinski           : DLPNO-MP2, DLPNO-MP2 Gradient
   Christoph Reimann      : Effective Core Potentials
   Marius Retegan         : Local ZFS, SOC
   Christoph Riplinger    : Optimizer, TS searches, QM/MM, DLPNO-CCSD(T), (RO)-DLPNO pert. Triples
   Tobias Risthaus        : Range-separated hybrids, TD-DFT gradient, RPA, STAB
   Michael Roemelt        : Original ROCIS implementation
   Masaaki Saitow         : Open-shell DLPNO-CCSD energy and density
   Barbara Sandhoefer     : DKH picture change effects
   Avijit Sen             : IP-ROCIS
   Kantharuban Sivalingam : CASSCF convergence, NEVPT2, FIC-MRCI
   Bernardo de Souza      : ESD, SOC TD-DFT
   Georgi Stoychev        : AutoAux, RI-MP2 NMR
   Willem Van den Heuvel  : Paramagnetic NMR
   Boris Wezisla          : Elementary symmetry handling
   Frank Wennmohs         : Technical directorship


 We gratefully acknowledge several colleagues who have allowed us to
 interface, adapt or use parts of their codes:
   Stefan Grimme, W. Hujo, H. Kruse,             : VdW corrections, initial TS optimization,
                  C. Bannwarth                     DFT functionals, gCP, sTDA/sTD-DF
   Ed Valeev, F. Pavosevic, A. Kumar             : LibInt (2-el integral package), F12 methods
   Garnet Chan, S. Sharma, J. Yang, R. Olivares  : DMRG
   Ulf Ekstrom                                   : XCFun DFT Library
   Mihaly Kallay                                 : mrcc  (arbitrary order and MRCC methods)
   Andreas Klamt, Michael Diedenhofen            : otool_cosmo (COSMO solvation model)
   Jiri Pittner, Ondrej Demel                    : Mk-CCSD
   Frank Weinhold                                : gennbo (NPA and NBO analysis)
   Christopher J. Cramer and Donald G. Truhlar   : smd solvation model
   Lars Goerigk                                  : TD-DFT with DH, B97 family of functionals
   V. Asgeirsson, H. Jonsson                     : NEB implementation
   FAccTs GmbH                                   : IRC, NEB, NEB-TS, Multilevel, MM, QM/MM, CI optimization
   S Lehtola, MJT Oliveira, MAL Marques          : LibXC Library


 Your calculation uses the libint2 library for the computation of 2-el integrals
 For citations please refer to: http://libint.valeyev.net

 Your ORCA version has been built with support for libXC version: 4.2.3
 For citations please refer to: https://tddft.org/programs/libxc/

 This ORCA versions uses:
   CBLAS   interface :  Fast vector & matrix operations
   LAPACKE interface :  Fast linear algebra routines
   SCALAPACK package :  Parallel linear algebra routines


----- Orbital basis set information -----
Your calculation utilizes the basis: cc-pVTZ 
       H, B-Ne : Obtained from the ccRepo (grant-hill.group.shef.ac.uk/ccrepo) Feb. 2017
                 T. H. Dunning, Jr., J. Chem. Phys. 90, 1007 (1989)
            He : Obtained from the ccRepo (grant-hill.group.shef.ac.uk/ccrepo) Feb. 2017
                 D. E. Woon, T. H. Dunning, Jr., J. Chem. Phys. 100, 2975 (1994)
  Li-Be, Na-Mg : Obtained from the ccRepo (grant-hill.group.shef.ac.uk/ccrepo) Feb. 2017
                 B. P. Prascher, D. E. Woon, K. A. Peterson, T. H. Dunning, Jr., A. K. Wilson, Theor. Chem. Acc. 128, 69 (2011)
         Al-Ar : Obtained from the ccRepo (grant-hill.group.shef.ac.uk/ccrepo) Feb. 2017
                 D. E. Woon, T. H. Dunning, Jr., J. Chem. Phys. 98, 1358 (1993)
            Ca : Obtained from the Peterson Research Group Website (tyr0.chem.wsu.edu/~kipeters) Feb. 2017
                 J. Koput, K. A. Peterson, J. Phys. Chem. 106, 9595 (2002)
         Sc-Zn : Obtained from the ccRepo (grant-hill.group.shef.ac.uk/ccrepo) Feb. 2017
                 N. B. Balabanov, K. A. Peterson, J. Chem. Phys. 123, 064107 (2005)
                 N. B. Balabanov, K. A. Peterson, J. Chem. Phys. 125, 074110 (2006)
         Ga-Kr : Obtained from the ccRepo (grant-hill.group.shef.ac.uk/ccrepo) Feb. 2017
                 A. K. Wilson, D. E. Woon, K. A. Peterson, T. H. Dunning, Jr., J. Chem. Phys. 110, 7667 (1999)
             Y : Obtained from the ccRepo (grant-hill.group.shef.ac.uk/ccrepo) Feb. 2017
                 K. A. Peterson, D. Figgen, M. Dolg, H. Stoll, J. Chem. Phys. 126, 124101 (2007)
        Ag, Au : Obtained from the Peterson Research Group Website (tyr0.chem.wsu.edu/~kipeters) Feb. 2017
                 K. A. Peterson, C. Puzzarini, Theor. Chem. Acc. 114, 283 (2005)

----- AuxC basis set information -----
Your calculation utilizes the auxiliary basis: cc-pVTZ/C 
  Obtained from the EMSL Basis Set Exchange (bse.pnl.gov) Feb. 2017
  H-He, B-F, Al-Ar, Ga-Kr : F. Weigend, A. Kohn, C. Hattig, J. Chem. Phys. 116, 3175 (2002)
             Li-Be, Na-Mg : C. Haettig, Phys. Chem. Chem. Phys. 7, 59 (2005)
                       Ne : C. Haettig, Phys. Chem. Chem. Phys. 7, 59 (2005)
                            F. Weigend, A. Kohn, C. Hattig, J. Chem. Phys. 116, 3175 (2002)
                    Sc-Zn : J. G. Hill, J. A. Platts, J. Chem. Phys. 128, 044104 (2008)

================================================================================
                                        WARNINGS
                       Please study these warnings very carefully!
================================================================================


WARNING: No MP2 level density has been requested!
         To caclulate MP2 level properties use
         %mp2 Density relaxed end
         or
         %mp2 Density unrelaxed end

WARNING: Post HF methods need fully converged wavefunctions
  ===> : Setting SCFConvForced true
         You can overwrite this default with %scf ConvForced false 


INFO   : the flag for use of LIBINT has been found!

================================================================================
                                       INPUT FILE
================================================================================
NAME = G2_CONFS/Conf57.orca
|  1> ! ri-mp2 cc-pvtz cc-pvtz/c TightSCF  NoKeepInts
|  2> 
|  3> %scf
|  4>   MaxCore 4096
|  5> end
|  6> *xyz  0  1
|  7>     C       14.6972189   14.1505652   16.3460708
|  8>     C       15.5854844   15.3512640   16.7054223
|  9>     O       16.9217071   14.9955071   16.2858465
| 10>     C       18.0431316   15.7760578   16.4129632
| 11>     O       19.1220289   15.3872510   16.0033249
| 12>     C       17.9588280   16.8076589   17.4718213
| 13>     C       17.2807617   17.9589351   17.1998279
| 14>     C       16.7149305   18.3785446   15.8478529
| 15>     N       17.6089076   19.0447394   18.0274288
| 16>     C       18.4545437   19.0570299   19.1068849
| 17>     S       18.7631384   20.4618019   19.9246687
| 18>     N       19.0226666   17.8582767   19.4614645
| 19>     C       18.9193531   16.6362897   18.6385302
| 20>     C       18.0201365   15.9198995   19.6835574
| 21>     C       18.3637821   14.5615387   19.9000577
| 22>     C       17.6112024   13.7127279   20.7193123
| 23>     C       16.4681381   14.2099992   21.3516408
| 24>     C       16.0885822   15.5429272   21.1452140
| 25>     O       14.9589505   15.9943603   21.7435302
| 26>     C       16.8382608   16.3926450   20.3118304
| 27>     H       15.2459324   13.2076281   16.4571346
| 28>     H       14.3943810   14.2407182   15.2941118
| 29>     H       13.7890767   14.1092413   16.9586218
| 30>     H       15.1852906   16.2864171   16.3064405
| 31>     H       15.5896999   15.4195967   17.8054220
| 32>     H       17.1255536   17.7788856   15.0233602
| 33>     H       16.9817372   19.4163347   15.6048818
| 34>     H       15.6234053   18.3132170   15.8079393
| 35>     H       17.2822036   19.9615339   17.7590565
| 36>     H       19.6248697   17.8882487   20.2727708
| 37>     H       19.7241171   15.8959138   18.5536209
| 38>     H       19.2232273   14.1254803   19.3951541
| 39>     H       17.9107386   12.6723574   20.8448760
| 40>     H       15.8782519   13.5529455   21.9833782
| 41>     H       14.6385917   15.2785820   22.3163587
| 42>     H       16.4881736   17.4068804   20.1636201
| 43> *
| 44> 
| 45>                          ****END OF INPUT****
================================================================================

                       ****************************
                       * Single Point Calculation *
                       ****************************

---------------------------------
CARTESIAN COORDINATES (ANGSTROEM)
---------------------------------
  C     14.697219   14.150565   16.346071
  C     15.585484   15.351264   16.705422
  O     16.921707   14.995507   16.285847
  C     18.043132   15.776058   16.412963
  O     19.122029   15.387251   16.003325
  C     17.958828   16.807659   17.471821
  C     17.280762   17.958935   17.199828
  C     16.714931   18.378545   15.847853
  N     17.608908   19.044739   18.027429
  C     18.454544   19.057030   19.106885
  S     18.763138   20.461802   19.924669
  N     19.022667   17.858277   19.461464
  C     18.919353   16.636290   18.638530
  C     18.020136   15.919899   19.683557
  C     18.363782   14.561539   19.900058
  C     17.611202   13.712728   20.719312
  C     16.468138   14.209999   21.351641
  C     16.088582   15.542927   21.145214
  O     14.958951   15.994360   21.743530
  C     16.838261   16.392645   20.311830
  H     15.245932   13.207628   16.457135
  H     14.394381   14.240718   15.294112
  H     13.789077   14.109241   16.958622
  H     15.185291   16.286417   16.306441
  H     15.589700   15.419597   17.805422
  H     17.125554   17.778886   15.023360
  H     16.981737   19.416335   15.604882
  H     15.623405   18.313217   15.807939
  H     17.282204   19.961534   17.759056
  H     19.624870   17.888249   20.272771
  H     19.724117   15.895914   18.553621
  H     19.223227   14.125480   19.395154
  H     17.910739   12.672357   20.844876
  H     15.878252   13.552945   21.983378
  H     14.638592   15.278582   22.316359
  H     16.488174   17.406880   20.163620

----------------------------
CARTESIAN COORDINATES (A.U.)
----------------------------
  NO LB      ZA    FRAG     MASS         X           Y           Z
   0 C     6.0000    0    12.011   27.773719   26.740693   30.889597
   1 C     6.0000    0    12.011   29.452297   29.009685   31.568673
   2 O     8.0000    0    15.999   31.977392   28.337402   30.775790
   3 C     6.0000    0    12.011   34.096577   29.812429   31.016005
   4 O     8.0000    0    15.999   36.135398   29.077690   30.241901
   5 C     6.0000    0    12.011   33.937267   31.761872   33.016957
   6 C     6.0000    0    12.011   32.655907   33.937469   32.502964
   7 C     6.0000    0    12.011   31.586641   34.730416   29.948102
   8 N     7.0000    0    14.007   33.276013   35.989342   34.066903
   9 C     6.0000    0    12.011   34.874034   36.012567   36.106780
  10 S    16.0000    0    32.060   35.457193   38.667202   37.652167
  11 N     7.0000    0    14.007   35.947630   33.747252   36.776838
  12 C     6.0000    0    12.011   35.752396   31.438031   35.221718
  13 C     6.0000    0    12.011   34.053123   30.084250   37.196533
  14 C     6.0000    0    12.011   34.702519   27.517320   37.605659
  15 C     6.0000    0    12.011   33.280349   25.913300   39.153826
  16 C     6.0000    0    12.011   31.120271   26.853007   40.348754
  17 C     6.0000    0    12.011   30.403014   29.371876   39.958664
  18 O     8.0000    0    15.999   28.268320   30.224961   41.089317
  19 C     6.0000    0    12.011   31.819701   30.977610   38.383797
  20 H     1.0000    0     1.008   28.810637   24.958800   31.099477
  21 H     1.0000    0     1.008   27.201438   26.911057   28.901683
  22 H     1.0000    0     1.008   26.057579   26.662602   32.047151
  23 H     1.0000    0     1.008   28.696040   30.776868   30.814707
  24 H     1.0000    0     1.008   29.460263   29.138815   33.647371
  25 H     1.0000    0     1.008   32.362606   33.597225   28.390036
  26 H     1.0000    0     1.008   32.090833   36.691555   29.488953
  27 H     1.0000    0     1.008   29.523957   34.606965   29.872676
  28 H     1.0000    0     1.008   32.658632   37.721832   33.559753
  29 H     1.0000    0     1.008   37.085629   33.803891   38.309985
  30 H     1.0000    0     1.008   37.273180   30.038924   35.061262
  31 H     1.0000    0     1.008   36.326635   26.693289   36.651530
  32 H     1.0000    0     1.008   33.846391   23.947285   39.391107
  33 H     1.0000    0     1.008   30.005548   25.611355   41.542564
  34 H     1.0000    0     1.008   27.662929   28.872336   42.171806
  35 H     1.0000    0     1.008   31.158133   32.894237   38.103720

--------------------------------
INTERNAL COORDINATES (ANGSTROEM)
--------------------------------
 C      0   0   0     0.000000000000     0.00000000     0.00000000
 C      1   0   0     1.536172746589     0.00000000     0.00000000
 O      2   1   0     1.445025234326   105.92285321     0.00000000
 C      3   2   1     1.372228464903   126.06893746   179.99999759
 O      4   3   2     1.217782266458   120.74749585   181.26876433
 C      4   3   2     1.480705373270   114.58289945    22.97521705
 C      6   4   3     1.363521619017   118.28862766   280.19651027
 C      7   6   4     1.524491220050   126.43287329   352.70637899
 N      7   6   4     1.404127472584   114.77984519   200.61501393
 C      9   7   6     1.371304831845   127.95273399   355.68905206
 S     10   9   7     1.654504579744   120.77788206   177.43720814
 N     10   9   7     1.373134937561   116.78120827   357.58690972
 C     12  10   9     1.476870600143   123.33325455     8.95394909
 C     13  12  10     1.553668967673    92.70607558   248.13384550
 C     14  13  12     1.417783037448   113.84087452   222.68572439
 C     15  14  13     1.399297709092   122.69850399   185.30304861
 C     16  15  14     1.397753222729   119.26728377     0.28469661
 C     17  16  15     1.401203681899   119.55797529     0.60500835
 O     18  17  16     1.355670275769   118.51994774   178.46052103
 C     18  17  16     1.406615287733   121.16917145     0.00000000
 H      1   2   3     1.096609341247   111.04260393    34.06552893
 H      1   2   3     1.098387952759   108.62122993   275.70113578
 H      1   2   3     1.096197358021   112.19644986   156.31932172
 H      2   1   3     1.092635746591   111.82396107   127.65473254
 H      2   1   3     1.102128154222   106.50787852   245.69554768
 H      8   7   6     1.099086192656   112.11277086   345.11851830
 H      8   7   6     1.098739760934   111.46667050   227.74047827
 H      8   7   6     1.094206586080   112.71623538   107.53517080
 H      9   7   6     1.009589694011   118.02876250   167.93276668
 H     12  10   9     1.010823825824   115.33184460   181.37389007
 H     13  12  10     1.096818653298   123.38984121   144.86231146
 H     15  14  13     1.087989257900   120.30460559     3.15606599
 H     16  15  14     1.089889423354   119.91247859   179.30494742
 H     17  16  15     1.085715172682   119.48812556   179.63787255
 H     19  18  17     0.971133783729   106.84423335     5.53248559
 H     20  18  17     1.083143936531   118.32443193   178.37454967

---------------------------
INTERNAL COORDINATES (A.U.)
---------------------------
 C      0   0   0     0.000000000000     0.00000000     0.00000000
 C      1   0   0     2.902945785448     0.00000000     0.00000000
 O      2   1   0     2.730701949481   105.92285321     0.00000000
 C      3   2   1     2.593135991838   126.06893746   179.99999759
 O      4   3   2     2.301274974352   120.74749585   181.26876433
 C      4   3   2     2.798127640505   114.58289945    22.97521705
 C      6   4   3     2.576682437622   118.28862766   280.19651027
 C      7   6   4     2.880870899461   126.43287329   352.70637899
 N      7   6   4     2.653416380299   114.77984519   200.61501393
 C      9   7   6     2.591390578309   127.95273399   355.68905206
 S     10   9   7     3.126560543035   120.77788206   177.43720814
 N     10   9   7     2.594848976909   116.78120827   357.58690972
 C     12  10   9     2.790880969511   123.33325455     8.95394909
 C     13  12  10     2.936008851675    92.70607558   248.13384550
 C     14  13  12     2.679221658096   113.84087452   222.68572439
 C     15  14  13     2.644289450007   122.69850399   185.30304861
 C     16  15  14     2.641370793764   119.26728377     0.28469661
 C     17  16  15     2.647891216631   119.55797529     0.60500835
 O     18  17  16     2.561845549100   118.51994774   178.46052103
 C     18  17  16     2.658117669602   121.16917145     0.00000000
 H      1   2   3     2.072291330856   111.04260393    34.06552893
 H      1   2   3     2.075652419513   108.62122993   275.70113578
 H      1   2   3     2.071512795388   112.19644986   156.31932172
 H      2   1   3     2.064782325190   111.82396107   127.65473254
 H      2   1   3     2.082720375964   106.50787852   245.69554768
 H      8   7   6     2.076971901695   112.11277086   345.11851830
 H      8   7   6     2.076317240616   111.46667050   227.74047827
 H      8   7   6     2.067750781625   112.71623538   107.53517080
 H      9   7   6     1.907848029310   118.02876250   167.93276668
 H     12  10   9     1.910180200450   115.33184460   181.37389007
 H     13  12  10     2.072686873310   123.38984121   144.86231146
 H     15  14  13     2.056001734080   120.30460559     3.15606599
 H     16  15  14     2.059592526396   119.91247859   179.30494742
 H     17  16  15     2.051704335813   119.48812556   179.63787255
 H     19  18  17     1.835176890647   106.84423335     5.53248559
 H     20  18  17     2.046845403660   118.32443193   178.37454967

---------------------
BASIS SET INFORMATION
---------------------
There are 5 groups of distinct atoms

 Group   1 Type C   : 18s5p2d1f contracted to 4s3p2d1f pattern {8811/311/11/1}
 Group   2 Type O   : 18s5p2d1f contracted to 4s3p2d1f pattern {8811/311/11/1}
 Group   3 Type N   : 18s5p2d1f contracted to 4s3p2d1f pattern {8811/311/11/1}
 Group   4 Type S   : 41s16p2d1f contracted to 5s4p2d1f pattern {13131311/7711/11/1}
 Group   5 Type H   : 5s2p1d contracted to 3s2p1d pattern {311/11/1}

Atom   0C    basis set group =>   1
Atom   1C    basis set group =>   1
Atom   2O    basis set group =>   2
Atom   3C    basis set group =>   1
Atom   4O    basis set group =>   2
Atom   5C    basis set group =>   1
Atom   6C    basis set group =>   1
Atom   7C    basis set group =>   1
Atom   8N    basis set group =>   3
Atom   9C    basis set group =>   1
Atom  10S    basis set group =>   4
Atom  11N    basis set group =>   3
Atom  12C    basis set group =>   1
Atom  13C    basis set group =>   1
Atom  14C    basis set group =>   1
Atom  15C    basis set group =>   1
Atom  16C    basis set group =>   1
Atom  17C    basis set group =>   1
Atom  18O    basis set group =>   2
Atom  19C    basis set group =>   1
Atom  20H    basis set group =>   5
Atom  21H    basis set group =>   5
Atom  22H    basis set group =>   5
Atom  23H    basis set group =>   5
Atom  24H    basis set group =>   5
Atom  25H    basis set group =>   5
Atom  26H    basis set group =>   5
Atom  27H    basis set group =>   5
Atom  28H    basis set group =>   5
Atom  29H    basis set group =>   5
Atom  30H    basis set group =>   5
Atom  31H    basis set group =>   5
Atom  32H    basis set group =>   5
Atom  33H    basis set group =>   5
Atom  34H    basis set group =>   5
Atom  35H    basis set group =>   5
---------------------------------
AUXILIARY/C BASIS SET INFORMATION
---------------------------------
There are 5 groups of distinct atoms

 Group   1 Type C   : 8s6p5d3f1g contracted to 8s6p5d3f1g pattern {11111111/111111/11111/111/1}
 Group   2 Type O   : 8s6p5d3f1g contracted to 8s6p5d3f1g pattern {11111111/111111/11111/111/1}
 Group   3 Type N   : 8s6p5d3f1g contracted to 8s6p5d3f1g pattern {11111111/111111/11111/111/1}
 Group   4 Type S   : 10s8p7d5f2g contracted to 10s8p7d5f2g pattern {1111111111/11111111/1111111/11111/11}
 Group   5 Type H   : 4s3p2d1f contracted to 4s3p2d1f pattern {1111/111/11/1}

Atom   0C    basis set group =>   1
Atom   1C    basis set group =>   1
Atom   2O    basis set group =>   2
Atom   3C    basis set group =>   1
Atom   4O    basis set group =>   2
Atom   5C    basis set group =>   1
Atom   6C    basis set group =>   1
Atom   7C    basis set group =>   1
Atom   8N    basis set group =>   3
Atom   9C    basis set group =>   1
Atom  10S    basis set group =>   4
Atom  11N    basis set group =>   3
Atom  12C    basis set group =>   1
Atom  13C    basis set group =>   1
Atom  14C    basis set group =>   1
Atom  15C    basis set group =>   1
Atom  16C    basis set group =>   1
Atom  17C    basis set group =>   1
Atom  18O    basis set group =>   2
Atom  19C    basis set group =>   1
Atom  20H    basis set group =>   5
Atom  21H    basis set group =>   5
Atom  22H    basis set group =>   5
Atom  23H    basis set group =>   5
Atom  24H    basis set group =>   5
Atom  25H    basis set group =>   5
Atom  26H    basis set group =>   5
Atom  27H    basis set group =>   5
Atom  28H    basis set group =>   5
Atom  29H    basis set group =>   5
Atom  30H    basis set group =>   5
Atom  31H    basis set group =>   5
Atom  32H    basis set group =>   5
Atom  33H    basis set group =>   5
Atom  34H    basis set group =>   5
Atom  35H    basis set group =>   5
------------------------------------------------------------------------------
                           ORCA GTO INTEGRAL CALCULATION
------------------------------------------------------------------------------

                         BASIS SET STATISTICS AND STARTUP INFO

 # of primitive gaussian shells          ...  682
 # of primitive gaussian functions       ... 1312
 # of contracted shells                  ...  298
 # of contracted basis functions         ...  828
 Highest angular momentum                ...    3
 Maximum contraction depth               ...   13
 Integral package used                   ... LIBINT
 Integral threshhold            Thresh   ...  2.500e-11
 Primitive cut-off              TCut     ...  2.500e-12


------------------------------ INTEGRAL EVALUATION ----------------------------


 * One electron integrals 
 Pre-screening matrix                    ... done
 Shell pair data                         ... done (   0.015 sec)

-------------------------------------------------------------------------------
                                 ORCA SCF
-------------------------------------------------------------------------------

------------
SCF SETTINGS
------------
Hamiltonian:
 Ab initio Hamiltonian  Method          .... Hartree-Fock(GTOs)


General Settings:
 Integral files         IntName         .... G2_CONFS/Conf57.orca
 Hartree-Fock type      HFTyp           .... RHF
 Total Charge           Charge          ....    0
 Multiplicity           Mult            ....    1
 Number of Electrons    NEL             ....  154
 Basis Dimension        Dim             ....  828
 Nuclear Repulsion      ENuc            ....   1729.6619986757 Eh

Convergence Acceleration:
 DIIS                   CNVDIIS         .... on
   Start iteration      DIISMaxIt       ....    12
   Startup error        DIISStart       ....  0.200000
   # of expansion vecs  DIISMaxEq       ....     5
   Bias factor          DIISBfac        ....   1.050
   Max. coefficient     DIISMaxC        ....  10.000
 Newton-Raphson         CNVNR           .... off
 SOSCF                  CNVSOSCF        .... on
   Start iteration      SOSCFMaxIt      ....   150
   Startup grad/error   SOSCFStart      ....  0.003300
 Level Shifting         CNVShift        .... on
   Level shift para.    LevelShift      ....    0.2500
   Turn off err/grad.   ShiftErr        ....    0.0010
 Zerner damping         CNVZerner       .... off
 Static damping         CNVDamp         .... on
   Fraction old density DampFac         ....    0.7000
   Max. Damping (<1)    DampMax         ....    0.9800
   Min. Damping (>=0)   DampMin         ....    0.0000
   Turn off err/grad.   DampErr         ....    0.1000
 Fernandez-Rico         CNVRico         .... off

SCF Procedure:
 Maximum # iterations   MaxIter         ....   125
 SCF integral mode      SCFMode         .... Direct
   Integral package                     .... LIBINT
 Reset frequency        DirectResetFreq ....    20
 Integral Threshold     Thresh          ....  2.500e-11 Eh
 Primitive CutOff       TCut            ....  2.500e-12 Eh

Convergence Tolerance:
 Convergence Check Mode ConvCheckMode   .... Total+1el-Energy
 Convergence forced     ConvForced      .... 1
 Energy Change          TolE            ....  1.000e-08 Eh
 1-El. energy change                    ....  1.000e-05 Eh
 Orbital Gradient       TolG            ....  1.000e-05
 Orbital Rotation angle TolX            ....  1.000e-05
 DIIS Error             TolErr          ....  5.000e-07


Diagonalization of the overlap matrix:
Smallest eigenvalue                        ... 3.350e-05
Time for diagonalization                   ...    0.121 sec
Threshold for overlap eigenvalues          ... 1.000e-08
Number of eigenvalues below threshold      ... 0
Time for construction of square roots      ...    0.064 sec
Total time needed                          ...    0.187 sec

-------------------
DFT GRID GENERATION
-------------------

General Integration Accuracy     IntAcc      ...  4.340
Radial Grid Type                 RadialGrid  ... Gauss-Chebyshev
Angular Grid (max. acc.)         AngularGrid ... Lebedev-110
Angular grid pruning method      GridPruning ... 3 (G Style)
Weight generation scheme         WeightScheme... Becke
Basis function cutoff            BFCut       ...    1.0000e-11
Integration weight cutoff        WCut        ...    1.0000e-14
Grids for H and He will be reduced by one unit

# of grid points (after initial pruning)     ...  46246 (   0.0 sec)
# of grid points (after weights+screening)   ...  41115 (   0.3 sec)
nearest neighbour list constructed           ...    0.0 sec
Grid point re-assignment to atoms done       ...    0.0 sec
Grid point division into batches done        ...    0.0 sec
Reduced shell lists constructed in    1.0 sec

Total number of grid points                  ...    41115
Total number of batches                      ...      661
Average number of points per batch           ...       62
Average number of grid points per atom       ...     1142
Average number of shells per batch           ...   152.65 (51.22%)
Average number of basis functions per batch  ...   388.62 (46.93%)
Average number of large shells per batch     ...    98.40 (64.46%)
Average number of large basis fcns per batch ...   251.47 (64.71%)
Maximum spatial batch extension              ...  16.93, 20.95, 19.60 au
Average spatial batch extension              ...   3.46,  3.40,  3.33 au

Time for grid setup =    1.312 sec

------------------------------
INITIAL GUESS: MODEL POTENTIAL
------------------------------
Loading Hartree-Fock densities                     ... done
Calculating cut-offs                               ... done
Setting up the integral package                    ... done
Initializing the effective Hamiltonian             ... done
Starting the Coulomb interaction                   ... done (   3.3 sec)
Reading the grid                                   ... done
Mapping shells                                     ... done
Starting the XC term evaluation                    ... done (   1.4 sec)
Transforming the Hamiltonian                       ... done (   0.1 sec)
Diagonalizing the Hamiltonian                      ... done (   0.1 sec)
Back transforming the eigenvectors                 ... done (   0.0 sec)
Now organizing SCF variables                       ... done
                      ------------------
                      INITIAL GUESS DONE (   6.5 sec)
                      ------------------
--------------
SCF ITERATIONS
--------------
ITER       Energy         Delta-E        Max-DP      RMS-DP      [F,P]     Damp
               ***  Starting incremental Fock matrix formation  ***
  0  -1269.9190785819   0.000000000000 0.04935197  0.00045931  0.3062147 0.7000
  1  -1270.1883979411  -0.269319359186 0.03611718  0.00037622  0.1795951 0.7000
                               ***Turning on DIIS***
  2  -1270.3557478695  -0.167349928422 0.02587199  0.00024835  0.1098511 0.7000
  3  -1272.4557934553  -2.100045585832 0.06325388  0.00051319  0.0830397 0.0000
  4  -1270.6693275022   1.786465953069 0.01287926  0.00010641  0.0069467 0.0000
  5  -1270.7267223897  -0.057394887496 0.00511141  0.00005489  0.0033203 0.0000
                      *** Initiating the SOSCF procedure ***
                           *** Shutting down DIIS ***
                      *** Re-Reading the Fockian *** 
                      *** Removing any level shift *** 
ITER      Energy       Delta-E        Grad      Rot      Max-DP    RMS-DP
  6  -1270.70374784   0.0229745479  0.001647  0.001647  0.002251  0.000028
               *** Restarting incremental Fock matrix formation ***
  7  -1270.71918781  -0.0154399675  0.000892  0.002121  0.001576  0.000019
  8  -1270.71924061  -0.0000527959  0.000389  0.002489  0.001954  0.000021
  9  -1270.71926151  -0.0000209064  0.000155  0.000330  0.000482  0.000005
 10  -1270.71926430  -0.0000027856  0.000049  0.000133  0.000138  0.000002
 11  -1270.71926458  -0.0000002808  0.000025  0.000142  0.000073  0.000001
 12  -1270.71926466  -0.0000000824  0.000010  0.000038  0.000035  0.000000
 13  -1270.71926467  -0.0000000060  0.000004  0.000012  0.000009  0.000000
                 **** Energy Check signals convergence ****
              ***Rediagonalizing the Fockian in SOSCF/NRSCF***

               *****************************************************
               *                     SUCCESS                       *
               *           SCF CONVERGED AFTER  14 CYCLES          *
               *****************************************************


----------------
TOTAL SCF ENERGY
----------------

Total Energy       :        -1270.71926466 Eh          -34578.02910 eV

Components:
Nuclear Repulsion  :         1729.66199868 Eh           47066.49580 eV
Electronic Energy  :        -3000.38126334 Eh          -81644.52490 eV
One Electron Energy:        -5179.85179516 Eh         -140950.93315 eV
Two Electron Energy:         2179.47053182 Eh           59306.40825 eV

Virial components:
Potential Energy   :        -2539.73892865 Eh          -69109.80972 eV
Kinetic Energy     :         1269.01966399 Eh           34531.78062 eV
Virial Ratio       :            2.00133930


---------------
SCF CONVERGENCE
---------------

  Last Energy change         ...    5.3301e-09  Tolerance :   1.0000e-08
  Last MAX-Density change    ...    4.0279e-06  Tolerance :   1.0000e-07
  Last RMS-Density change    ...    4.7589e-08  Tolerance :   5.0000e-09
  Last Orbital Gradient      ...    1.7465e-06  Tolerance :   1.0000e-05
  Last Orbital Rotation      ...    4.0246e-06  Tolerance :   1.0000e-05

             **** THE GBW FILE WAS UPDATED (G2_CONFS/Conf57.orca.gbw) ****
             **** DENSITY FILE WAS UPDATED (G2_CONFS/Conf57.orca.scfp) ****
             **** ENERGY FILE WAS UPDATED (G2_CONFS/Conf57.orca.en.tmp) ****
             **** THE GBW FILE WAS UPDATED (G2_CONFS/Conf57.orca.gbw) ****
             **** DENSITY FILE WAS UPDATED (G2_CONFS/Conf57.orca.scfp) ****
----------------
ORBITAL ENERGIES
----------------

  NO   OCC          E(Eh)            E(eV) 
   0   2.0000     -91.889476     -2500.4398 
   1   2.0000     -20.602858      -560.6323 
   2   2.0000     -20.598633      -560.5173 
   3   2.0000     -20.551456      -559.2335 
   4   2.0000     -15.623625      -425.1404 
   5   2.0000     -15.612281      -424.8318 
   6   2.0000     -11.397419      -310.1395 
   7   2.0000     -11.385558      -309.8168 
   8   2.0000     -11.331894      -308.3565 
   9   2.0000     -11.323586      -308.1304 
  10   2.0000     -11.317481      -307.9643 
  11   2.0000     -11.304901      -307.6220 
  12   2.0000     -11.275699      -306.8274 
  13   2.0000     -11.270950      -306.6981 
  14   2.0000     -11.264894      -306.5334 
  15   2.0000     -11.253705      -306.2289 
  16   2.0000     -11.242689      -305.9291 
  17   2.0000     -11.241546      -305.8980 
  18   2.0000     -11.234152      -305.6968 
  19   2.0000     -11.232519      -305.6524 
  20   2.0000      -8.894523      -242.0323 
  21   2.0000      -6.576105      -178.9449 
  22   2.0000      -6.574078      -178.8897 
  23   2.0000      -6.573506      -178.8742 
  24   2.0000      -1.448411       -39.4133 
  25   2.0000      -1.418967       -38.6121 
  26   2.0000      -1.361385       -37.0452 
  27   2.0000      -1.340533       -36.4778 
  28   2.0000      -1.244556       -33.8661 
  29   2.0000      -1.159179       -31.5429 
  30   2.0000      -1.126786       -30.6614 
  31   2.0000      -1.048285       -28.5253 
  32   2.0000      -1.042698       -28.3733 
  33   2.0000      -1.017267       -27.6812 
  34   2.0000      -1.005160       -27.3518 
  35   2.0000      -0.987881       -26.8816 
  36   2.0000      -0.931948       -25.3596 
  37   2.0000      -0.881570       -23.9887 
  38   2.0000      -0.858552       -23.3624 
  39   2.0000      -0.842575       -22.9276 
  40   2.0000      -0.834117       -22.6975 
  41   2.0000      -0.833109       -22.6700 
  42   2.0000      -0.758076       -20.6283 
  43   2.0000      -0.739712       -20.1286 
  44   2.0000      -0.725519       -19.7424 
  45   2.0000      -0.700709       -19.0673 
  46   2.0000      -0.696921       -18.9642 
  47   2.0000      -0.681201       -18.5364 
  48   2.0000      -0.677239       -18.4286 
  49   2.0000      -0.666401       -18.1337 
  50   2.0000      -0.656775       -17.8717 
  51   2.0000      -0.647434       -17.6176 
  52   2.0000      -0.639221       -17.3941 
  53   2.0000      -0.612826       -16.6758 
  54   2.0000      -0.608759       -16.5652 
  55   2.0000      -0.602473       -16.3941 
  56   2.0000      -0.595715       -16.2102 
  57   2.0000      -0.582547       -15.8519 
  58   2.0000      -0.574822       -15.6417 
  59   2.0000      -0.568170       -15.4607 
  60   2.0000      -0.561858       -15.2889 
  61   2.0000      -0.558000       -15.1840 
  62   2.0000      -0.554477       -15.0881 
  63   2.0000      -0.526862       -14.3366 
  64   2.0000      -0.520603       -14.1663 
  65   2.0000      -0.513797       -13.9811 
  66   2.0000      -0.506320       -13.7777 
  67   2.0000      -0.503114       -13.6904 
  68   2.0000      -0.492620       -13.4049 
  69   2.0000      -0.462721       -12.5913 
  70   2.0000      -0.455334       -12.3903 
  71   2.0000      -0.449863       -12.2414 
  72   2.0000      -0.349137        -9.5005 
  73   2.0000      -0.348445        -9.4817 
  74   2.0000      -0.326780        -8.8921 
  75   2.0000      -0.323458        -8.8017 
  76   2.0000      -0.310942        -8.4612 
  77   0.0000       0.071791         1.9535 
  78   0.0000       0.107832         2.9342 
  79   0.0000       0.114585         3.1180 
  80   0.0000       0.128034         3.4840 
  81   0.0000       0.133007         3.6193 
  82   0.0000       0.142117         3.8672 
  83   0.0000       0.145944         3.9713 
  84   0.0000       0.155518         4.2319 
  85   0.0000       0.158369         4.3094 
  86   0.0000       0.166351         4.5267 
  87   0.0000       0.174461         4.7473 
  88   0.0000       0.184835         5.0296 
  89   0.0000       0.188166         5.1203 
  90   0.0000       0.199571         5.4306 
  91   0.0000       0.203830         5.5465 
  92   0.0000       0.209822         5.7095 
  93   0.0000       0.215645         5.8680 
  94   0.0000       0.217259         5.9119 
  95   0.0000       0.223714         6.0876 
  96   0.0000       0.236266         6.4291 
  97   0.0000       0.246486         6.7072 
  98   0.0000       0.257197         6.9987 
  99   0.0000       0.265600         7.2274 
 100   0.0000       0.282062         7.6753 
 101   0.0000       0.286303         7.7907 
 102   0.0000       0.306738         8.3468 
 103   0.0000       0.315494         8.5850 
 104   0.0000       0.319623         8.6974 
 105   0.0000       0.321646         8.7524 
 106   0.0000       0.344978         9.3873 
 107   0.0000       0.350620         9.5409 
 108   0.0000       0.354691         9.6516 
 109   0.0000       0.362906         9.8752 
 110   0.0000       0.368820        10.0361 
 111   0.0000       0.371850        10.1185 
 112   0.0000       0.377008        10.2589 
 113   0.0000       0.383800        10.4437 
 114   0.0000       0.395274        10.7559 
 115   0.0000       0.407212        11.0808 
 116   0.0000       0.419941        11.4272 
 117   0.0000       0.423421        11.5219 
 118   0.0000       0.434511        11.8236 
 119   0.0000       0.436494        11.8776 
 120   0.0000       0.437716        11.9109 
 121   0.0000       0.443424        12.0662 
 122   0.0000       0.451655        12.2902 
 123   0.0000       0.455184        12.3862 
 124   0.0000       0.458117        12.4660 
 125   0.0000       0.465849        12.6764 
 126   0.0000       0.468626        12.7520 
 127   0.0000       0.481137        13.0924 
 128   0.0000       0.484428        13.1820 
 129   0.0000       0.489433        13.3181 
 130   0.0000       0.496623        13.5138 
 131   0.0000       0.502302        13.6683 
 132   0.0000       0.506478        13.7820 
 133   0.0000       0.507376        13.8064 
 134   0.0000       0.514962        14.0128 
 135   0.0000       0.521448        14.1893 
 136   0.0000       0.525992        14.3130 
 137   0.0000       0.531916        14.4742 
 138   0.0000       0.533792        14.5252 
 139   0.0000       0.536415        14.5966 
 140   0.0000       0.550597        14.9825 
 141   0.0000       0.554974        15.1016 
 142   0.0000       0.564551        15.3622 
 143   0.0000       0.569978        15.5099 
 144   0.0000       0.573911        15.6169 
 145   0.0000       0.583364        15.8741 
 146   0.0000       0.583724        15.8839 
 147   0.0000       0.586795        15.9675 
 148   0.0000       0.594842        16.1865 
 149   0.0000       0.598365        16.2823 
 150   0.0000       0.604856        16.4590 
 151   0.0000       0.607102        16.5201 
 152   0.0000       0.610913        16.6238 
 153   0.0000       0.614152        16.7119 
 154   0.0000       0.617637        16.8067 
 155   0.0000       0.625566        17.0225 
 156   0.0000       0.629031        17.1168 
 157   0.0000       0.633756        17.2454 
 158   0.0000       0.636182        17.3114 
 159   0.0000       0.642469        17.4825 
 160   0.0000       0.645604        17.5678 
 161   0.0000       0.647975        17.6323 
 162   0.0000       0.653966        17.7953 
 163   0.0000       0.663448        18.0533 
 164   0.0000       0.665152        18.0997 
 165   0.0000       0.674876        18.3643 
 166   0.0000       0.678910        18.4741 
 167   0.0000       0.682936        18.5836 
 168   0.0000       0.686271        18.6744 
 169   0.0000       0.696918        18.9641 
 170   0.0000       0.702147        19.1064 
 171   0.0000       0.704923        19.1819 
 172   0.0000       0.715909        19.4809 
 173   0.0000       0.726742        19.7757 
 174   0.0000       0.729419        19.8485 
 175   0.0000       0.730924        19.8895 
 176   0.0000       0.745536        20.2871 
 177   0.0000       0.753048        20.4915 
 178   0.0000       0.759307        20.6618 
 179   0.0000       0.765013        20.8171 
 180   0.0000       0.779783        21.2190 
 181   0.0000       0.787239        21.4219 
 182   0.0000       0.789893        21.4941 
 183   0.0000       0.791831        21.5468 
 184   0.0000       0.806558        21.9476 
 185   0.0000       0.814075        22.1521 
 186   0.0000       0.815486        22.1905 
 187   0.0000       0.823640        22.4124 
 188   0.0000       0.828644        22.5485 
 189   0.0000       0.843272        22.9466 
 190   0.0000       0.845996        23.0207 
 191   0.0000       0.851112        23.1599 
 192   0.0000       0.856424        23.3045 
 193   0.0000       0.864506        23.5244 
 194   0.0000       0.878126        23.8950 
 195   0.0000       0.880328        23.9549 
 196   0.0000       0.886762        24.1300 
 197   0.0000       0.892981        24.2993 
 198   0.0000       0.900584        24.5061 
 199   0.0000       0.904156        24.6033 
 200   0.0000       0.911217        24.7955 
 201   0.0000       0.918433        24.9918 
 202   0.0000       0.923753        25.1366 
 203   0.0000       0.927922        25.2500 
 204   0.0000       0.939263        25.5586 
 205   0.0000       0.951331        25.8870 
 206   0.0000       0.956192        26.0193 
 207   0.0000       0.961845        26.1731 
 208   0.0000       0.970381        26.4054 
 209   0.0000       0.973869        26.5003 
 210   0.0000       0.981244        26.7010 
 211   0.0000       0.987088        26.8600 
 212   0.0000       1.000773        27.2324 
 213   0.0000       1.003446        27.3051 
 214   0.0000       1.016124        27.6502 
 215   0.0000       1.018256        27.7082 
 216   0.0000       1.026339        27.9281 
 217   0.0000       1.037499        28.2318 
 218   0.0000       1.038345        28.2548 
 219   0.0000       1.046685        28.4818 
 220   0.0000       1.048208        28.5232 
 221   0.0000       1.057067        28.7643 
 222   0.0000       1.059853        28.8401 
 223   0.0000       1.071274        29.1509 
 224   0.0000       1.076573        29.2950 
 225   0.0000       1.092789        29.7363 
 226   0.0000       1.094384        29.7797 
 227   0.0000       1.101836        29.9825 
 228   0.0000       1.111292        30.2398 
 229   0.0000       1.116715        30.3873 
 230   0.0000       1.124702        30.6047 
 231   0.0000       1.131677        30.7945 
 232   0.0000       1.132348        30.8128 
 233   0.0000       1.146024        31.1849 
 234   0.0000       1.148919        31.2637 
 235   0.0000       1.155961        31.4553 
 236   0.0000       1.169092        31.8126 
 237   0.0000       1.181158        32.1409 
 238   0.0000       1.187883        32.3239 
 239   0.0000       1.187986        32.3267 
 240   0.0000       1.200749        32.6740 
 241   0.0000       1.202011        32.7084 
 242   0.0000       1.206339        32.8262 
 243   0.0000       1.209496        32.9121 
 244   0.0000       1.219282        33.1784 
 245   0.0000       1.225010        33.3342 
 246   0.0000       1.232374        33.5346 
 247   0.0000       1.245522        33.8924 
 248   0.0000       1.251265        34.0487 
 249   0.0000       1.254815        34.1453 
 250   0.0000       1.262227        34.3469 
 251   0.0000       1.273966        34.6664 
 252   0.0000       1.282684        34.9036 
 253   0.0000       1.286918        35.0188 
 254   0.0000       1.292175        35.1619 
 255   0.0000       1.304198        35.4890 
 256   0.0000       1.311225        35.6803 
 257   0.0000       1.317577        35.8531 
 258   0.0000       1.325856        36.0784 
 259   0.0000       1.331924        36.2435 
 260   0.0000       1.341978        36.5171 
 261   0.0000       1.349631        36.7253 
 262   0.0000       1.357068        36.9277 
 263   0.0000       1.364566        37.1317 
 264   0.0000       1.370018        37.2801 
 265   0.0000       1.378679        37.5158 
 266   0.0000       1.381947        37.6047 
 267   0.0000       1.392688        37.8970 
 268   0.0000       1.398447        38.0537 
 269   0.0000       1.411729        38.4151 
 270   0.0000       1.422979        38.7212 
 271   0.0000       1.428855        38.8811 
 272   0.0000       1.439577        39.1729 
 273   0.0000       1.447071        39.3768 
 274   0.0000       1.451057        39.4853 
 275   0.0000       1.462816        39.8052 
 276   0.0000       1.471813        40.0501 
 277   0.0000       1.478265        40.2256 
 278   0.0000       1.480048        40.2742 
 279   0.0000       1.488147        40.4945 
 280   0.0000       1.495667        40.6992 
 281   0.0000       1.501241        40.8508 
 282   0.0000       1.504883        40.9500 
 283   0.0000       1.507896        41.0319 
 284   0.0000       1.514210        41.2037 
 285   0.0000       1.518200        41.3123 
 286   0.0000       1.532356        41.6975 
 287   0.0000       1.540542        41.9203 
 288   0.0000       1.542650        41.9776 
 289   0.0000       1.548658        42.1411 
 290   0.0000       1.556415        42.3522 
 291   0.0000       1.570351        42.7314 
 292   0.0000       1.575186        42.8630 
 293   0.0000       1.581984        43.0480 
 294   0.0000       1.584809        43.1249 
 295   0.0000       1.592637        43.3379 
 296   0.0000       1.602195        43.5979 
 297   0.0000       1.615963        43.9726 
 298   0.0000       1.621252        44.1165 
 299   0.0000       1.627042        44.2741 
 300   0.0000       1.639364        44.6094 
 301   0.0000       1.641792        44.6754 
 302   0.0000       1.651418        44.9374 
 303   0.0000       1.658496        45.1300 
 304   0.0000       1.671179        45.4751 
 305   0.0000       1.679892        45.7122 
 306   0.0000       1.684989        45.8509 
 307   0.0000       1.690508        46.0011 
 308   0.0000       1.696253        46.1574 
 309   0.0000       1.711847        46.5817 
 310   0.0000       1.720615        46.8203 
 311   0.0000       1.724238        46.9189 
 312   0.0000       1.732614        47.1468 
 313   0.0000       1.739786        47.3420 
 314   0.0000       1.752159        47.6787 
 315   0.0000       1.754031        47.7296 
 316   0.0000       1.773294        48.2538 
 317   0.0000       1.784069        48.5470 
 318   0.0000       1.786625        48.6165 
 319   0.0000       1.798893        48.9504 
 320   0.0000       1.805755        49.1371 
 321   0.0000       1.819045        49.4987 
 322   0.0000       1.828056        49.7439 
 323   0.0000       1.836253        49.9670 
 324   0.0000       1.852565        50.4109 
 325   0.0000       1.871330        50.9215 
 326   0.0000       1.885020        51.2940 
 327   0.0000       1.896559        51.6080 
 328   0.0000       1.909378        51.9568 
 329   0.0000       1.925266        52.3892 
 330   0.0000       1.937986        52.7353 
 331   0.0000       1.944659        52.9169 
 332   0.0000       1.955360        53.2080 
 333   0.0000       1.962985        53.4155 
 334   0.0000       1.966822        53.5199 
 335   0.0000       1.978565        53.8395 
 336   0.0000       1.995746        54.3070 
 337   0.0000       2.003172        54.5091 
 338   0.0000       2.010201        54.7004 
 339   0.0000       2.017948        54.9111 
 340   0.0000       2.036826        55.4249 
 341   0.0000       2.052210        55.8435 
 342   0.0000       2.064063        56.1660 
 343   0.0000       2.068268        56.2804 
 344   0.0000       2.078393        56.5560 
 345   0.0000       2.097274        57.0697 
 346   0.0000       2.134332        58.0781 
 347   0.0000       2.147347        58.4323 
 348   0.0000       2.159507        58.7632 
 349   0.0000       2.164292        58.8934 
 350   0.0000       2.195924        59.7541 
 351   0.0000       2.201049        59.8936 
 352   0.0000       2.223496        60.5044 
 353   0.0000       2.229873        60.6779 
 354   0.0000       2.239661        60.9443 
 355   0.0000       2.260239        61.5042 
 356   0.0000       2.283941        62.1492 
 357   0.0000       2.291090        62.3437 
 358   0.0000       2.304026        62.6957 
 359   0.0000       2.310931        62.8836 
 360   0.0000       2.334378        63.5217 
 361   0.0000       2.337141        63.5968 
 362   0.0000       2.343557        63.7714 
 363   0.0000       2.349317        63.9282 
 364   0.0000       2.363337        64.3097 
 365   0.0000       2.372588        64.5614 
 366   0.0000       2.387731        64.9735 
 367   0.0000       2.392665        65.1077 
 368   0.0000       2.410562        65.5947 
 369   0.0000       2.425652        66.0054 
 370   0.0000       2.428733        66.0892 
 371   0.0000       2.442811        66.4723 
 372   0.0000       2.445465        66.5445 
 373   0.0000       2.473388        67.3043 
 374   0.0000       2.482124        67.5420 
 375   0.0000       2.489399        67.7400 
 376   0.0000       2.495842        67.9153 
 377   0.0000       2.513623        68.3992 
 378   0.0000       2.525041        68.7099 
 379   0.0000       2.553407        69.4817 
 380   0.0000       2.561945        69.7141 
 381   0.0000       2.577352        70.1333 
 382   0.0000       2.597402        70.6789 
 383   0.0000       2.599395        70.7331 
 384   0.0000       2.608941        70.9929 
 385   0.0000       2.612833        71.0988 
 386   0.0000       2.630349        71.5754 
 387   0.0000       2.637682        71.7750 
 388   0.0000       2.649005        72.0831 
 389   0.0000       2.660560        72.3975 
 390   0.0000       2.669537        72.6418 
 391   0.0000       2.694204        73.3130 
 392   0.0000       2.699075        73.4456 
 393   0.0000       2.710508        73.7567 
 394   0.0000       2.724119        74.1270 
 395   0.0000       2.730035        74.2880 
 396   0.0000       2.740066        74.5610 
 397   0.0000       2.749474        74.8170 
 398   0.0000       2.755262        74.9745 
 399   0.0000       2.764238        75.2187 
 400   0.0000       2.781396        75.6856 
 401   0.0000       2.788448        75.8775 
 402   0.0000       2.797190        76.1154 
 403   0.0000       2.798276        76.1450 
 404   0.0000       2.817466        76.6672 
 405   0.0000       2.825242        76.8787 
 406   0.0000       2.827533        76.9411 
 407   0.0000       2.841166        77.3120 
 408   0.0000       2.847698        77.4898 
 409   0.0000       2.850543        77.5672 
 410   0.0000       2.884347        78.4871 
 411   0.0000       2.889615        78.6304 
 412   0.0000       2.898954        78.8846 
 413   0.0000       2.912014        79.2399 
 414   0.0000       2.920686        79.4759 
 415   0.0000       2.927307        79.6561 
 416   0.0000       2.936160        79.8970 
 417   0.0000       2.948175        80.2239 
 418   0.0000       2.950992        80.3006 
 419   0.0000       2.957376        80.4743 
 420   0.0000       2.969900        80.8151 
 421   0.0000       2.977183        81.0133 
 422   0.0000       2.987094        81.2830 
 423   0.0000       2.994079        81.4730 
 424   0.0000       3.002844        81.7115 
 425   0.0000       3.012094        81.9632 
 426   0.0000       3.018399        82.1348 
 427   0.0000       3.022553        82.2478 
 428   0.0000       3.030279        82.4581 
 429   0.0000       3.042010        82.7773 
 430   0.0000       3.051587        83.0379 
 431   0.0000       3.052914        83.0740 
 432   0.0000       3.060750        83.2872 
 433   0.0000       3.067674        83.4757 
 434   0.0000       3.078997        83.7838 
 435   0.0000       3.082549        83.8804 
 436   0.0000       3.087754        84.0221 
 437   0.0000       3.092845        84.1606 
 438   0.0000       3.096682        84.2650 
 439   0.0000       3.107882        84.5698 
 440   0.0000       3.115319        84.7721 
 441   0.0000       3.122600        84.9703 
 442   0.0000       3.123830        85.0037 
 443   0.0000       3.127992        85.1170 
 444   0.0000       3.133070        85.2552 
 445   0.0000       3.147440        85.6462 
 446   0.0000       3.152373        85.7804 
 447   0.0000       3.176932        86.4487 
 448   0.0000       3.184001        86.6411 
 449   0.0000       3.191038        86.8326 
 450   0.0000       3.192841        86.8816 
 451   0.0000       3.204546        87.2001 
 452   0.0000       3.212200        87.4084 
 453   0.0000       3.223130        87.7058 
 454   0.0000       3.228015        87.8387 
 455   0.0000       3.233406        87.9854 
 456   0.0000       3.238404        88.1215 
 457   0.0000       3.244845        88.2967 
 458   0.0000       3.255279        88.5807 
 459   0.0000       3.260652        88.7269 
 460   0.0000       3.273872        89.0866 
 461   0.0000       3.278875        89.2227 
 462   0.0000       3.285558        89.4046 
 463   0.0000       3.288632        89.4882 
 464   0.0000       3.295855        89.6848 
 465   0.0000       3.297589        89.7319 
 466   0.0000       3.305418        89.9450 
 467   0.0000       3.308480        90.0283 
 468   0.0000       3.315759        90.2264 
 469   0.0000       3.322649        90.4139 
 470   0.0000       3.331840        90.6640 
 471   0.0000       3.335569        90.7655 
 472   0.0000       3.344045        90.9961 
 473   0.0000       3.348290        91.1116 
 474   0.0000       3.352276        91.2201 
 475   0.0000       3.360170        91.4349 
 476   0.0000       3.365174        91.5710 
 477   0.0000       3.366449        91.6057 
 478   0.0000       3.382642        92.0464 
 479   0.0000       3.385447        92.1227 
 480   0.0000       3.394285        92.3632 
 481   0.0000       3.395721        92.4023 
 482   0.0000       3.404297        92.6356 
 483   0.0000       3.409149        92.7677 
 484   0.0000       3.414659        92.9176 
 485   0.0000       3.421464        93.1028 
 486   0.0000       3.424432        93.1835 
 487   0.0000       3.429642        93.3253 
 488   0.0000       3.431009        93.3625 
 489   0.0000       3.443696        93.7077 
 490   0.0000       3.447383        93.8080 
 491   0.0000       3.455193        94.0206 
 492   0.0000       3.460973        94.1779 
 493   0.0000       3.465620        94.3043 
 494   0.0000       3.471490        94.4641 
 495   0.0000       3.482694        94.7689 
 496   0.0000       3.485511        94.8456 
 497   0.0000       3.487505        94.8998 
 498   0.0000       3.494307        95.0849 
 499   0.0000       3.503372        95.3316 
 500   0.0000       3.513362        95.6034 
 501   0.0000       3.515727        95.6678 
 502   0.0000       3.527755        95.9951 
 503   0.0000       3.534499        96.1786 
 504   0.0000       3.548437        96.5579 
 505   0.0000       3.552508        96.6687 
 506   0.0000       3.560409        96.8837 
 507   0.0000       3.567676        97.0814 
 508   0.0000       3.578075        97.3644 
 509   0.0000       3.590603        97.7053 
 510   0.0000       3.597910        97.9041 
 511   0.0000       3.604109        98.0728 
 512   0.0000       3.613049        98.3160 
 513   0.0000       3.616744        98.4166 
 514   0.0000       3.627840        98.7185 
 515   0.0000       3.629841        98.7730 
 516   0.0000       3.634300        98.8943 
 517   0.0000       3.639117        99.0254 
 518   0.0000       3.643249        99.1378 
 519   0.0000       3.654029        99.4312 
 520   0.0000       3.659854        99.5897 
 521   0.0000       3.662546        99.6629 
 522   0.0000       3.670017        99.8662 
 523   0.0000       3.678089       100.0859 
 524   0.0000       3.685576       100.2896 
 525   0.0000       3.691825       100.4597 
 526   0.0000       3.697935       100.6259 
 527   0.0000       3.704414       100.8022 
 528   0.0000       3.716012       101.1178 
 529   0.0000       3.717022       101.1453 
 530   0.0000       3.720230       101.2326 
 531   0.0000       3.723021       101.3086 
 532   0.0000       3.734156       101.6116 
 533   0.0000       3.738722       101.7358 
 534   0.0000       3.741648       101.8154 
 535   0.0000       3.746919       101.9589 
 536   0.0000       3.755848       102.2018 
 537   0.0000       3.763151       102.4006 
 538   0.0000       3.770625       102.6039 
 539   0.0000       3.777637       102.7947 
 540   0.0000       3.783512       102.9546 
 541   0.0000       3.794613       103.2567 
 542   0.0000       3.795884       103.2913 
 543   0.0000       3.811732       103.7225 
 544   0.0000       3.819692       103.9391 
 545   0.0000       3.824044       104.0575 
 546   0.0000       3.827145       104.1419 
 547   0.0000       3.833758       104.3218 
 548   0.0000       3.839739       104.4846 
 549   0.0000       3.848379       104.7197 
 550   0.0000       3.861865       105.0867 
 551   0.0000       3.867706       105.2456 
 552   0.0000       3.877339       105.5078 
 553   0.0000       3.888611       105.8145 
 554   0.0000       3.902375       106.1890 
 555   0.0000       3.906058       106.2892 
 556   0.0000       3.912366       106.4609 
 557   0.0000       3.917576       106.6027 
 558   0.0000       3.927862       106.8826 
 559   0.0000       3.935067       107.0786 
 560   0.0000       3.938686       107.1771 
 561   0.0000       3.957190       107.6806 
 562   0.0000       3.959468       107.7426 
 563   0.0000       3.970262       108.0363 
 564   0.0000       3.983089       108.3854 
 565   0.0000       3.989907       108.5709 
 566   0.0000       3.998362       108.8010 
 567   0.0000       4.000138       108.8493 
 568   0.0000       4.011958       109.1709 
 569   0.0000       4.024377       109.5089 
 570   0.0000       4.029272       109.6421 
 571   0.0000       4.030620       109.6787 
 572   0.0000       4.037164       109.8568 
 573   0.0000       4.047769       110.1454 
 574   0.0000       4.057791       110.4181 
 575   0.0000       4.065228       110.6205 
 576   0.0000       4.071340       110.7868 
 577   0.0000       4.084682       111.1499 
 578   0.0000       4.091428       111.3334 
 579   0.0000       4.104051       111.6769 
 580   0.0000       4.110386       111.8493 
 581   0.0000       4.116408       112.0131 
 582   0.0000       4.124645       112.2373 
 583   0.0000       4.128325       112.3374 
 584   0.0000       4.142511       112.7235 
 585   0.0000       4.147782       112.8669 
 586   0.0000       4.149645       112.9176 
 587   0.0000       4.153307       113.0172 
 588   0.0000       4.163303       113.2892 
 589   0.0000       4.170708       113.4907 
 590   0.0000       4.175993       113.6346 
 591   0.0000       4.189751       114.0089 
 592   0.0000       4.194721       114.1442 
 593   0.0000       4.202650       114.3599 
 594   0.0000       4.209826       114.5552 
 595   0.0000       4.214526       114.6831 
 596   0.0000       4.222294       114.8945 
 597   0.0000       4.236794       115.2890 
 598   0.0000       4.243975       115.4844 
 599   0.0000       4.252283       115.7105 
 600   0.0000       4.259482       115.9064 
 601   0.0000       4.265751       116.0770 
 602   0.0000       4.281199       116.4973 
 603   0.0000       4.284101       116.5763 
 604   0.0000       4.291644       116.7816 
 605   0.0000       4.305138       117.1488 
 606   0.0000       4.309296       117.2619 
 607   0.0000       4.317489       117.4849 
 608   0.0000       4.323308       117.6432 
 609   0.0000       4.341595       118.1408 
 610   0.0000       4.347830       118.3105 
 611   0.0000       4.351675       118.4151 
 612   0.0000       4.360887       118.6658 
 613   0.0000       4.367022       118.8327 
 614   0.0000       4.377885       119.1283 
 615   0.0000       4.379572       119.1742 
 616   0.0000       4.385633       119.3391 
 617   0.0000       4.393306       119.5479 
 618   0.0000       4.396018       119.6217 
 619   0.0000       4.403912       119.8365 
 620   0.0000       4.409986       120.0018 
 621   0.0000       4.423525       120.3702 
 622   0.0000       4.430526       120.5607 
 623   0.0000       4.442516       120.8870 
 624   0.0000       4.459754       121.3561 
 625   0.0000       4.463298       121.4525 
 626   0.0000       4.465520       121.5130 
 627   0.0000       4.475616       121.7877 
 628   0.0000       4.482323       121.9702 
 629   0.0000       4.486687       122.0890 
 630   0.0000       4.506929       122.6398 
 631   0.0000       4.513691       122.8238 
 632   0.0000       4.518763       122.9618 
 633   0.0000       4.523168       123.0817 
 634   0.0000       4.537628       123.4751 
 635   0.0000       4.548948       123.7832 
 636   0.0000       4.549760       123.8053 
 637   0.0000       4.557795       124.0239 
 638   0.0000       4.569310       124.3373 
 639   0.0000       4.576095       124.5219 
 640   0.0000       4.578154       124.5779 
 641   0.0000       4.581902       124.6799 
 642   0.0000       4.591604       124.9439 
 643   0.0000       4.603845       125.2770 
 644   0.0000       4.611401       125.4826 
 645   0.0000       4.619354       125.6990 
 646   0.0000       4.626886       125.9040 
 647   0.0000       4.627911       125.9319 
 648   0.0000       4.645168       126.4015 
 649   0.0000       4.649110       126.5087 
 650   0.0000       4.656042       126.6974 
 651   0.0000       4.664732       126.9338 
 652   0.0000       4.677328       127.2766 
 653   0.0000       4.694808       127.7522 
 654   0.0000       4.703135       127.9788 
 655   0.0000       4.705588       128.0456 
 656   0.0000       4.707578       128.0997 
 657   0.0000       4.718645       128.4009 
 658   0.0000       4.727014       128.6286 
 659   0.0000       4.739171       128.9594 
 660   0.0000       4.740560       128.9972 
 661   0.0000       4.759197       129.5043 
 662   0.0000       4.772318       129.8614 
 663   0.0000       4.797135       130.5367 
 664   0.0000       4.827081       131.3516 
 665   0.0000       4.836011       131.5946 
 666   0.0000       4.855755       132.1318 
 667   0.0000       4.871016       132.5471 
 668   0.0000       4.872962       132.6000 
 669   0.0000       4.889725       133.0562 
 670   0.0000       4.907286       133.5340 
 671   0.0000       4.918286       133.8334 
 672   0.0000       4.930153       134.1563 
 673   0.0000       4.950489       134.7096 
 674   0.0000       4.957612       134.9035 
 675   0.0000       4.987895       135.7275 
 676   0.0000       5.002891       136.1356 
 677   0.0000       5.011747       136.3766 
 678   0.0000       5.014066       136.4397 
 679   0.0000       5.031610       136.9171 
 680   0.0000       5.042159       137.2041 
 681   0.0000       5.046930       137.3340 
 682   0.0000       5.053935       137.5246 
 683   0.0000       5.108114       138.9988 
 684   0.0000       5.111352       139.0870 
 685   0.0000       5.117073       139.2426 
 686   0.0000       5.121218       139.3554 
 687   0.0000       5.137692       139.8037 
 688   0.0000       5.150242       140.1452 
 689   0.0000       5.161113       140.4410 
 690   0.0000       5.170343       140.6922 
 691   0.0000       5.174256       140.7987 
 692   0.0000       5.187986       141.1723 
 693   0.0000       5.193226       141.3149 
 694   0.0000       5.201923       141.5515 
 695   0.0000       5.220838       142.0662 
 696   0.0000       5.223264       142.1322 
 697   0.0000       5.225787       142.2009 
 698   0.0000       5.236255       142.4857 
 699   0.0000       5.249471       142.8454 
 700   0.0000       5.262420       143.1977 
 701   0.0000       5.269916       143.4017 
 702   0.0000       5.285634       143.8294 
 703   0.0000       5.297307       144.1470 
 704   0.0000       5.320166       144.7691 
 705   0.0000       5.336446       145.2121 
 706   0.0000       5.349327       145.5626 
 707   0.0000       5.354692       145.7086 
 708   0.0000       5.370240       146.1317 
 709   0.0000       5.387287       146.5955 
 710   0.0000       5.400284       146.9492 
 711   0.0000       5.403660       147.0411 
 712   0.0000       5.418669       147.4495 
 713   0.0000       5.460937       148.5997 
 714   0.0000       5.469225       148.8252 
 715   0.0000       5.472983       148.9274 
 716   0.0000       5.478662       149.0820 
 717   0.0000       5.491634       149.4350 
 718   0.0000       5.500808       149.6846 
 719   0.0000       5.513060       150.0180 
 720   0.0000       5.524454       150.3280 
 721   0.0000       5.542316       150.8141 
 722   0.0000       5.552272       151.0850 
 723   0.0000       5.555626       151.1763 
 724   0.0000       5.576540       151.7454 
 725   0.0000       5.588432       152.0690 
 726   0.0000       5.598321       152.3381 
 727   0.0000       5.621706       152.9744 
 728   0.0000       5.630958       153.2262 
 729   0.0000       5.642291       153.5346 
 730   0.0000       5.643811       153.5759 
 731   0.0000       5.656693       153.9264 
 732   0.0000       5.668160       154.2385 
 733   0.0000       5.678597       154.5225 
 734   0.0000       5.697873       155.0470 
 735   0.0000       5.706178       155.2730 
 736   0.0000       5.709021       155.3504 
 737   0.0000       5.730642       155.9387 
 738   0.0000       5.743737       156.2950 
 739   0.0000       5.764347       156.8559 
 740   0.0000       5.766528       156.9152 
 741   0.0000       5.784445       157.4027 
 742   0.0000       5.792042       157.6095 
 743   0.0000       5.826043       158.5347 
 744   0.0000       5.838767       158.8809 
 745   0.0000       5.852308       159.2494 
 746   0.0000       5.872762       159.8060 
 747   0.0000       5.874689       159.8584 
 748   0.0000       5.888679       160.2391 
 749   0.0000       5.920597       161.1076 
 750   0.0000       5.951880       161.9589 
 751   0.0000       5.953399       162.0002 
 752   0.0000       5.974817       162.5830 
 753   0.0000       5.981825       162.7737 
 754   0.0000       5.994074       163.1070 
 755   0.0000       6.011285       163.5754 
 756   0.0000       6.043977       164.4650 
 757   0.0000       6.070103       165.1759 
 758   0.0000       6.082780       165.5209 
 759   0.0000       6.126240       166.7035 
 760   0.0000       6.154355       167.4685 
 761   0.0000       6.196517       168.6158 
 762   0.0000       6.209726       168.9752 
 763   0.0000       6.226463       169.4307 
 764   0.0000       6.241576       169.8419 
 765   0.0000       6.259377       170.3263 
 766   0.0000       6.289802       171.1542 
 767   0.0000       6.314050       171.8140 
 768   0.0000       6.331630       172.2924 
 769   0.0000       6.349550       172.7800 
 770   0.0000       6.351955       172.8455 
 771   0.0000       6.389090       173.8560 
 772   0.0000       6.391409       173.9191 
 773   0.0000       6.456666       175.6948 
 774   0.0000       6.464669       175.9126 
 775   0.0000       6.497382       176.8028 
 776   0.0000       6.529887       177.6872 
 777   0.0000       6.554773       178.3644 
 778   0.0000       6.574928       178.9129 
 779   0.0000       6.602817       179.6718 
 780   0.0000       6.666079       181.3932 
 781   0.0000       6.694664       182.1711 
 782   0.0000       6.704747       182.4455 
 783   0.0000       6.751633       183.7213 
 784   0.0000       6.789406       184.7491 
 785   0.0000       6.853293       186.4876 
 786   0.0000       6.882120       187.2720 
 787   0.0000       6.910469       188.0434 
 788   0.0000       6.936657       188.7560 
 789   0.0000       6.966210       189.5602 
 790   0.0000       7.019907       191.0214 
 791   0.0000       7.083675       192.7566 
 792   0.0000       7.099341       193.1829 
 793   0.0000       7.134987       194.1529 
 794   0.0000       7.220669       196.4844 
 795   0.0000       7.245723       197.1661 
 796   0.0000       7.280009       198.0991 
 797   0.0000       7.281940       198.1517 
 798   0.0000       7.338045       199.6783 
 799   0.0000       7.372098       200.6050 
 800   0.0000       7.400009       201.3645 
 801   0.0000       7.497130       204.0073 
 802   0.0000       7.545626       205.3269 
 803   0.0000       7.560389       205.7286 
 804   0.0000       7.591356       206.5713 
 805   0.0000       7.786960       211.8940 
 806   0.0000       7.822863       212.8709 
 807   0.0000       7.926251       215.6843 
 808   0.0000       8.014601       218.0884 
 809   0.0000       9.435475       256.7523 
 810   0.0000       9.589178       260.9348 
 811   0.0000      10.854617       295.3692 
 812   0.0000      11.121654       302.6356 
 813   0.0000      12.191545       331.7488 
 814   0.0000      12.630559       343.6950 
 815   0.0000      12.802856       348.3834 
 816   0.0000      13.028158       354.5142 
 817   0.0000      13.302709       361.9851 
 818   0.0000      13.410995       364.9317 
 819   0.0000      13.474203       366.6517 
 820   0.0000      13.619116       370.5950 
 821   0.0000      13.668691       371.9440 
 822   0.0000      13.832270       376.3952 
 823   0.0000      13.901183       378.2704 
 824   0.0000      13.964435       379.9916 
 825   0.0000      14.322761       389.7422 
 826   0.0000      14.479915       394.0185 
 827   0.0000      15.886546       432.2949 

                    ********************************
                    * MULLIKEN POPULATION ANALYSIS *
                    ********************************

-----------------------
MULLIKEN ATOMIC CHARGES
-----------------------
   0 C :   -0.265558
   1 C :    0.024770
   2 O :   -0.298386
   3 C :    0.375949
   4 O :   -0.382551
   5 C :   -0.136109
   6 C :    0.094986
   7 C :   -0.317033
   8 N :   -0.129962
   9 C :    0.187519
  10 S :   -0.438397
  11 N :   -0.199759
  12 C :    0.106331
  13 C :    0.046014
  14 C :   -0.210386
  15 C :   -0.122102
  16 C :   -0.284098
  17 C :    0.326038
  18 O :   -0.360457
  19 C :   -0.298376
  20 H :    0.114412
  21 H :    0.091414
  22 H :    0.092092
  23 H :    0.087613
  24 H :    0.103955
  25 H :    0.133568
  26 H :    0.127677
  27 H :    0.121641
  28 H :    0.188081
  29 H :    0.190435
  30 H :    0.185218
  31 H :    0.143344
  32 H :    0.159695
  33 H :    0.129175
  34 H :    0.243836
  35 H :    0.169410
Sum of atomic charges:   -0.0000000

--------------------------------
MULLIKEN REDUCED ORBITAL CHARGES
--------------------------------
  0 C s       :     3.265284  s :     3.265284
      pz      :     1.002412  p :     2.923366
      px      :     0.974216
      py      :     0.946738
      dz2     :     0.021158  d :     0.072389
      dxz     :     0.016337
      dyz     :     0.006846
      dx2y2   :     0.011227
      dxy     :     0.016822
      f0      :     0.000894  f :     0.004519
      f+1     :     0.000709
      f-1     :     0.000511
      f+2     :     0.000196
      f-2     :     0.000435
      f+3     :     0.001390
      f-3     :     0.000385
  1 C s       :     3.171871  s :     3.171871
      pz      :     0.983915  p :     2.634198
      px      :     0.670112
      py      :     0.980170
      dz2     :     0.032824  d :     0.157431
      dxz     :     0.029626
      dyz     :     0.015998
      dx2y2   :     0.040757
      dxy     :     0.038226
      f0      :     0.001845  f :     0.011731
      f+1     :     0.001814
      f-1     :     0.000553
      f+2     :     0.001476
      f-2     :     0.001296
      f+3     :     0.002516
      f-3     :     0.002232
  2 O s       :     3.715406  s :     3.715406
      pz      :     1.768472  p :     4.546713
      px      :     1.184897
      py      :     1.593343
      dz2     :     0.004489  d :     0.033989
      dxz     :     0.006327
      dyz     :     0.002925
      dx2y2   :     0.005169
      dxy     :     0.015079
      f0      :     0.000257  f :     0.002277
      f+1     :     0.000448
      f-1     :     0.000154
      f+2     :     0.000183
      f-2     :     0.000230
      f+3     :     0.000466
      f-3     :     0.000540
  3 C s       :     3.101195  s :     3.101195
      pz      :     0.723804  p :     2.202608
      px      :     0.705942
      py      :     0.772862
      dz2     :     0.039443  d :     0.294051
      dxz     :     0.079977
      dyz     :     0.023408
      dx2y2   :     0.076308
      dxy     :     0.074915
      f0      :     0.002217  f :     0.026198
      f+1     :     0.003447
      f-1     :     0.001820
      f+2     :     0.002749
      f-2     :     0.004399
      f+3     :     0.006966
      f-3     :     0.004601
  4 O s       :     3.762828  s :     3.762828
      pz      :     1.517084  p :     4.581106
      px      :     1.435360
      py      :     1.628662
      dz2     :     0.005370  d :     0.036138
      dxz     :     0.010580
      dyz     :     0.001740
      dx2y2   :     0.009070
      dxy     :     0.009378
      f0      :     0.000197  f :     0.002479
      f+1     :     0.000442
      f-1     :     0.000045
      f+2     :     0.000416
      f-2     :     0.000277
      f+3     :     0.000502
      f-3     :     0.000598
  5 C s       :     3.181734  s :     3.181734
      pz      :     0.941631  p :     2.846804
      px      :     0.934654
      py      :     0.970519
      dz2     :     0.017799  d :     0.096521
      dxz     :     0.013836
      dyz     :     0.027461
      dx2y2   :     0.023564
      dxy     :     0.013860
      f0      :     0.000945  f :     0.011050
      f+1     :     0.001454
      f-1     :     0.001911
      f+2     :     0.002036
      f-2     :     0.001572
      f+3     :     0.001141
      f-3     :     0.001990
  6 C s       :     3.207471  s :     3.207471
      pz      :     0.877536  p :     2.513597
      px      :     0.856089
      py      :     0.779972
      dz2     :     0.032947  d :     0.170118
      dxz     :     0.020349
      dyz     :     0.047685
      dx2y2   :     0.032279
      dxy     :     0.036857
      f0      :     0.001705  f :     0.013829
      f+1     :     0.001233
      f-1     :     0.002674
      f+2     :     0.002059
      f-2     :     0.002305
      f+3     :     0.001745
      f-3     :     0.002108
  7 C s       :     3.296471  s :     3.296471
      pz      :     0.892230  p :     2.941862
      px      :     1.003516
      py      :     1.046117
      dz2     :     0.020899  d :     0.074085
      dxz     :     0.012964
      dyz     :     0.013536
      dx2y2   :     0.020071
      dxy     :     0.006615
      f0      :     0.000806  f :     0.004614
      f+1     :     0.001032
      f-1     :     0.000995
      f+2     :     0.000357
      f-2     :     0.000378
      f+3     :     0.000789
      f-3     :     0.000257
  8 N s       :     3.343456  s :     3.343456
      pz      :     1.241362  p :     3.721310
      px      :     1.402439
      py      :     1.077509
      dz2     :     0.013410  d :     0.060221
      dxz     :     0.009442
      dyz     :     0.014877
      dx2y2   :     0.010771
      dxy     :     0.011721
      f0      :     0.000620  f :     0.004974
      f+1     :     0.001025
      f-1     :     0.000594
      f+2     :     0.000973
      f-2     :     0.000955
      f+3     :     0.000415
      f-3     :     0.000392
  9 C s       :     3.175645  s :     3.175645
      pz      :     0.761622  p :     2.355005
      px      :     0.710392
      py      :     0.882990
      dz2     :     0.063551  d :     0.264132
      dxz     :     0.031475
      dyz     :     0.051051
      dx2y2   :     0.056255
      dxy     :     0.061799
      f0      :     0.002669  f :     0.017699
      f+1     :     0.002292
      f-1     :     0.002419
      f+2     :     0.002912
      f-2     :     0.002109
      f+3     :     0.002389
      f-3     :     0.002908
 10 S s       :     5.857481  s :     5.857481
      pz      :     3.562876  p :    10.486483
      px      :     3.720667
      py      :     3.202940
      dz2     :     0.009282  d :     0.084296
      dxz     :     0.003403
      dyz     :     0.034456
      dx2y2   :     0.021030
      dxy     :     0.016125
      f0      :     0.001211  f :     0.010137
      f+1     :     0.000085
      f-1     :     0.001631
      f+2     :     0.002993
      f-2     :     0.001159
      f+3     :     0.001690
      f-3     :     0.001368
 11 N s       :     3.379043  s :     3.379043
      pz      :     1.241072  p :     3.756697
      px      :     1.448000
      py      :     1.067625
      dz2     :     0.009089  d :     0.059556
      dxz     :     0.008184
      dyz     :     0.017512
      dx2y2   :     0.013352
      dxy     :     0.011419
      f0      :     0.000328  f :     0.004464
      f+1     :     0.000505
      f-1     :     0.000632
      f+2     :     0.000833
      f-2     :     0.000600
      f+3     :     0.000805
      f-3     :     0.000760
 12 C s       :     3.099880  s :     3.099880
      pz      :     0.835463  p :     2.608274
      px      :     0.939595
      py      :     0.833217
      dz2     :     0.034768  d :     0.174479
      dxz     :     0.029411
      dyz     :     0.041051
      dx2y2   :     0.024300
      dxy     :     0.044949
      f0      :     0.001014  f :     0.011036
      f+1     :     0.001484
      f-1     :     0.001959
      f+2     :     0.002291
      f-2     :     0.001912
      f+3     :     0.001154
      f-3     :     0.001222
 13 C s       :     3.117524  s :     3.117524
      pz      :     0.881668  p :     2.713557
      px      :     0.894910
      py      :     0.936979
      dz2     :     0.022579  d :     0.111738
      dxz     :     0.014356
      dyz     :     0.023926
      dx2y2   :     0.026180
      dxy     :     0.024697
      f0      :     0.001040  f :     0.011166
      f+1     :     0.001747
      f-1     :     0.001204
[...]
      f+2     :     0.007688
      f-2     :     0.004993
      f+3     :     0.007451
      f-3     :     0.008548
 15 C s       :     2.704234  s :     2.704234
      pz      :     0.882434  p :     2.789681
      px      :     0.943242
      py      :     0.964005
      dz2     :     0.085245  d :     0.424033
      dxz     :     0.073532
      dyz     :     0.053250
      dx2y2   :     0.119424
      dxy     :     0.092582
      f0      :     0.003070  f :     0.042119
      f+1     :     0.005129
      f-1     :     0.005683
      f+2     :     0.007300
      f-2     :     0.006126
      f+3     :     0.007945
      f-3     :     0.006866
 16 C s       :     2.700385  s :     2.700385
      pz      :     0.936293  p :     2.874467
      px      :     0.966668
      py      :     0.971506
      dz2     :     0.038421  d :     0.392849
      dxz     :     0.060871
      dyz     :     0.080710
      dx2y2   :     0.099111
      dxy     :     0.113734
      f0      :     0.003838  f :     0.040889
      f+1     :     0.004399
      f-1     :     0.004030
      f+2     :     0.006435
      f-2     :     0.004875
      f+3     :     0.009527
      f-3     :     0.007786
 17 C s       :     2.703507  s :     2.703507
      pz      :     0.850188  p :     2.679424
      px      :     0.821989
      py      :     1.007247
      dz2     :     0.117744  d :     0.709328
      dxz     :     0.111974
      dyz     :     0.127721
      dx2y2   :     0.173906
      dxy     :     0.177983
      f0      :     0.008076  f :     0.099301
      f+1     :     0.015721
      f-1     :     0.008434
      f+2     :     0.016171
      f-2     :     0.013115
      f+3     :     0.019407
      f-3     :     0.018377
 18 O s       :     3.178432  s :     3.178432
      pz      :     1.455568  p :     4.348449
      px      :     1.385400
      py      :     1.507481
      dz2     :     0.007339  d :     0.075670
      dxz     :     0.016956
      dyz     :     0.016323
      dx2y2   :     0.017062
      dxy     :     0.017990
      f0      :     0.000557  f :     0.005104
      f+1     :     0.000728
      f-1     :     0.000372
      f+2     :     0.000632
      f-2     :     0.000922
      f+3     :     0.000855
      f-3     :     0.001038
 19 C s       :     2.699283  s :     2.699283
      pz      :     0.935221  p :     2.856939
      px      :     0.956414
      py      :     0.965304
      dz2     :     0.064710  d :     0.379361
      dxz     :     0.067747
      dyz     :     0.051949
      dx2y2   :     0.098568
      dxy     :     0.096387
      f0      :     0.003207  f :     0.039448
      f+1     :     0.004882
      f-1     :     0.004636
      f+2     :     0.007019
      f-2     :     0.006101
      f+3     :     0.007790
      f-3     :     0.005812
 20 H s       :     0.842244  s :     0.842244
      pz      :     0.039915  p :     0.149783
      px      :     0.045589
      py      :     0.064279
      dz2     :     0.002665  d :     0.027682
      dxz     :     0.002620
      dyz     :     0.006415
      dx2y2   :     0.008755
      dxy     :     0.007227
 21 H s       :     0.849001  s :     0.849001
      pz      :     0.070786  p :     0.152107
      px      :     0.042248
      py      :     0.039074
      dz2     :     0.009040  d :     0.027505
      dxz     :     0.008898
      dyz     :     0.007933
      dx2y2   :     0.000486
      dxy     :     0.001149
 22 H s       :     0.847764  s :     0.847764
      pz      :     0.049652  p :     0.150455
      px      :     0.062230
      py      :     0.038573
      dz2     :     0.006614  d :     0.027344
      dxz     :     0.006815
      dyz     :     0.002321
      dx2y2   :     0.004929
      dxy     :     0.006665
 23 H s       :     0.859607  s :     0.859607
      pz      :     0.044378  p :     0.152052
      px      :     0.033887
      py      :     0.073787
      dz2     :     0.005007  d :     0.027353
      dxz     :     0.002107
      dyz     :     0.006415
      dx2y2   :     0.007158
      dxy     :     0.006666
 24 H s       :     0.851752  s :     0.851752
      pz      :     0.083839  p :     0.151069
      px      :     0.027148
      py      :     0.040083
      dz2     :     0.010326  d :     0.027265
      dxz     :     0.006878
      dyz     :     0.009672
      dx2y2   :     0.000111
      dxy     :     0.000277
 25 H s       :     0.827364  s :     0.827364
      pz      :     0.056281  p :     0.150185
      px      :     0.043784
      py      :     0.050120
      dz2     :     0.007886  d :     0.027489
      dxz     :     0.005583
      dyz     :     0.006224
      dx2y2   :     0.004796
      dxy     :     0.003001
 26 H s       :     0.830705  s :     0.830705
      pz      :     0.037092  p :     0.149985
      px      :     0.042269
      py      :     0.070624
      dz2     :     0.002833  d :     0.027690
      dxz     :     0.000792
      dyz     :     0.008505
      dx2y2   :     0.007620
      dxy     :     0.007940
 27 H s       :     0.839217  s :     0.839217
      pz      :     0.037681  p :     0.155587
      px      :     0.075299
      py      :     0.042606
      dz2     :     0.002446  d :     0.027910
      dxz     :     0.008734
      dyz     :     0.000023
      dx2y2   :     0.007107
      dxy     :     0.009601
 28 H s       :     0.745775  s :     0.745775
      pz      :     0.063064  p :     0.255487
      px      :     0.082161
      py      :     0.110262
      dz2     :     0.007289  d :     0.061873
      dxz     :     0.002746
      dyz     :     0.017377
      dx2y2   :     0.015465
      dxy     :     0.018995
 29 H s       :     0.746702  s :     0.746702
      pz      :     0.108508  p :     0.255264
      px      :     0.100911
      py      :     0.045845
      dz2     :     0.020988  d :     0.061694
      dxz     :     0.016199
      dyz     :     0.010818
      dx2y2   :     0.008028
      dxy     :     0.005660
 30 H s       :     0.814035  s :     0.814035
      pz      :     0.034855  p :     0.155415
      px      :     0.060202
      py      :     0.060358
      dz2     :     0.003026  d :     0.029115
      dxz     :     0.005547
      dyz     :     0.003789
      dx2y2   :     0.008038
      dxy     :     0.008716
 31 H s       :     0.842209  s :     0.842209
      pz      :     0.053308  p :     0.159662
      px      :     0.066333
      py      :     0.040022
      dz2     :     0.004661  d :     0.027792
      dxz     :     0.006584
      dyz     :     0.003384
      dx2y2   :     0.006470
      dxy     :     0.006694
 32 H s       :     0.841972  s :     0.841972
      pz      :     0.037136  p :     0.149688
      px      :     0.037840
      py      :     0.074711
      dz2     :     0.002659  d :     0.026245
      dxz     :     0.000716
      dyz     :     0.007173
      dx2y2   :     0.007738
      dxy     :     0.007960
 33 H s       :     0.848249  s :     0.848249
      pz      :     0.058055  p :     0.159048
      px      :     0.050374
      py      :     0.050618
      dz2     :     0.005900  d :     0.027726
      dxz     :     0.004960
      dyz     :     0.005592
      dx2y2   :     0.005901
      dxy     :     0.005371
 34 H s       :     0.704797  s :     0.704797
      pz      :     0.117553  p :     0.346084
      px      :     0.083212
      py      :     0.145319
      dz2     :     0.024084  d :     0.099106
      dxz     :     0.012107
      dyz     :     0.023877
      dx2y2   :     0.020035
      dxy     :     0.019002
 35 H s       :     0.840277  s :     0.840277
      pz      :     0.043512  p :     0.160681
      px      :     0.040743
      py      :     0.076426
      dz2     :     0.002808  d :     0.028503
      dxz     :     0.001186
      dyz     :     0.007944
      dx2y2   :     0.008090
      dxy     :     0.008475


                      *****************************
                      * MAYER POPULATION ANALYSIS *
                      *****************************

  NA   - Mulliken gross atomic population
  ZA   - Total nuclear charge
  QA   - Mulliken gross atomic charge
  VA   - Mayer's total valence
  BVA  - Mayer's bonded valence
  FA   - Mayer's free valence

  ATOM       NA         ZA         QA         VA         BVA        FA
  0 C      6.2656     6.0000    -0.2656     3.9038     3.9038    -0.0000
  1 C      5.9752     6.0000     0.0248     3.8642     3.8642     0.0000
  2 O      8.2984     8.0000    -0.2984     2.0725     2.0725    -0.0000
  3 C      5.6241     6.0000     0.3759     4.2834     4.2834     0.0000
  4 O      8.3826     8.0000    -0.3826     2.1400     2.1400     0.0000
  5 C      6.1361     6.0000    -0.1361     3.5851     3.5851     0.0000
  6 C      5.9050     6.0000     0.0950     3.7912     3.7912    -0.0000
  7 C      6.3170     6.0000    -0.3170     3.8760     3.8760    -0.0000
  8 N      7.1300     7.0000    -0.1300     3.2559     3.2559     0.0000
  9 C      5.8125     6.0000     0.1875     4.1460     4.1460    -0.0000
 10 S     16.4384    16.0000    -0.4384     1.7556     1.7556    -0.0000
 11 N      7.1998     7.0000    -0.1998     3.2517     3.2517    -0.0000
 12 C      5.8937     6.0000     0.1063     3.9080     3.9080     0.0000
 13 C      5.9540     6.0000     0.0460     3.7027     3.7027    -0.0000
 14 C      6.2104     6.0000    -0.2104     3.8538     3.8538    -0.0000
 15 C      6.1221     6.0000    -0.1221     3.8083     3.8083    -0.0000
 16 C      6.2841     6.0000    -0.2841     3.7833     3.7833    -0.0000
 17 C      5.6740     6.0000     0.3260     3.8591     3.8591    -0.0000
 18 O      8.3605     8.0000    -0.3605     2.1134     2.1134    -0.0000
 19 C      6.2984     6.0000    -0.2984     3.8414     3.8414     0.0000
 20 H      0.8856     1.0000     0.1144     0.9890     0.9890    -0.0000
 21 H      0.9086     1.0000     0.0914     0.9846     0.9846     0.0000
 22 H      0.9079     1.0000     0.0921     0.9816     0.9816    -0.0000
 23 H      0.9124     1.0000     0.0876     0.9625     0.9625    -0.0000
 24 H      0.8960     1.0000     0.1040     0.9576     0.9576    -0.0000
 25 H      0.8664     1.0000     0.1336     0.9800     0.9800    -0.0000
 26 H      0.8723     1.0000     0.1277     0.9835     0.9835     0.0000
 27 H      0.8784     1.0000     0.1216     0.9683     0.9683    -0.0000
 28 H      0.8119     1.0000     0.1881     1.0276     1.0276     0.0000
 29 H      0.8096     1.0000     0.1904     1.0227     1.0227    -0.0000
 30 H      0.8148     1.0000     0.1852     0.9942     0.9942     0.0000
 31 H      0.8567     1.0000     0.1433     0.9875     0.9875    -0.0000
 32 H      0.8403     1.0000     0.1597     0.9775     0.9775     0.0000
 33 H      0.8708     1.0000     0.1292     0.9915     0.9915     0.0000
 34 H      0.7562     1.0000     0.2438     1.0084     1.0084    -0.0000
 35 H      0.8306     1.0000     0.1694     0.9898     0.9898     0.0000

  Mayer bond orders larger than 0.100000
B(  0-C ,  1-C ) :   0.9713 B(  0-C , 20-H ) :   0.9756 B(  0-C , 21-H ) :   0.9855 
B(  0-C , 22-H ) :   0.9796 B(  1-C ,  2-O ) :   0.9132 B(  1-C , 23-H ) :   0.9676 
B(  1-C , 24-H ) :   0.9640 B(  2-O ,  3-C ) :   1.1941 B(  3-C ,  4-O ) :   2.1111 
B(  3-C ,  5-C ) :   0.9056 B(  5-C ,  6-C ) :   1.7175 B(  5-C , 12-C ) :   0.9671 
B(  6-C ,  7-C ) :   0.9275 B(  6-C ,  8-N ) :   1.0867 B(  7-C , 25-H ) :   0.9725 
B(  7-C , 26-H ) :   0.9784 B(  7-C , 27-H ) :   0.9735 B(  8-N ,  9-C ) :   1.2004 
B(  8-N , 28-H ) :   0.9546 B(  9-C , 10-S ) :   1.6093 B(  9-C , 11-N ) :   1.2848 
B( 11-N , 12-C ) :   1.0012 B( 11-N , 29-H ) :   0.9528 B( 12-C , 13-C ) :   0.8952 
B( 12-C , 30-H ) :   0.9864 B( 13-C , 14-C ) :   1.3754 B( 13-C , 19-C ) :   1.3690 
B( 14-C , 15-C ) :   1.3784 B( 14-C , 31-H ) :   0.9732 B( 15-C , 16-C ) :   1.3733 
B( 15-C , 32-H ) :   0.9706 B( 16-C , 17-C ) :   1.3150 B( 16-C , 33-H ) :   0.9868 
B( 17-C , 18-O ) :   1.1072 B( 17-C , 19-C ) :   1.3810 B( 18-O , 34-H ) :   0.9773 
B( 19-C , 35-H ) :   0.9517 

-------
TIMINGS
-------

Total SCF time: 0 days 1 hours 41 min 27 sec 

Total time                  ....    6087.575 sec
Sum of individual times     ....    6082.610 sec  ( 99.9%)

Fock matrix formation       ....    6070.190 sec  ( 99.7%)
Diagonalization             ....       1.258 sec  (  0.0%)
Density matrix formation    ....       0.214 sec  (  0.0%)
Population analysis         ....       0.213 sec  (  0.0%)
Initial guess               ....       5.181 sec  (  0.1%)
Orbital Transformation      ....       0.000 sec  (  0.0%)
Orbital Orthonormalization  ....       0.000 sec  (  0.0%)
DIIS solution               ....       2.229 sec  (  0.0%)
SOSCF solution              ....       2.014 sec  (  0.0%)

------------------------------------------------------------------------------
                                ORCA  MP2 
------------------------------------------------------------------------------

Freezing NCore=48 chemical core electrons

-------------
RI-MP2 ENERGY
-------------
Dimension of the basis                    ...  828
Memory devoted to MP2                     ...  256 MB   
Data format for buffers                   ... DOUBLE
Compression type for matrix containers    ... UNCOMPRESSED
Overall scaling of the MP2 energy         ...   1.000e+00
Calculating two index integrals           ... done (    0.040 sec)
Cholesky decomposition of V**-1           ... done (    0.336 sec)

-----------------
RI-TRANSFORMATION (AUX index driven)
-----------------

Dimension of the orbital-basis         ... 828
Dimension of the aux-basis             ... 2141
Transformation of internal/external MOs...   24-  76 to   77- 827
Number Format for Storage              ... Double (8 Byte)
Integral mode                          ... Direct

First Phase: integral generation and transformation of MO indices
  Aux angular momentum 0               ... done (    4.579 sec)
  Aux angular momentum 1               ... done (    7.519 sec)
  Aux angular momentum 2               ... done (   10.139 sec)
  Aux angular momentum 3               ... done (    7.942 sec)
  Aux angular momentum 4               ... done (    2.783 sec)
Closing buffer VIA ( 0.63 GB; CompressionRatio= 1.00)
  Phase 1 completed in    33.106 sec
Second Phase: sorting and transformation of aux index

IA-Transformation
Memory available                       ... 167 MB 
Max. # MO pairs treated in a batch     ... 12    
# of internal orbitals                 ... 53
# batches for internal orbitals        ... 5
Closing buffer IAV ( 0.63 GB; CompressionRatio= 1.00)
(ia|v) transformation done in    20.440 sec

  Phase 2 completed in    20.443 sec
RI-Integral transformation completed in    53.554 sec
Opening buffers                              ... done

Starting loop over batches of integrals:

Operator 0  - window                       ... ( 24- 76)x( 77-827)
Operator 0  - Memory available             ...   256 MB
Operator 0  - Memory needed per MO         ...  12.3 MB
Operator 0  - Number of orbitals per batch ... 13
Operator 0  - Number of batches            ... 5

OPERATOR  0   PASS   0:  MOs    24 ...   36
  Reading integrals       ... ok
  Internal MO  26
  Internal MO  29
  Internal MO  32
  Internal MO  35
OPERATOR  0   PASS   1:  MOs    37 ...   49
  Reading integrals       ... ok
  Internal MO  38
  Internal MO  41
  Internal MO  44
  Internal MO  47
OPERATOR  0   PASS   2:  MOs    50 ...   62
  Reading integrals       ... ok
  Internal MO  50
  Internal MO  53
  Internal MO  56
  Internal MO  59
  Internal MO  62
OPERATOR  0   PASS   3:  MOs    63 ...   75
  Reading integrals       ... ok
  Internal MO  65
  Internal MO  68
  Internal MO  71
  Internal MO  74
OPERATOR  0   PASS   4:  MOs    76 ...   76
  Reading integrals       ... ok
Time spent in pair loops =    91.752 sec
Deleting buffer (Ka|jb)[aa] ...done

-----------------------------------------------
 RI-MP2 CORRELATION ENERGY:     -3.554262489 Eh
-----------------------------------------------


-------
TIMINGS
-------

Total time                :  145.786 sec
Integral trafo            :   53.559 sec ( 36.7%)
I/O of integrals          :    2.048 sec (  1.4%)
K(i,j) Operators          :   54.875 sec ( 37.6%)
T(i,j) pair energies      :    9.047 sec (  6.2%)
V-calculation             :    0.040 sec (  0.0%)
V**(-1/2)                 :    0.336 sec (  0.2%)
Gamma(ia|P)               :    0.000 sec (  0.0%)
Gamma-Trafo               :    0.000 sec (  0.0%)
D(virtual)                :    0.000 sec (  0.0%)
D(internal)               :    0.000 sec (  0.0%)
W(virtual)                :    0.000 sec (  0.0%)
W(internal)               :    0.000 sec (  0.0%)
L(virtual)                :    0.000 sec (  0.0%)
L(internal)               :    0.000 sec (  0.0%)
G(D)                      :    0.000 sec (  0.0%)
G(Z)                      :    0.000 sec (  0.0%)
Z-Vector Solution         :    0.000 sec (  0.0%)
3-Index Derivative        :    0.000 sec (  0.0%)
2-Index Derivative        :    0.000 sec (  0.0%)
Separable Gradient        :    0.000 sec (  0.0%)


---------------------------------------
MP2 TOTAL ENERGY:    -1274.273527150 Eh
---------------------------------------

-------------------------   --------------------
FINAL SINGLE POINT ENERGY     -1274.273527150136
-------------------------   --------------------


                            ***************************************
                            *     ORCA property calculations      *
                            ***************************************


  WARNING: The energy has been calculated at the MP2 level but the densities
           used in the property calculations are still SCF densities
           MP2 response densities have not been calculated 
           use %mp2 Density relaxed end
           or  %mp2 Density unrelaxed end

                                    ---------------------
                                    Active property flags
                                    ---------------------
   (+) Dipole Moment


------------------------------------------------------------------------------
                       ORCA ELECTRIC PROPERTIES CALCULATION
------------------------------------------------------------------------------

Dipole Moment Calculation                       ... on
Quadrupole Moment Calculation                   ... off
Polarizability Calculation                      ... off
GBWName                                         ... G2_CONFS/Conf57.orca.gbw
Electron density file                           ... G2_CONFS/Conf57.orca.scfp
The origin for moment calculation is the CENTER OF MASS  = (32.918086, 31.468829 35.255090)

-------------
DIPOLE MOMENT
-------------
                                X             Y             Z
Electronic contribution:     11.44639       9.20368       7.26371
Nuclear contribution   :    -13.18841     -10.35773      -7.52504
                        -----------------------------------------
Total Dipole Moment    :     -1.74202      -1.15405      -0.26133
                        -----------------------------------------
Magnitude (a.u.)       :      2.10589
Magnitude (Debye)      :      5.35274



--------------------
Rotational spectrum 
--------------------
 
Rotational constants in cm-1:     0.011360     0.009625     0.006843 
Rotational constants in MHz :   340.558681   288.544595   205.138113 

 Dipole components along the rotational axes: 
x,y,z [a.u.] :    -1.766445    -0.050688     1.145366 
x,y,z [Debye]:    -4.489946    -0.128837     2.911289 

 

Timings for individual modules:

Sum of individual times         ...     6234.968 sec (= 103.916 min)
GTO integral calculation        ...        1.323 sec (=   0.022 min)   0.0 %
SCF iterations                  ...     6087.604 sec (= 101.460 min)  97.6 %
MP2 module                      ...      146.041 sec (=   2.434 min)   2.3 %
                             ****ORCA TERMINATED NORMALLY****
TOTAL RUN TIME: 0 days 1 hours 43 minutes 55 seconds 703 msec
