
                                 *****************
                                 * O   R   C   A *
                                 *****************

           --- An Ab Initio, DFT and Semiempirical electronic structure package ---

                  #######################################################
                  #                        -***-                        #
                  #          Department of theory and spectroscopy      #
                  #               Directorship: Frank Neese             #
                  #        Max Planck Institute fuer Kohlenforschung    #
                  #                Kaiser Wilhelm Platz 1               #
                  #                 D-45470 Muelheim/Ruhr               #
                  #                      Germany                        #
                  #                                                     #
                  #                  All rights reserved                #
                  #                        -***-                        #
                  #######################################################


                         Program Version 4.2.0 -  RELEASE  -


 With contributions from (in alphabetic order):
   Daniel Aravena         : Magnetic Suceptibility
   Michael Atanasov       : Ab Initio Ligand Field Theory (pilot matlab implementation)
   Alexander A. Auer      : GIAO ZORA, VPT2
   Ute Becker             : Parallelization
   Giovanni Bistoni       : ED, misc. LED, open-shell LED, HFLED
   Martin Brehm           : Molecular dynamics
   Dmytro Bykov           : SCF Hessian
   Vijay G. Chilkuri      : MRCI spin determinant printing, contributions to CSF-ICE
   Dipayan Datta          : RHF DLPNO-CCSD density
   Achintya Kumar Dutta   : EOM-CC, STEOM-CC
   Dmitry Ganyushin       : Spin-Orbit,Spin-Spin,Magnetic field MRCI
   Miquel Garcia          : C-PCM Hessian, Gaussian charge scheme
   Yang Guo               : DLPNO-NEVPT2, CIM, IAO-localization
   Andreas Hansen         : Spin unrestricted coupled pair/coupled cluster methods
   Benjamin Helmich-Paris : CASSCF linear response (MC-RPA)
   Lee Huntington         : MR-EOM, pCC
   Robert Izsak           : Overlap fitted RIJCOSX, COSX-SCS-MP3, EOM
   Christian Kollmar      : KDIIS, OOCD, Brueckner-CCSD(T), CCSD density
   Simone Kossmann        : Meta GGA functionals, TD-DFT gradient, OOMP2, MP2 Hessian
   Martin Krupicka        : AUTO-CI
   Lucas Lang             : DCDCAS
   Dagmar Lenk            : GEPOL surface, SMD
   Dimitrios Liakos       : Extrapolation schemes; Compound Job, initial MDCI parallelization
   Dimitrios Manganas     : Further ROCIS development; embedding schemes
   Dimitrios Pantazis     : SARC Basis sets
   Taras Petrenko         : DFT Hessian,TD-DFT gradient, ASA, ECA, R-Raman, ABS, FL, XAS/XES, NRVS
   Peter Pinski           : DLPNO-MP2, DLPNO-MP2 Gradient
   Christoph Reimann      : Effective Core Potentials
   Marius Retegan         : Local ZFS, SOC
   Christoph Riplinger    : Optimizer, TS searches, QM/MM, DLPNO-CCSD(T), (RO)-DLPNO pert. Triples
   Tobias Risthaus        : Range-separated hybrids, TD-DFT gradient, RPA, STAB
   Michael Roemelt        : Original ROCIS implementation
   Masaaki Saitow         : Open-shell DLPNO-CCSD energy and density
   Barbara Sandhoefer     : DKH picture change effects
   Avijit Sen             : IP-ROCIS
   Kantharuban Sivalingam : CASSCF convergence, NEVPT2, FIC-MRCI
   Bernardo de Souza      : ESD, SOC TD-DFT
   Georgi Stoychev        : AutoAux, RI-MP2 NMR
   Willem Van den Heuvel  : Paramagnetic NMR
   Boris Wezisla          : Elementary symmetry handling
   Frank Wennmohs         : Technical directorship


 We gratefully acknowledge several colleagues who have allowed us to
 interface, adapt or use parts of their codes:
   Stefan Grimme, W. Hujo, H. Kruse,             : VdW corrections, initial TS optimization,
                  C. Bannwarth                     DFT functionals, gCP, sTDA/sTD-DF
   Ed Valeev, F. Pavosevic, A. Kumar             : LibInt (2-el integral package), F12 methods
   Garnet Chan, S. Sharma, J. Yang, R. Olivares  : DMRG
   Ulf Ekstrom                                   : XCFun DFT Library
   Mihaly Kallay                                 : mrcc  (arbitrary order and MRCC methods)
   Andreas Klamt, Michael Diedenhofen            : otool_cosmo (COSMO solvation model)
   Jiri Pittner, Ondrej Demel                    : Mk-CCSD
   Frank Weinhold                                : gennbo (NPA and NBO analysis)
   Christopher J. Cramer and Donald G. Truhlar   : smd solvation model
   Lars Goerigk                                  : TD-DFT with DH, B97 family of functionals
   V. Asgeirsson, H. Jonsson                     : NEB implementation
   FAccTs GmbH                                   : IRC, NEB, NEB-TS, Multilevel, MM, QM/MM, CI optimization
   S Lehtola, MJT Oliveira, MAL Marques          : LibXC Library


 Your calculation uses the libint2 library for the computation of 2-el integrals
 For citations please refer to: http://libint.valeyev.net

 Your ORCA version has been built with support for libXC version: 4.2.3
 For citations please refer to: https://tddft.org/programs/libxc/

 This ORCA versions uses:
   CBLAS   interface :  Fast vector & matrix operations
   LAPACKE interface :  Fast linear algebra routines
   SCALAPACK package :  Parallel linear algebra routines


----- Orbital basis set information -----
Your calculation utilizes the basis: cc-pVTZ 
       H, B-Ne : Obtained from the ccRepo (grant-hill.group.shef.ac.uk/ccrepo) Feb. 2017
                 T. H. Dunning, Jr., J. Chem. Phys. 90, 1007 (1989)
            He : Obtained from the ccRepo (grant-hill.group.shef.ac.uk/ccrepo) Feb. 2017
                 D. E. Woon, T. H. Dunning, Jr., J. Chem. Phys. 100, 2975 (1994)
  Li-Be, Na-Mg : Obtained from the ccRepo (grant-hill.group.shef.ac.uk/ccrepo) Feb. 2017
                 B. P. Prascher, D. E. Woon, K. A. Peterson, T. H. Dunning, Jr., A. K. Wilson, Theor. Chem. Acc. 128, 69 (2011)
         Al-Ar : Obtained from the ccRepo (grant-hill.group.shef.ac.uk/ccrepo) Feb. 2017
                 D. E. Woon, T. H. Dunning, Jr., J. Chem. Phys. 98, 1358 (1993)
            Ca : Obtained from the Peterson Research Group Website (tyr0.chem.wsu.edu/~kipeters) Feb. 2017
                 J. Koput, K. A. Peterson, J. Phys. Chem. 106, 9595 (2002)
         Sc-Zn : Obtained from the ccRepo (grant-hill.group.shef.ac.uk/ccrepo) Feb. 2017
                 N. B. Balabanov, K. A. Peterson, J. Chem. Phys. 123, 064107 (2005)
                 N. B. Balabanov, K. A. Peterson, J. Chem. Phys. 125, 074110 (2006)
         Ga-Kr : Obtained from the ccRepo (grant-hill.group.shef.ac.uk/ccrepo) Feb. 2017
                 A. K. Wilson, D. E. Woon, K. A. Peterson, T. H. Dunning, Jr., J. Chem. Phys. 110, 7667 (1999)
             Y : Obtained from the ccRepo (grant-hill.group.shef.ac.uk/ccrepo) Feb. 2017
                 K. A. Peterson, D. Figgen, M. Dolg, H. Stoll, J. Chem. Phys. 126, 124101 (2007)
        Ag, Au : Obtained from the Peterson Research Group Website (tyr0.chem.wsu.edu/~kipeters) Feb. 2017
                 K. A. Peterson, C. Puzzarini, Theor. Chem. Acc. 114, 283 (2005)

----- AuxC basis set information -----
Your calculation utilizes the auxiliary basis: cc-pVTZ/C 
  Obtained from the EMSL Basis Set Exchange (bse.pnl.gov) Feb. 2017
  H-He, B-F, Al-Ar, Ga-Kr : F. Weigend, A. Kohn, C. Hattig, J. Chem. Phys. 116, 3175 (2002)
             Li-Be, Na-Mg : C. Haettig, Phys. Chem. Chem. Phys. 7, 59 (2005)
                       Ne : C. Haettig, Phys. Chem. Chem. Phys. 7, 59 (2005)
                            F. Weigend, A. Kohn, C. Hattig, J. Chem. Phys. 116, 3175 (2002)
                    Sc-Zn : J. G. Hill, J. A. Platts, J. Chem. Phys. 128, 044104 (2008)

================================================================================
                                        WARNINGS
                       Please study these warnings very carefully!
================================================================================


WARNING: No MP2 level density has been requested!
         To caclulate MP2 level properties use
         %mp2 Density relaxed end
         or
         %mp2 Density unrelaxed end

WARNING: Post HF methods need fully converged wavefunctions
  ===> : Setting SCFConvForced true
         You can overwrite this default with %scf ConvForced false 


INFO   : the flag for use of LIBINT has been found!

================================================================================
                                       INPUT FILE
================================================================================
NAME = G2_CONFS/Conf125.orca
|  1> ! ri-mp2 cc-pvtz cc-pvtz/c TightSCF  NoKeepInts
|  2> 
|  3> %scf
|  4>   MaxCore 4096
|  5> end
|  6> *xyz  0  1
|  7>     C       15.2364710   13.9444346   14.8768157
|  8>     C       16.3634721   13.7578471   15.9078843
|  9>     O       16.5504247   14.9740605   16.6511681
| 10>     C       17.8232819   15.3057505   17.0220237
| 11>     O       18.7717326   14.5468404   16.8812176
| 12>     C       17.9498831   16.5773082   17.7896552
| 13>     C       17.2701273   17.7235570   17.5128797
| 14>     C       16.1338324   17.9014745   16.5277442
| 15>     N       17.7407291   18.9371274   18.0520296
| 16>     C       18.8277320   19.0677253   18.8980369
| 17>     S       19.3975867   20.5490720   19.3661980
| 18>     N       19.3336718   17.9026178   19.4400767
| 19>     C       19.0414780   16.5841632   18.8546332
| 20>     C       18.0203678   16.2830887   20.0326039
| 21>     C       17.9333101   14.9221919   20.4169367
| 22>     C       16.9126260   14.4521720   21.2707619
| 23>     C       15.9343039   15.3348115   21.7446068
| 24>     C       16.0111926   16.6871595   21.4122949
| 25>     O       15.0421179   17.5554407   21.8028756
| 26>     C       17.0408564   17.1570995   20.5871960
| 27>     H       15.3646589   14.8710222   14.3052004
| 28>     H       14.2694197   13.9750459   15.3960228
| 29>     H       15.2103259   13.0980557   14.1782773
| 30>     H       16.1981077   12.8986496   16.5722018
| 31>     H       17.2677563   13.5671902   15.3107722
| 32>     H       16.1554234   17.1514964   15.7303458
| 33>     H       16.1539386   18.8791859   16.0360692
| 34>     H       15.1738350   17.8010266   17.0528062
| 35>     H       17.3072852   19.8028616   17.7719134
| 36>     H       20.0942365   18.0189203   20.1032541
| 37>     H       19.7274040   15.7269853   18.9747181
| 38>     H       18.6227859   14.1883092   20.0036778
| 39>     H       16.8602583   13.3927032   21.5177512
| 40>     H       15.1271530   14.9698646   22.3704746
| 41>     H       14.2818057   17.0359092   22.1018462
| 42>     H       16.9974080   18.2108285   20.3610269
| 43> *
| 44> 
| 45>                          ****END OF INPUT****
================================================================================

                       ****************************
                       * Single Point Calculation *
                       ****************************

---------------------------------
CARTESIAN COORDINATES (ANGSTROEM)
---------------------------------
  C     15.236471   13.944435   14.876816
  C     16.363472   13.757847   15.907884
  O     16.550425   14.974061   16.651168
  C     17.823282   15.305751   17.022024
  O     18.771733   14.546840   16.881218
  C     17.949883   16.577308   17.789655
  C     17.270127   17.723557   17.512880
  C     16.133832   17.901474   16.527744
  N     17.740729   18.937127   18.052030
  C     18.827732   19.067725   18.898037
  S     19.397587   20.549072   19.366198
  N     19.333672   17.902618   19.440077
  C     19.041478   16.584163   18.854633
  C     18.020368   16.283089   20.032604
  C     17.933310   14.922192   20.416937
  C     16.912626   14.452172   21.270762
  C     15.934304   15.334811   21.744607
  C     16.011193   16.687159   21.412295
  O     15.042118   17.555441   21.802876
  C     17.040856   17.157099   20.587196
  H     15.364659   14.871022   14.305200
  H     14.269420   13.975046   15.396023
  H     15.210326   13.098056   14.178277
  H     16.198108   12.898650   16.572202
  H     17.267756   13.567190   15.310772
  H     16.155423   17.151496   15.730346
  H     16.153939   18.879186   16.036069
  H     15.173835   17.801027   17.052806
  H     17.307285   19.802862   17.771913
  H     20.094236   18.018920   20.103254
  H     19.727404   15.726985   18.974718
  H     18.622786   14.188309   20.003678
  H     16.860258   13.392703   21.517751
  H     15.127153   14.969865   22.370475
  H     14.281806   17.035909   22.101846
  H     16.997408   18.210829   20.361027

----------------------------
CARTESIAN COORDINATES (A.U.)
----------------------------
  NO LB      ZA    FRAG     MASS         X           Y           Z
   0 C     6.0000    0    12.011   28.792757   26.351162   28.113107
   1 C     6.0000    0    12.011   30.922481   25.998563   30.061545
   2 O     8.0000    0    15.999   31.275770   28.296873   31.466148
   3 C     6.0000    0    12.011   33.681122   28.923677   32.166963
   4 O     8.0000    0    15.999   35.473434   27.489544   31.900878
   5 C     6.0000    0    12.011   33.920363   31.326573   33.617576
   6 C     6.0000    0    12.011   32.635811   33.492669   33.094546
   7 C     6.0000    0    12.011   30.488525   33.828884   31.232910
   8 N     7.0000    0    14.007   33.525119   35.785985   34.113392
   9 C     6.0000    0    12.011   35.579257   36.032779   35.712114
  10 S    16.0000    0    32.060   36.656127   38.832118   36.596810
  11 N     7.0000    0    14.007   36.535345   33.831045   36.736421
  12 C     6.0000    0    12.011   35.983179   31.339527   35.630093
  13 C     6.0000    0    12.011   34.053560   30.770578   37.856135
  14 C     6.0000    0    12.011   33.889045   28.198856   38.582419
  15 C     6.0000    0    12.011   31.960231   27.310647   40.195915
  16 C     6.0000    0    12.011   30.111471   28.978594   41.091352
  17 C     6.0000    0    12.011   30.256769   31.534161   40.463373
  18 O     8.0000    0    15.999   28.425483   33.174975   41.201464
  19 C     6.0000    0    12.011   32.202552   32.422219   38.904162
  20 H     1.0000    0     1.008   29.034997   28.102159   27.032911
  21 H     1.0000    0     1.008   26.965295   26.409009   29.094267
  22 H     1.0000    0     1.008   28.743350   24.751738   26.793061
  23 H     1.0000    0     1.008   30.609987   24.374915   31.316923
  24 H     1.0000    0     1.008   32.631330   25.638274   28.933166
  25 H     1.0000    0     1.008   30.529326   32.411631   29.726046
  26 H     1.0000    0     1.008   30.526520   35.676491   30.303779
  27 H     1.0000    0     1.008   28.674393   33.639065   32.225134
  28 H     1.0000    0     1.008   32.706029   37.421985   33.584049
  29 H     1.0000    0     1.008   37.972604   34.050825   37.989645
  30 H     1.0000    0     1.008   37.279391   29.719695   35.857021
  31 H     1.0000    0     1.008   35.191965   26.812019   37.801473
  32 H     1.0000    0     1.008   31.861271   25.308541   40.662657
  33 H     1.0000    0     1.008   28.586176   28.288944   42.274070
  34 H     1.0000    0     1.008   26.988701   32.193203   41.766436
  35 H     1.0000    0     1.008   32.120446   34.413479   38.476765

--------------------------------
INTERNAL COORDINATES (ANGSTROEM)
--------------------------------
 C      0   0   0     0.000000000000     0.00000000     0.00000000
 C      1   0   0     1.538846591595     0.00000000     0.00000000
 O      2   1   0     1.437566386755   109.82169621     0.00000000
 C      3   2   1     1.366644644281   117.82432620   215.63129393
 O      4   3   2     1.222836713552   122.71874756   351.56606106
 C      4   3   2     1.490686072942   115.20543495   180.00000319
 C      6   4   3     1.361087409587   124.83613064   318.85027682
 C      7   6   4     1.514368743052   127.29811240     9.13953006
 N      7   6   4     1.408865424584   118.73626862   197.72006850
 C      9   7   6     1.383603797243   125.29047385   357.38830018
 S     10   9   7     1.654780118404   121.87261692   173.97941242
 N     10   9   7     1.381035014967   116.62638243   347.74793095
 C     12  10   9     1.471884452228   121.79401450    18.66595785
 C     13  12  10     1.587742694883    90.13925323   255.39740547
 C     14  13  12     1.416803036606   115.01888507   212.56650923
 C     15  14  13     1.411287430166   121.90131450   191.58066174
 C     16  15  14     1.400248409235   120.00682691     1.13055275
 C     17  16  15     1.394700033761   119.47581794   357.28381385
 O     18  17  16     1.358518052757   120.79057714   176.78373716
 C     18  17  16     1.400656752888   120.41180623     1.39910085
 H      1   2   3     1.096239375946   111.48281545    48.07683784
 H      1   2   3     1.098044298382   109.36339117   287.43744252
 H      1   2   3     1.097723419124   110.50734205   169.23730574
 H      2   1   3     1.098582481928   112.93948707   125.31001790
 H      2   1   3     1.100283067148   105.02859312   243.30014719
 H      8   7   6     1.094886994207   112.24082961   335.11942866
 H      8   7   6     1.094562993433   112.54290398   214.96337729
 H      8   7   6     1.098806121418   109.50941227    94.57484465
 H      9   7   6     1.007886107157   119.33304224   173.26589514
 H     12  10   9     1.015770248759   115.71905831   183.62888349
 H     13  12  10     1.104386170202   121.91794356   153.64599593
 H     15  14  13     1.088459284757   120.37908530     7.48430090
 H     16  15  14     1.089137378154   119.73199492   178.02690919
 H     17  16  15     1.084614824842   120.20653487   177.68631479
 H     19  18  17     0.968179239927   107.81804369   346.08000885
 H     20  18  17     1.078603277715   114.94110527   178.09575410

---------------------------
INTERNAL COORDINATES (A.U.)
---------------------------
 C      0   0   0     0.000000000000     0.00000000     0.00000000
 C      1   0   0     2.907998620233     0.00000000     0.00000000
 O      2   1   0     2.716606770298   109.82169621     0.00000000
 C      3   2   1     2.582584100082   117.82432620   215.63129393
 O      4   3   2     2.310826495117   122.71874756   351.56606106
 C      4   3   2     2.816988429511   115.20543495   180.00000319
 C      6   4   3     2.572082448447   124.83613064   318.85027682
 C      7   6   4     2.861742190139   127.29811240     9.13953006
 N      7   6   4     2.662369812015   118.73626862   197.72006850
 C      9   7   6     2.614632254643   125.29047385   357.38830018
 S     10   9   7     3.127081235642   121.87261692   173.97941242
 N     10   9   7     2.609777959643   116.62638243   347.74793095
 C     12  10   9     2.781458515488   121.79401450    18.66595785
 C     13  12  10     3.000398864462    90.13925323   255.39740547
 C     14  13  12     2.677369724893   115.01888507   212.56650923
 C     15  14  13     2.666946739259   121.90131450   191.58066174
 C     16  15  14     2.646086012913   120.00682691     1.13055275
 C     17  16  15     2.635601102779   119.47581794   357.28381385
 O     18  17  16     2.567227067698   120.79057714   176.78373716
 C     18  17  16     2.646857670586   120.41180623     1.39910085
 H      1   2   3     2.071592197758   111.48281545    48.07683784
 H      1   2   3     2.075003006856   109.36339117   287.43744252
 H      1   2   3     2.074396632936   110.50734205   169.23730574
 H      2   1   3     2.076020026368   112.93948707   125.31001790
 H      2   1   3     2.079233666702   105.02859312   243.30014719
 H      8   7   6     2.069036566643   112.24082961   335.11942866
 H      8   7   6     2.068424293914   112.54290398   214.96337729
 H      8   7   6     2.076442643756   109.50941227    94.57484465
 H      9   7   6     1.904628716710   119.33304224   173.26589514
 H     12  10   9     1.919527585139   115.71905831   183.62888349
 H     13  12  10     2.086987407771   121.91794356   153.64599593
 H     15  14  13     2.056889956115   120.37908530     7.48430090
 H     16  15  14     2.058171366927   119.73199492   178.02690919
 H     17  16  15     2.049624979743   120.20653487   177.68631479
 H     19  18  17     1.829593612010   107.81804369   346.08000885
 H     20  18  17     2.038264802032   114.94110527   178.09575410

---------------------
BASIS SET INFORMATION
---------------------
There are 5 groups of distinct atoms

 Group   1 Type C   : 18s5p2d1f contracted to 4s3p2d1f pattern {8811/311/11/1}
 Group   2 Type O   : 18s5p2d1f contracted to 4s3p2d1f pattern {8811/311/11/1}
 Group   3 Type N   : 18s5p2d1f contracted to 4s3p2d1f pattern {8811/311/11/1}
 Group   4 Type S   : 41s16p2d1f contracted to 5s4p2d1f pattern {13131311/7711/11/1}
 Group   5 Type H   : 5s2p1d contracted to 3s2p1d pattern {311/11/1}

Atom   0C    basis set group =>   1
Atom   1C    basis set group =>   1
Atom   2O    basis set group =>   2
Atom   3C    basis set group =>   1
Atom   4O    basis set group =>   2
Atom   5C    basis set group =>   1
Atom   6C    basis set group =>   1
Atom   7C    basis set group =>   1
Atom   8N    basis set group =>   3
Atom   9C    basis set group =>   1
Atom  10S    basis set group =>   4
Atom  11N    basis set group =>   3
Atom  12C    basis set group =>   1
Atom  13C    basis set group =>   1
Atom  14C    basis set group =>   1
Atom  15C    basis set group =>   1
Atom  16C    basis set group =>   1
Atom  17C    basis set group =>   1
Atom  18O    basis set group =>   2
Atom  19C    basis set group =>   1
Atom  20H    basis set group =>   5
Atom  21H    basis set group =>   5
Atom  22H    basis set group =>   5
Atom  23H    basis set group =>   5
Atom  24H    basis set group =>   5
Atom  25H    basis set group =>   5
Atom  26H    basis set group =>   5
Atom  27H    basis set group =>   5
Atom  28H    basis set group =>   5
Atom  29H    basis set group =>   5
Atom  30H    basis set group =>   5
Atom  31H    basis set group =>   5
Atom  32H    basis set group =>   5
Atom  33H    basis set group =>   5
Atom  34H    basis set group =>   5
Atom  35H    basis set group =>   5
---------------------------------
AUXILIARY/C BASIS SET INFORMATION
---------------------------------
There are 5 groups of distinct atoms

 Group   1 Type C   : 8s6p5d3f1g contracted to 8s6p5d3f1g pattern {11111111/111111/11111/111/1}
 Group   2 Type O   : 8s6p5d3f1g contracted to 8s6p5d3f1g pattern {11111111/111111/11111/111/1}
 Group   3 Type N   : 8s6p5d3f1g contracted to 8s6p5d3f1g pattern {11111111/111111/11111/111/1}
 Group   4 Type S   : 10s8p7d5f2g contracted to 10s8p7d5f2g pattern {1111111111/11111111/1111111/11111/11}
 Group   5 Type H   : 4s3p2d1f contracted to 4s3p2d1f pattern {1111/111/11/1}

Atom   0C    basis set group =>   1
Atom   1C    basis set group =>   1
Atom   2O    basis set group =>   2
Atom   3C    basis set group =>   1
Atom   4O    basis set group =>   2
Atom   5C    basis set group =>   1
Atom   6C    basis set group =>   1
Atom   7C    basis set group =>   1
Atom   8N    basis set group =>   3
Atom   9C    basis set group =>   1
Atom  10S    basis set group =>   4
Atom  11N    basis set group =>   3
Atom  12C    basis set group =>   1
Atom  13C    basis set group =>   1
Atom  14C    basis set group =>   1
Atom  15C    basis set group =>   1
Atom  16C    basis set group =>   1
Atom  17C    basis set group =>   1
Atom  18O    basis set group =>   2
Atom  19C    basis set group =>   1
Atom  20H    basis set group =>   5
Atom  21H    basis set group =>   5
Atom  22H    basis set group =>   5
Atom  23H    basis set group =>   5
Atom  24H    basis set group =>   5
Atom  25H    basis set group =>   5
Atom  26H    basis set group =>   5
Atom  27H    basis set group =>   5
Atom  28H    basis set group =>   5
Atom  29H    basis set group =>   5
Atom  30H    basis set group =>   5
Atom  31H    basis set group =>   5
Atom  32H    basis set group =>   5
Atom  33H    basis set group =>   5
Atom  34H    basis set group =>   5
Atom  35H    basis set group =>   5

Checking for AutoStart:
The File: G2_CONFS/Conf125.orca.gbw exists
Trying to determine its content:
     ... Fine, the file contains calculation information
     ... Fine, the calculation information was read
     ... Fine, the file contains a basis set
     ... Fine, the basis set was read
     ... Fine, the file contains a geometry
     ... Fine, the geometry was read
     ... The file does not contain orbitals - skipping AutoStart
------------------------------------------------------------------------------
                           ORCA GTO INTEGRAL CALCULATION
------------------------------------------------------------------------------

                         BASIS SET STATISTICS AND STARTUP INFO

 # of primitive gaussian shells          ...  682
 # of primitive gaussian functions       ... 1312
 # of contracted shells                  ...  298
 # of contracted basis functions         ...  828
 Highest angular momentum                ...    3
 Maximum contraction depth               ...   13
 Integral package used                   ... LIBINT
 Integral threshhold            Thresh   ...  2.500e-11
 Primitive cut-off              TCut     ...  2.500e-12


------------------------------ INTEGRAL EVALUATION ----------------------------


 * One electron integrals 
 Pre-screening matrix                    ... done
 Shell pair data                         ... done (   0.014 sec)

-------------------------------------------------------------------------------
                                 ORCA SCF
-------------------------------------------------------------------------------

------------
SCF SETTINGS
------------
Hamiltonian:
 Ab initio Hamiltonian  Method          .... Hartree-Fock(GTOs)


General Settings:
 Integral files         IntName         .... G2_CONFS/Conf125.orca
 Hartree-Fock type      HFTyp           .... RHF
 Total Charge           Charge          ....    0
 Multiplicity           Mult            ....    1
 Number of Electrons    NEL             ....  154
 Basis Dimension        Dim             ....  828
 Nuclear Repulsion      ENuc            ....   1716.0313714635 Eh

Convergence Acceleration:
 DIIS                   CNVDIIS         .... on
   Start iteration      DIISMaxIt       ....    12
   Startup error        DIISStart       ....  0.200000
   # of expansion vecs  DIISMaxEq       ....     5
   Bias factor          DIISBfac        ....   1.050
   Max. coefficient     DIISMaxC        ....  10.000
 Newton-Raphson         CNVNR           .... off
 SOSCF                  CNVSOSCF        .... on
   Start iteration      SOSCFMaxIt      ....   150
   Startup grad/error   SOSCFStart      ....  0.003300
 Level Shifting         CNVShift        .... on
   Level shift para.    LevelShift      ....    0.2500
   Turn off err/grad.   ShiftErr        ....    0.0010
 Zerner damping         CNVZerner       .... off
 Static damping         CNVDamp         .... on
   Fraction old density DampFac         ....    0.7000
   Max. Damping (<1)    DampMax         ....    0.9800
   Min. Damping (>=0)   DampMin         ....    0.0000
   Turn off err/grad.   DampErr         ....    0.1000
 Fernandez-Rico         CNVRico         .... off

SCF Procedure:
 Maximum # iterations   MaxIter         ....   125
 SCF integral mode      SCFMode         .... Direct
   Integral package                     .... LIBINT
 Reset frequency        DirectResetFreq ....    20
 Integral Threshold     Thresh          ....  2.500e-11 Eh
 Primitive CutOff       TCut            ....  2.500e-12 Eh

Convergence Tolerance:
 Convergence Check Mode ConvCheckMode   .... Total+1el-Energy
 Convergence forced     ConvForced      .... 1
 Energy Change          TolE            ....  1.000e-08 Eh
 1-El. energy change                    ....  1.000e-05 Eh
 Orbital Gradient       TolG            ....  1.000e-05
 Orbital Rotation angle TolX            ....  1.000e-05
 DIIS Error             TolErr          ....  5.000e-07


Diagonalization of the overlap matrix:
Smallest eigenvalue                        ... 3.402e-05
Time for diagonalization                   ...    0.111 sec
Threshold for overlap eigenvalues          ... 1.000e-08
Number of eigenvalues below threshold      ... 0
Time for construction of square roots      ...    0.065 sec
Total time needed                          ...    0.179 sec

-------------------
DFT GRID GENERATION
-------------------

General Integration Accuracy     IntAcc      ...  4.340
Radial Grid Type                 RadialGrid  ... Gauss-Chebyshev
Angular Grid (max. acc.)         AngularGrid ... Lebedev-110
Angular grid pruning method      GridPruning ... 3 (G Style)
Weight generation scheme         WeightScheme... Becke
Basis function cutoff            BFCut       ...    1.0000e-11
Integration weight cutoff        WCut        ...    1.0000e-14
Grids for H and He will be reduced by one unit

# of grid points (after initial pruning)     ...  46246 (   0.0 sec)
# of grid points (after weights+screening)   ...  41267 (   0.3 sec)
nearest neighbour list constructed           ...    0.0 sec
Grid point re-assignment to atoms done       ...    0.0 sec
Grid point division into batches done        ...    0.0 sec
Reduced shell lists constructed in    0.9 sec

Total number of grid points                  ...    41267
Total number of batches                      ...      662
Average number of points per batch           ...       62
Average number of grid points per atom       ...     1146
Average number of shells per batch           ...   149.07 (50.02%)
Average number of basis functions per batch  ...   379.47 (45.83%)
Average number of large shells per batch     ...    95.58 (64.12%)
Average number of large basis fcns per batch ...   246.34 (64.92%)
Maximum spatial batch extension              ...  24.21, 20.14, 20.68 au
Average spatial batch extension              ...   3.51,  3.32,  3.45 au

Time for grid setup =    1.247 sec

------------------------------
INITIAL GUESS: MODEL POTENTIAL
------------------------------
Loading Hartree-Fock densities                     ... done
Calculating cut-offs                               ... done
Setting up the integral package                    ... done
Initializing the effective Hamiltonian             ... done
Starting the Coulomb interaction                   ... done (   3.1 sec)
Reading the grid                                   ... done
Mapping shells                                     ... done
Starting the XC term evaluation                    ... done (   1.3 sec)
Transforming the Hamiltonian                       ... done (   0.1 sec)
Diagonalizing the Hamiltonian                      ... done (   0.1 sec)
Back transforming the eigenvectors                 ... done (   0.0 sec)
Now organizing SCF variables                       ... done
                      ------------------
                      INITIAL GUESS DONE (   5.9 sec)
                      ------------------
--------------
SCF ITERATIONS
--------------
ITER       Energy         Delta-E        Max-DP      RMS-DP      [F,P]     Damp
               ***  Starting incremental Fock matrix formation  ***
  0  -1269.9292065332   0.000000000000 0.04965652  0.00045627  0.3201467 0.7000
  1  -1270.1978856145  -0.268679081210 0.03630165  0.00037205  0.1898022 0.7000
                               ***Turning on DIIS***
  2  -1270.3649857045  -0.167100090046 0.02598009  0.00024770  0.1096991 0.7000
  3  -1272.4793538932  -2.114368188696 0.06341453  0.00052522  0.0829728 0.0000
  4  -1270.6774863361   1.801867557110 0.00801851  0.00010816  0.0067165 0.0000
  5  -1270.7387494397  -0.061263103653 0.00389561  0.00005464  0.0035571 0.0000
                      *** Initiating the SOSCF procedure ***
                           *** Shutting down DIIS ***
                      *** Re-Reading the Fockian *** 
                      *** Removing any level shift *** 
ITER      Energy       Delta-E        Grad      Rot      Max-DP    RMS-DP
  6  -1270.71372997   0.0250194728  0.001811  0.001811  0.001745  0.000028
               *** Restarting incremental Fock matrix formation ***
  7  -1270.72812116  -0.0143911979  0.001017  0.002436  0.001248  0.000018
  8  -1270.72817453  -0.0000533640  0.000489  0.002971  0.001338  0.000019
  9  -1270.72819505  -0.0000205239  0.000143  0.000368  0.000337  0.000005
 10  -1270.72819775  -0.0000026971  0.000046  0.000122  0.000170  0.000002
 11  -1270.72819804  -0.0000002853  0.000025  0.000159  0.000126  0.000001
 12  -1270.72819812  -0.0000000824  0.000011  0.000042  0.000028  0.000000
 13  -1270.72819812  -0.0000000027  0.000003  0.000009  0.000008  0.000000
                  ***Gradient check signals convergence***
              ***Rediagonalizing the Fockian in SOSCF/NRSCF***

               *****************************************************
               *                     SUCCESS                       *
               *           SCF CONVERGED AFTER  14 CYCLES          *
               *****************************************************


----------------
TOTAL SCF ENERGY
----------------

Total Energy       :        -1270.72819812 Eh          -34578.27220 eV

Components:
Nuclear Repulsion  :         1716.03137146 Eh           46695.58758 eV
Electronic Energy  :        -2986.75956958 Eh          -81273.85977 eV
One Electron Energy:        -5153.24741952 Eh         -140226.99129 eV
Two Electron Energy:         2166.48784994 Eh           58953.13152 eV

Virial components:
Potential Energy   :        -2539.63076972 Eh          -69106.86657 eV
Kinetic Energy     :         1268.90257160 Eh           34528.59437 eV
Virial Ratio       :            2.00143874


---------------
SCF CONVERGENCE
---------------

  Last Energy change         ...    1.2728e-09  Tolerance :   1.0000e-08
  Last MAX-Density change    ...    3.4631e-06  Tolerance :   1.0000e-07
  Last RMS-Density change    ...    4.6188e-08  Tolerance :   5.0000e-09
  Last Orbital Gradient      ...    1.4904e-06  Tolerance :   1.0000e-05
  Last Orbital Rotation      ...    5.1014e-06  Tolerance :   1.0000e-05

             **** THE GBW FILE WAS UPDATED (G2_CONFS/Conf125.orca.gbw) ****
             **** DENSITY FILE WAS UPDATED (G2_CONFS/Conf125.orca.scfp) ****
             **** ENERGY FILE WAS UPDATED (G2_CONFS/Conf125.orca.en.tmp) ****
             **** THE GBW FILE WAS UPDATED (G2_CONFS/Conf125.orca.gbw) ****
             **** DENSITY FILE WAS UPDATED (G2_CONFS/Conf125.orca.scfp) ****
----------------
ORBITAL ENERGIES
----------------

  NO   OCC          E(Eh)            E(eV) 
   0   2.0000     -91.891780     -2500.5025 
   1   2.0000     -20.609663      -560.8174 
   2   2.0000     -20.590896      -560.3068 
   3   2.0000     -20.547909      -559.1370 
   4   2.0000     -15.627457      -425.2447 
   5   2.0000     -15.609475      -424.7554 
   6   2.0000     -11.399630      -310.1997 
   7   2.0000     -11.386343      -309.8381 
   8   2.0000     -11.332660      -308.3773 
   9   2.0000     -11.316403      -307.9350 
  10   2.0000     -11.305379      -307.6350 
  11   2.0000     -11.298683      -307.4528 
  12   2.0000     -11.269638      -306.6624 
  13   2.0000     -11.259284      -306.3807 
  14   2.0000     -11.259033      -306.3739 
  15   2.0000     -11.246889      -306.0434 
  16   2.0000     -11.237036      -305.7753 
  17   2.0000     -11.231776      -305.6322 
  18   2.0000     -11.229020      -305.5572 
  19   2.0000     -11.226144      -305.4789 
  20   2.0000      -8.896631      -242.0896 
  21   2.0000      -6.578159      -179.0008 
  22   2.0000      -6.576221      -178.9481 
  23   2.0000      -6.575594      -178.9310 
  24   2.0000      -1.457480       -39.6601 
  25   2.0000      -1.410113       -38.3711 
  26   2.0000      -1.359615       -36.9970 
  27   2.0000      -1.336586       -36.3704 
  28   2.0000      -1.240025       -33.7428 
  29   2.0000      -1.151739       -31.3404 
  30   2.0000      -1.119912       -30.4743 
  31   2.0000      -1.044790       -28.4302 
  32   2.0000      -1.035838       -28.1866 
  33   2.0000      -1.006968       -27.4010 
  34   2.0000      -0.995666       -27.0934 
  35   2.0000      -0.985471       -26.8160 
  36   2.0000      -0.921100       -25.0644 
  37   2.0000      -0.892562       -24.2878 
  38   2.0000      -0.846058       -23.0224 
  39   2.0000      -0.833495       -22.6805 
  40   2.0000      -0.824342       -22.4315 
  41   2.0000      -0.817288       -22.2395 
  42   2.0000      -0.764541       -20.8042 
  43   2.0000      -0.734807       -19.9951 
  44   2.0000      -0.718450       -19.5500 
  45   2.0000      -0.694902       -18.9092 
  46   2.0000      -0.688753       -18.7419 
  47   2.0000      -0.684336       -18.6217 
  48   2.0000      -0.678992       -18.4763 
  49   2.0000      -0.663678       -18.0596 
  50   2.0000      -0.655250       -17.8303 
  51   2.0000      -0.642815       -17.4919 
  52   2.0000      -0.631850       -17.1935 
  53   2.0000      -0.602618       -16.3981 
  54   2.0000      -0.600673       -16.3451 
  55   2.0000      -0.595055       -16.1923 
  56   2.0000      -0.592909       -16.1339 
  57   2.0000      -0.581552       -15.8248 
  58   2.0000      -0.569761       -15.5040 
  59   2.0000      -0.565653       -15.3922 
  60   2.0000      -0.558823       -15.2064 
  61   2.0000      -0.553369       -15.0579 
  62   2.0000      -0.542197       -14.7539 
  63   2.0000      -0.530700       -14.4411 
  64   2.0000      -0.512805       -13.9541 
  65   2.0000      -0.507567       -13.8116 
  66   2.0000      -0.498769       -13.5722 
  67   2.0000      -0.492686       -13.4067 
  68   2.0000      -0.485270       -13.2049 
  69   2.0000      -0.466804       -12.7024 
  70   2.0000      -0.461236       -12.5509 
  71   2.0000      -0.449858       -12.2413 
  72   2.0000      -0.347236        -9.4488 
  73   2.0000      -0.337241        -9.1768 
  74   2.0000      -0.323104        -8.7921 
  75   2.0000      -0.317635        -8.6433 
  76   2.0000      -0.303233        -8.2514 
  77   0.0000       0.070919         1.9298 
  78   0.0000       0.121219         3.2985 
  79   0.0000       0.123796         3.3687 
  80   0.0000       0.131353         3.5743 
  81   0.0000       0.137732         3.7479 
  82   0.0000       0.139088         3.7848 
  83   0.0000       0.145869         3.9693 
  84   0.0000       0.158954         4.3254 
  85   0.0000       0.160332         4.3629 
  86   0.0000       0.171670         4.6714 
  87   0.0000       0.178856         4.8669 
  88   0.0000       0.188447         5.1279 
  89   0.0000       0.197684         5.3792 
  90   0.0000       0.199641         5.4325 
  91   0.0000       0.202919         5.5217 
  92   0.0000       0.208819         5.6822 
  93   0.0000       0.222237         6.0474 
  94   0.0000       0.232489         6.3263 
  95   0.0000       0.236389         6.4325 
  96   0.0000       0.246595         6.7102 
  97   0.0000       0.249006         6.7758 
  98   0.0000       0.256448         6.9783 
  99   0.0000       0.267256         7.2724 
 100   0.0000       0.283578         7.7165 
 101   0.0000       0.290438         7.9032 
 102   0.0000       0.308941         8.4067 
 103   0.0000       0.324423         8.8280 
 104   0.0000       0.330486         8.9930 
 105   0.0000       0.334943         9.1143 
 106   0.0000       0.345115         9.3911 
 107   0.0000       0.350522         9.5382 
 108   0.0000       0.355784         9.6814 
 109   0.0000       0.362703         9.8697 
 110   0.0000       0.368288        10.0216 
 111   0.0000       0.382396        10.4055 
 112   0.0000       0.387065        10.5326 
 113   0.0000       0.389890        10.6094 
 114   0.0000       0.392426        10.6785 
 115   0.0000       0.411763        11.2046 
 116   0.0000       0.414906        11.2902 
 117   0.0000       0.421215        11.4618 
 118   0.0000       0.425863        11.5883 
 119   0.0000       0.433653        11.8003 
 120   0.0000       0.439289        11.9537 
 121   0.0000       0.448066        12.1925 
 122   0.0000       0.460321        12.5260 
 123   0.0000       0.463757        12.6195 
 124   0.0000       0.469446        12.7743 
 125   0.0000       0.473778        12.8922 
 126   0.0000       0.475234        12.9318 
 127   0.0000       0.480182        13.0664 
 128   0.0000       0.487616        13.2687 
 129   0.0000       0.492978        13.4146 
 130   0.0000       0.499086        13.5808 
 131   0.0000       0.505063        13.7435 
 132   0.0000       0.511016        13.9055 
 133   0.0000       0.517731        14.0882 
 134   0.0000       0.523678        14.2500 
 135   0.0000       0.529153        14.3990 
 136   0.0000       0.534109        14.5338 
 137   0.0000       0.536922        14.6104 
 138   0.0000       0.539152        14.6711 
 139   0.0000       0.546005        14.8576 
 140   0.0000       0.552465        15.0333 
 141   0.0000       0.554579        15.0909 
 142   0.0000       0.566538        15.4163 
 143   0.0000       0.572382        15.5753 
 144   0.0000       0.572997        15.5920 
 145   0.0000       0.576235        15.6802 
 146   0.0000       0.585071        15.9206 
 147   0.0000       0.587382        15.9835 
 148   0.0000       0.594864        16.1871 
 149   0.0000       0.598768        16.2933 
 150   0.0000       0.603762        16.4292 
 151   0.0000       0.608467        16.5572 
 152   0.0000       0.611447        16.6383 
 153   0.0000       0.617071        16.7913 
 154   0.0000       0.618075        16.8187 
 155   0.0000       0.626123        17.0377 
 156   0.0000       0.628694        17.1076 
 157   0.0000       0.632454        17.2099 
 158   0.0000       0.638121        17.3641 
 159   0.0000       0.646577        17.5943 
 160   0.0000       0.651018        17.7151 
 161   0.0000       0.655186        17.8285 
 162   0.0000       0.659619        17.9491 
 163   0.0000       0.667295        18.1580 
 164   0.0000       0.670416        18.2430 
 165   0.0000       0.674856        18.3638 
 166   0.0000       0.676994        18.4219 
 167   0.0000       0.688225        18.7276 
 168   0.0000       0.689835        18.7714 
 169   0.0000       0.694351        18.8943 
 170   0.0000       0.699674        19.0391 
 171   0.0000       0.700750        19.0684 
 172   0.0000       0.710135        19.3238 
 173   0.0000       0.718394        19.5485 
 174   0.0000       0.721702        19.6385 
 175   0.0000       0.728496        19.8234 
 176   0.0000       0.740810        20.1585 
 177   0.0000       0.742946        20.2166 
 178   0.0000       0.752020        20.4635 
 179   0.0000       0.758480        20.6393 
 180   0.0000       0.766860        20.8673 
 181   0.0000       0.773501        21.0480 
 182   0.0000       0.779606        21.2142 
 183   0.0000       0.791288        21.5321 
 184   0.0000       0.803978        21.8774 
 185   0.0000       0.809938        22.0395 
 186   0.0000       0.814289        22.1579 
 187   0.0000       0.827757        22.5244 
 188   0.0000       0.835232        22.7278 
 189   0.0000       0.842427        22.9236 
 190   0.0000       0.843940        22.9648 
 191   0.0000       0.847514        23.0620 
 192   0.0000       0.861907        23.4537 
 193   0.0000       0.867312        23.6008 
 194   0.0000       0.875051        23.8113 
 195   0.0000       0.882909        24.0252 
 196   0.0000       0.887045        24.1377 
 197   0.0000       0.892954        24.2985 
 198   0.0000       0.894578        24.3427 
 199   0.0000       0.910516        24.7764 
 200   0.0000       0.914275        24.8787 
 201   0.0000       0.921229        25.0679 
 202   0.0000       0.923706        25.1353 
 203   0.0000       0.935135        25.4463 
 204   0.0000       0.939037        25.5525 
 205   0.0000       0.941653        25.6237 
 206   0.0000       0.955894        26.0112 
 207   0.0000       0.957771        26.0623 
 208   0.0000       0.972007        26.4497 
 209   0.0000       0.975920        26.5561 
 210   0.0000       0.977486        26.5987 
 211   0.0000       0.993490        27.0342 
 212   0.0000       0.999770        27.2051 
 213   0.0000       1.008105        27.4319 
 214   0.0000       1.011442        27.5227 
 215   0.0000       1.019194        27.7337 
 216   0.0000       1.026685        27.9375 
 217   0.0000       1.033772        28.1304 
 218   0.0000       1.038180        28.2503 
 219   0.0000       1.041497        28.3406 
 220   0.0000       1.057136        28.7661 
 221   0.0000       1.062580        28.9143 
 222   0.0000       1.065057        28.9817 
 223   0.0000       1.075717        29.2717 
 224   0.0000       1.082253        29.4496 
 225   0.0000       1.086237        29.5580 
 226   0.0000       1.091939        29.7132 
 227   0.0000       1.099138        29.9091 
 228   0.0000       1.107937        30.1485 
 229   0.0000       1.131339        30.7853 
 230   0.0000       1.133812        30.8526 
 231   0.0000       1.140361        31.0308 
 232   0.0000       1.143199        31.1080 
 233   0.0000       1.152798        31.3692 
 234   0.0000       1.160350        31.5747 
 235   0.0000       1.168392        31.7936 
 236   0.0000       1.176530        32.0150 
 237   0.0000       1.186880        32.2967 
 238   0.0000       1.193533        32.4777 
 239   0.0000       1.196171        32.5495 
 240   0.0000       1.202869        32.7317 
 241   0.0000       1.212558        32.9954 
 242   0.0000       1.217326        33.1251 
 243   0.0000       1.221091        33.2276 
 244   0.0000       1.226413        33.3724 
 245   0.0000       1.237067        33.6623 
 246   0.0000       1.242592        33.8127 
 247   0.0000       1.247405        33.9436 
 248   0.0000       1.250301        34.0224 
 249   0.0000       1.258513        34.2459 
 250   0.0000       1.267844        34.4998 
 251   0.0000       1.274820        34.6896 
 252   0.0000       1.287405        35.0321 
 253   0.0000       1.292327        35.1660 
 254   0.0000       1.296610        35.2825 
 255   0.0000       1.304465        35.4963 
 256   0.0000       1.306284        35.5458 
 257   0.0000       1.313625        35.7456 
 258   0.0000       1.320854        35.9423 
 259   0.0000       1.328224        36.1428 
 260   0.0000       1.341968        36.5168 
 261   0.0000       1.353499        36.8306 
 262   0.0000       1.360668        37.0257 
 263   0.0000       1.366440        37.1827 
 264   0.0000       1.376736        37.4629 
 265   0.0000       1.388577        37.7851 
 266   0.0000       1.393907        37.9301 
 267   0.0000       1.400772        38.1169 
 268   0.0000       1.408282        38.3213 
 269   0.0000       1.422138        38.6983 
 270   0.0000       1.428776        38.8790 
 271   0.0000       1.435703        39.0675 
 272   0.0000       1.439224        39.1633 
 273   0.0000       1.449003        39.4294 
 274   0.0000       1.455878        39.6165 
 275   0.0000       1.460665        39.7467 
 276   0.0000       1.465911        39.8895 
 277   0.0000       1.469391        39.9842 
 278   0.0000       1.482922        40.3524 
 279   0.0000       1.486625        40.4531 
 280   0.0000       1.490914        40.5698 
 281   0.0000       1.497065        40.7372 
 282   0.0000       1.513383        41.1813 
 283   0.0000       1.515235        41.2316 
 284   0.0000       1.521016        41.3889 
 285   0.0000       1.534245        41.7489 
 286   0.0000       1.538733        41.8711 
 287   0.0000       1.540449        41.9178 
 288   0.0000       1.541229        41.9390 
 289   0.0000       1.553205        42.2648 
 290   0.0000       1.556472        42.3538 
 291   0.0000       1.564498        42.5722 
 292   0.0000       1.574775        42.8518 
 293   0.0000       1.586301        43.1654 
 294   0.0000       1.589209        43.2446 
 295   0.0000       1.601123        43.5688 
 296   0.0000       1.604062        43.6488 
 297   0.0000       1.614496        43.9327 
 298   0.0000       1.618734        44.0480 
 299   0.0000       1.624127        44.1947 
 300   0.0000       1.632179        44.4138 
 301   0.0000       1.640226        44.6328 
 302   0.0000       1.646538        44.8046 
 303   0.0000       1.654916        45.0325 
 304   0.0000       1.658513        45.1304 
 305   0.0000       1.662772        45.2463 
 306   0.0000       1.672894        45.5217 
 307   0.0000       1.686555        45.8935 
 308   0.0000       1.691819        46.0367 
 309   0.0000       1.704326        46.3771 
 310   0.0000       1.714771        46.6613 
 311   0.0000       1.721063        46.8325 
 312   0.0000       1.724549        46.9274 
 313   0.0000       1.737640        47.2836 
 314   0.0000       1.742688        47.4210 
 315   0.0000       1.761111        47.9223 
 316   0.0000       1.772800        48.2403 
 317   0.0000       1.777525        48.3689 
 318   0.0000       1.786065        48.6013 
 319   0.0000       1.793542        48.8048 
 320   0.0000       1.798737        48.9461 
 321   0.0000       1.815615        49.4054 
 322   0.0000       1.829601        49.7860 
 323   0.0000       1.846003        50.2323 
 324   0.0000       1.856966        50.5306 
 325   0.0000       1.874822        51.0165 
 326   0.0000       1.883547        51.2539 
 327   0.0000       1.885016        51.2939 
 328   0.0000       1.894643        51.5559 
 329   0.0000       1.913339        52.0646 
 330   0.0000       1.926097        52.4118 
 331   0.0000       1.927922        52.4614 
 332   0.0000       1.944624        52.9159 
 333   0.0000       1.963214        53.4218 
 334   0.0000       1.968604        53.5684 
 335   0.0000       1.988741        54.1164 
 336   0.0000       1.990761        54.1714 
 337   0.0000       1.997242        54.3477 
 338   0.0000       2.012388        54.7599 
 339   0.0000       2.018863        54.9361 
 340   0.0000       2.023292        55.0566 
 341   0.0000       2.036467        55.4151 
 342   0.0000       2.059848        56.0513 
 343   0.0000       2.067673        56.2642 
 344   0.0000       2.101174        57.1759 
 345   0.0000       2.110369        57.4261 
 346   0.0000       2.137513        58.1647 
 347   0.0000       2.148329        58.4590 
 348   0.0000       2.166417        58.9512 
 349   0.0000       2.181802        59.3699 
 350   0.0000       2.187819        59.5336 
 351   0.0000       2.205238        60.0076 
 352   0.0000       2.212947        60.2173 
 353   0.0000       2.222321        60.4724 
 354   0.0000       2.240860        60.9769 
 355   0.0000       2.271913        61.8219 
 356   0.0000       2.281334        62.0783 
 357   0.0000       2.291063        62.3430 
 358   0.0000       2.292579        62.3842 
 359   0.0000       2.310988        62.8852 
 360   0.0000       2.322888        63.2090 
 361   0.0000       2.328385        63.3586 
 362   0.0000       2.342316        63.7377 
 363   0.0000       2.352663        64.0192 
 364   0.0000       2.371656        64.5360 
 365   0.0000       2.376399        64.6651 
 366   0.0000       2.385953        64.9251 
 367   0.0000       2.391804        65.0843 
 368   0.0000       2.414255        65.6952 
 369   0.0000       2.415614        65.7322 
 370   0.0000       2.430006        66.1238 
 371   0.0000       2.446054        66.5605 
 372   0.0000       2.448825        66.6359 
 373   0.0000       2.475698        67.3672 
 374   0.0000       2.484178        67.5979 
 375   0.0000       2.501343        68.0650 
 376   0.0000       2.522807        68.6491 
 377   0.0000       2.534189        68.9588 
 378   0.0000       2.549937        69.3873 
 379   0.0000       2.555300        69.5332 
 380   0.0000       2.566106        69.8273 
 381   0.0000       2.569068        69.9079 
 382   0.0000       2.590007        70.4777 
 383   0.0000       2.597698        70.6870 
 384   0.0000       2.605352        70.8952 
 385   0.0000       2.611408        71.0600 
 386   0.0000       2.619483        71.2798 
 387   0.0000       2.628244        71.5181 
 388   0.0000       2.649624        72.0999 
 389   0.0000       2.658981        72.3546 
 390   0.0000       2.677424        72.8564 
 391   0.0000       2.682796        73.0026 
 392   0.0000       2.698741        73.4365 
 393   0.0000       2.708514        73.7024 
 394   0.0000       2.717933        73.9587 
 395   0.0000       2.724921        74.1489 
 396   0.0000       2.732692        74.3603 
 397   0.0000       2.744199        74.6734 
 398   0.0000       2.747464        74.7623 
 399   0.0000       2.754488        74.9534 
 400   0.0000       2.767883        75.3179 
 401   0.0000       2.781406        75.6859 
 402   0.0000       2.786180        75.8158 
 403   0.0000       2.800591        76.2080 
 404   0.0000       2.812048        76.5197 
 405   0.0000       2.816979        76.6539 
 406   0.0000       2.824415        76.8562 
 407   0.0000       2.831972        77.0619 
 408   0.0000       2.841842        77.3305 
 409   0.0000       2.854470        77.6741 
 410   0.0000       2.863330        77.9152 
 411   0.0000       2.881767        78.4169 
 412   0.0000       2.896295        78.8122 
 413   0.0000       2.897283        78.8391 
 414   0.0000       2.904246        79.0286 
 415   0.0000       2.914206        79.2996 
 416   0.0000       2.926230        79.6268 
 417   0.0000       2.931658        79.7745 
 418   0.0000       2.947182        80.1969 
 419   0.0000       2.949809        80.2684 
 420   0.0000       2.962474        80.6130 
 421   0.0000       2.972098        80.8749 
 422   0.0000       2.981025        81.1178 
 423   0.0000       2.986459        81.2657 
 424   0.0000       3.007652        81.8424 
 425   0.0000       3.015182        82.0473 
 426   0.0000       3.017322        82.1055 
 427   0.0000       3.028791        82.4176 
 428   0.0000       3.041177        82.7546 
 429   0.0000       3.047460        82.9256 
 430   0.0000       3.052601        83.0655 
 431   0.0000       3.056537        83.1726 
 432   0.0000       3.060516        83.2809 
 433   0.0000       3.070497        83.5525 
 434   0.0000       3.077633        83.7467 
 435   0.0000       3.080641        83.8285 
 436   0.0000       3.090188        84.0883 
 437   0.0000       3.096093        84.2490 
 438   0.0000       3.103519        84.4510 
 439   0.0000       3.105470        84.5041 
 440   0.0000       3.111665        84.6727 
 441   0.0000       3.118424        84.8566 
 442   0.0000       3.126529        85.0772 
 443   0.0000       3.131252        85.2057 
 444   0.0000       3.141035        85.4719 
 445   0.0000       3.149177        85.6935 
 446   0.0000       3.161546        86.0300 
 447   0.0000       3.172003        86.3146 
 448   0.0000       3.176286        86.4311 
 449   0.0000       3.183180        86.6187 
 450   0.0000       3.188238        86.7564 
 451   0.0000       3.203674        87.1764 
 452   0.0000       3.209695        87.3402 
 453   0.0000       3.218252        87.5731 
 454   0.0000       3.227394        87.8218 
 455   0.0000       3.229003        87.8656 
 456   0.0000       3.230721        87.9124 
 457   0.0000       3.245142        88.3048 
 458   0.0000       3.247253        88.3622 
 459   0.0000       3.255493        88.5865 
 460   0.0000       3.267356        88.9093 
 461   0.0000       3.270214        88.9870 
 462   0.0000       3.280200        89.2588 
 463   0.0000       3.290748        89.5458 
 464   0.0000       3.296825        89.7112 
 465   0.0000       3.303663        89.8972 
 466   0.0000       3.312396        90.1349 
 467   0.0000       3.314049        90.1799 
 468   0.0000       3.326235        90.5115 
 469   0.0000       3.327518        90.5464 
 470   0.0000       3.332566        90.6837 
 471   0.0000       3.338277        90.8391 
 472   0.0000       3.341512        90.9272 
 473   0.0000       3.348858        91.1270 
 474   0.0000       3.355173        91.2989 
 475   0.0000       3.364465        91.5518 
 476   0.0000       3.368466        91.6606 
 477   0.0000       3.371222        91.7356 
 478   0.0000       3.383337        92.0653 
 479   0.0000       3.388670        92.2104 
 480   0.0000       3.394020        92.3560 
 481   0.0000       3.396860        92.4333 
 482   0.0000       3.405549        92.6697 
 483   0.0000       3.407442        92.7212 
 484   0.0000       3.412083        92.8475 
 485   0.0000       3.425464        93.2116 
 486   0.0000       3.429419        93.3192 
 487   0.0000       3.434837        93.4667 
 488   0.0000       3.438235        93.5591 
 489   0.0000       3.440314        93.6157 
 490   0.0000       3.441087        93.6367 
 491   0.0000       3.448669        93.8431 
 492   0.0000       3.458255        94.1039 
 493   0.0000       3.462151        94.2099 
 494   0.0000       3.472325        94.4868 
 495   0.0000       3.474628        94.5494 
 496   0.0000       3.481930        94.7481 
 497   0.0000       3.491012        94.9953 
 498   0.0000       3.505023        95.3765 
 499   0.0000       3.511351        95.5487 
 500   0.0000       3.517248        95.7092 
 501   0.0000       3.523959        95.8918 
 502   0.0000       3.529298        96.0371 
 503   0.0000       3.534077        96.1671 
 504   0.0000       3.549416        96.5845 
 505   0.0000       3.555289        96.7443 
 506   0.0000       3.561235        96.9061 
 507   0.0000       3.564190        96.9865 
 508   0.0000       3.572337        97.2082 
 509   0.0000       3.582292        97.4791 
 510   0.0000       3.587964        97.6335 
 511   0.0000       3.602321        98.0241 
 512   0.0000       3.607609        98.1680 
 513   0.0000       3.608672        98.1969 
 514   0.0000       3.625021        98.6418 
 515   0.0000       3.629671        98.7684 
 516   0.0000       3.639015        99.0226 
 517   0.0000       3.643280        99.1387 
 518   0.0000       3.655973        99.4841 
 519   0.0000       3.659451        99.5787 
 520   0.0000       3.663116        99.6784 
 521   0.0000       3.670294        99.8738 
 522   0.0000       3.676915       100.0539 
 523   0.0000       3.686049       100.3025 
 524   0.0000       3.690647       100.4276 
 525   0.0000       3.696126       100.5767 
 526   0.0000       3.696407       100.5843 
 527   0.0000       3.706035       100.8463 
 528   0.0000       3.711166       100.9860 
 529   0.0000       3.718211       101.1777 
 530   0.0000       3.720158       101.2306 
 531   0.0000       3.725918       101.3874 
 532   0.0000       3.736619       101.6786 
 533   0.0000       3.739888       101.7675 
 534   0.0000       3.753887       102.1485 
 535   0.0000       3.757267       102.2404 
 536   0.0000       3.762378       102.3795 
 537   0.0000       3.765598       102.4671 
 538   0.0000       3.771138       102.6179 
 539   0.0000       3.779952       102.8577 
 540   0.0000       3.784930       102.9932 
 541   0.0000       3.793913       103.2376 
 542   0.0000       3.808393       103.6316 
 543   0.0000       3.812524       103.7441 
 544   0.0000       3.821220       103.9807 
 545   0.0000       3.824997       104.0835 
 546   0.0000       3.828618       104.1820 
 547   0.0000       3.841499       104.5325 
 548   0.0000       3.844338       104.6098 
 549   0.0000       3.849650       104.7543 
 550   0.0000       3.854942       104.8983 
 551   0.0000       3.855548       104.9148 
 552   0.0000       3.865072       105.1740 
 553   0.0000       3.871383       105.3457 
 554   0.0000       3.878438       105.5377 
 555   0.0000       3.900489       106.1377 
 556   0.0000       3.915107       106.5355 
 557   0.0000       3.917173       106.5917 
 558   0.0000       3.923040       106.7513 
 559   0.0000       3.930753       106.9612 
 560   0.0000       3.947933       107.4287 
 561   0.0000       3.953171       107.5712 
 562   0.0000       3.957623       107.6924 
 563   0.0000       3.963163       107.8431 
 564   0.0000       3.973618       108.1276 
 565   0.0000       3.979022       108.2747 
 566   0.0000       4.003303       108.9354 
 567   0.0000       4.013788       109.2207 
 568   0.0000       4.017497       109.3216 
 569   0.0000       4.029597       109.6509 
 570   0.0000       4.036285       109.8329 
 571   0.0000       4.039079       109.9089 
 572   0.0000       4.048904       110.1763 
 573   0.0000       4.056901       110.3939 
 574   0.0000       4.061431       110.5171 
 575   0.0000       4.074652       110.8769 
 576   0.0000       4.077660       110.9588 
 577   0.0000       4.084482       111.1444 
 578   0.0000       4.094284       111.4111 
 579   0.0000       4.100626       111.5837 
 580   0.0000       4.108301       111.7926 
 581   0.0000       4.124874       112.2435 
 582   0.0000       4.133981       112.4913 
 583   0.0000       4.135732       112.5390 
 584   0.0000       4.138557       112.6159 
 585   0.0000       4.142286       112.7173 
 586   0.0000       4.150611       112.9439 
 587   0.0000       4.161743       113.2468 
 588   0.0000       4.169709       113.4636 
 589   0.0000       4.175193       113.6128 
 590   0.0000       4.181751       113.7912 
 591   0.0000       4.188685       113.9799 
 592   0.0000       4.193178       114.1022 
 593   0.0000       4.199666       114.2787 
 594   0.0000       4.207051       114.4797 
 595   0.0000       4.212507       114.6281 
 596   0.0000       4.217089       114.7528 
 597   0.0000       4.221681       114.8778 
 598   0.0000       4.238838       115.3446 
 599   0.0000       4.250024       115.6490 
 600   0.0000       4.256794       115.8333 
 601   0.0000       4.267957       116.1370 
 602   0.0000       4.269145       116.1693 
 603   0.0000       4.276739       116.3760 
 604   0.0000       4.292937       116.8167 
 605   0.0000       4.301322       117.0449 
 606   0.0000       4.306612       117.1889 
 607   0.0000       4.309879       117.2778 
 608   0.0000       4.315849       117.4402 
 609   0.0000       4.323721       117.6544 
 610   0.0000       4.336182       117.9935 
 611   0.0000       4.342347       118.1613 
 612   0.0000       4.347192       118.2931 
 613   0.0000       4.352460       118.4365 
 614   0.0000       4.366542       118.8196 
 615   0.0000       4.370536       118.9283 
 616   0.0000       4.374480       119.0356 
 617   0.0000       4.382620       119.2571 
 618   0.0000       4.388073       119.4055 
 619   0.0000       4.400030       119.7309 
 620   0.0000       4.411352       120.0390 
 621   0.0000       4.424826       120.4056 
 622   0.0000       4.428873       120.5158 
 623   0.0000       4.437520       120.7511 
 624   0.0000       4.444387       120.9379 
 625   0.0000       4.455731       121.2466 
 626   0.0000       4.462179       121.4221 
 627   0.0000       4.464618       121.4884 
 628   0.0000       4.472603       121.7057 
 629   0.0000       4.481068       121.9360 
 630   0.0000       4.489660       122.1699 
 631   0.0000       4.496320       122.3511 
 632   0.0000       4.512593       122.7939 
 633   0.0000       4.525913       123.1564 
 634   0.0000       4.529706       123.2596 
 635   0.0000       4.539385       123.5230 
 636   0.0000       4.547772       123.7512 
 637   0.0000       4.550872       123.8355 
 638   0.0000       4.554458       123.9331 
 639   0.0000       4.565814       124.2421 
 640   0.0000       4.571329       124.3922 
 641   0.0000       4.576927       124.5445 
 642   0.0000       4.589015       124.8734 
 643   0.0000       4.594106       125.0120 
 644   0.0000       4.609393       125.4279 
 645   0.0000       4.614915       125.5782 
 646   0.0000       4.630320       125.9974 
 647   0.0000       4.638479       126.2194 
 648   0.0000       4.642412       126.3265 
 649   0.0000       4.652301       126.5955 
 650   0.0000       4.658920       126.7756 
 651   0.0000       4.664703       126.9330 
 652   0.0000       4.671475       127.1173 
 653   0.0000       4.678293       127.3028 
 654   0.0000       4.700379       127.9038 
 655   0.0000       4.703353       127.9847 
 656   0.0000       4.705888       128.0537 
 657   0.0000       4.714967       128.3008 
 658   0.0000       4.726511       128.6149 
 659   0.0000       4.731143       128.7409 
 660   0.0000       4.744276       129.0983 
 661   0.0000       4.751150       129.2854 
 662   0.0000       4.773780       129.9012 
 663   0.0000       4.791343       130.3791 
 664   0.0000       4.800898       130.6391 
 665   0.0000       4.811892       130.9382 
 666   0.0000       4.829915       131.4287 
 667   0.0000       4.847421       131.9050 
 668   0.0000       4.882582       132.8618 
 669   0.0000       4.898873       133.3051 
 670   0.0000       4.904107       133.4475 
 671   0.0000       4.905967       133.4982 
 672   0.0000       4.916006       133.7713 
 673   0.0000       4.944440       134.5450 
 674   0.0000       4.980222       135.5187 
 675   0.0000       4.990437       135.7967 
 676   0.0000       5.003222       136.1446 
 677   0.0000       5.015559       136.4803 
 678   0.0000       5.034387       136.9926 
 679   0.0000       5.044855       137.2775 
 680   0.0000       5.058129       137.6387 
 681   0.0000       5.060406       137.7007 
 682   0.0000       5.082187       138.2933 
 683   0.0000       5.085191       138.3751 
 684   0.0000       5.100548       138.7930 
 685   0.0000       5.112982       139.1313 
 686   0.0000       5.125706       139.4776 
 687   0.0000       5.134063       139.7049 
 688   0.0000       5.149075       140.1134 
 689   0.0000       5.150867       140.1622 
 690   0.0000       5.161167       140.4425 
 691   0.0000       5.180765       140.9758 
 692   0.0000       5.188071       141.1746 
 693   0.0000       5.189330       141.2089 
 694   0.0000       5.202154       141.5578 
 695   0.0000       5.211549       141.8134 
 696   0.0000       5.218448       142.0012 
 697   0.0000       5.224165       142.1568 
 698   0.0000       5.232130       142.3735 
 699   0.0000       5.256467       143.0357 
 700   0.0000       5.268928       143.3748 
 701   0.0000       5.286656       143.8572 
 702   0.0000       5.290019       143.9487 
 703   0.0000       5.316466       144.6684 
 704   0.0000       5.331652       145.0816 
 705   0.0000       5.332089       145.0935 
 706   0.0000       5.346721       145.4917 
 707   0.0000       5.355896       145.7413 
 708   0.0000       5.374187       146.2391 
 709   0.0000       5.376515       146.3024 
 710   0.0000       5.385851       146.5565 
 711   0.0000       5.400990       146.9684 
 712   0.0000       5.420837       147.5085 
 713   0.0000       5.455907       148.4628 
 714   0.0000       5.471631       148.8907 
 715   0.0000       5.486078       149.2838 
 716   0.0000       5.488277       149.3436 
 717   0.0000       5.497776       149.6021 
 718   0.0000       5.504391       149.7821 
 719   0.0000       5.515758       150.0914 
 720   0.0000       5.527223       150.4034 
 721   0.0000       5.548458       150.9812 
 722   0.0000       5.549737       151.0160 
 723   0.0000       5.564820       151.4264 
 724   0.0000       5.581423       151.8782 
 725   0.0000       5.599609       152.3731 
 726   0.0000       5.600935       152.4092 
 727   0.0000       5.620019       152.9285 
 728   0.0000       5.626615       153.1080 
 729   0.0000       5.637349       153.4001 
 730   0.0000       5.646094       153.6380 
 731   0.0000       5.656530       153.9220 
 732   0.0000       5.672640       154.3604 
 733   0.0000       5.676266       154.4590 
 734   0.0000       5.683103       154.6451 
 735   0.0000       5.706920       155.2932 
 736   0.0000       5.719951       155.6478 
 737   0.0000       5.723922       155.7558 
 738   0.0000       5.742441       156.2598 
 739   0.0000       5.766417       156.9122 
 740   0.0000       5.769023       156.9831 
 741   0.0000       5.788856       157.5228 
 742   0.0000       5.800227       157.8322 
 743   0.0000       5.802605       157.8969 
 744   0.0000       5.828651       158.6057 
 745   0.0000       5.849122       159.1627 
 746   0.0000       5.862371       159.5232 
 747   0.0000       5.881248       160.0369 
 748   0.0000       5.886527       160.1805 
 749   0.0000       5.903342       160.6381 
 750   0.0000       5.931551       161.4057 
 751   0.0000       5.952409       161.9733 
 752   0.0000       5.996120       163.1627 
 753   0.0000       6.005809       163.4264 
 754   0.0000       6.018741       163.7783 
 755   0.0000       6.030942       164.1103 
 756   0.0000       6.046334       164.5291 
 757   0.0000       6.078220       165.3968 
 758   0.0000       6.086927       165.6337 
 759   0.0000       6.111441       166.3008 
 760   0.0000       6.140853       167.1011 
 761   0.0000       6.175035       168.0313 
 762   0.0000       6.205420       168.8581 
 763   0.0000       6.224343       169.3730 
 764   0.0000       6.231885       169.5782 
 765   0.0000       6.253926       170.1780 
 766   0.0000       6.264765       170.4729 
 767   0.0000       6.305398       171.5786 
 768   0.0000       6.308007       171.6496 
 769   0.0000       6.333241       172.3363 
 770   0.0000       6.358196       173.0153 
 771   0.0000       6.371278       173.3713 
 772   0.0000       6.401392       174.1907 
 773   0.0000       6.448263       175.4662 
 774   0.0000       6.465986       175.9484 
 775   0.0000       6.508723       177.1114 
 776   0.0000       6.516031       177.3102 
 777   0.0000       6.537510       177.8947 
 778   0.0000       6.590028       179.3238 
 779   0.0000       6.605905       179.7558 
 780   0.0000       6.650564       180.9711 
 781   0.0000       6.688660       182.0077 
 782   0.0000       6.698492       182.2752 
 783   0.0000       6.764507       184.0716 
 784   0.0000       6.803768       185.1399 
 785   0.0000       6.842653       186.1981 
 786   0.0000       6.874099       187.0538 
 787   0.0000       6.925230       188.4451 
 788   0.0000       6.953429       189.2124 
 789   0.0000       7.002698       190.5531 
 790   0.0000       7.035510       191.4460 
 791   0.0000       7.077300       192.5831 
 792   0.0000       7.096468       193.1047 
 793   0.0000       7.139708       194.2813 
 794   0.0000       7.217535       196.3991 
 795   0.0000       7.248725       197.2478 
 796   0.0000       7.251241       197.3163 
 797   0.0000       7.298278       198.5963 
 798   0.0000       7.343856       199.8365 
 799   0.0000       7.361596       200.3192 
 800   0.0000       7.417804       201.8487 
 801   0.0000       7.494019       203.9226 
 802   0.0000       7.569409       205.9741 
 803   0.0000       7.585165       206.4028 
 804   0.0000       7.654707       208.2952 
 805   0.0000       7.799413       212.2328 
 806   0.0000       7.819216       212.7717 
 807   0.0000       7.946721       216.2413 
 808   0.0000       7.956368       216.5038 
 809   0.0000       9.435914       256.7643 
 810   0.0000       9.860794       268.3259 
 811   0.0000      10.885347       296.2054 
 812   0.0000      11.212950       305.1199 
 813   0.0000      11.922048       324.4154 
 814   0.0000      12.520283       340.6942 
 815   0.0000      12.796431       348.2086 
 816   0.0000      13.010758       354.0407 
 817   0.0000      13.127998       357.2310 
 818   0.0000      13.195199       359.0596 
 819   0.0000      13.408253       364.8571 
 820   0.0000      13.512185       367.6852 
 821   0.0000      13.786932       375.1615 
 822   0.0000      13.831484       376.3738 
 823   0.0000      13.884292       377.8108 
 824   0.0000      13.949297       379.5797 
 825   0.0000      14.374409       391.1476 
 826   0.0000      14.569132       396.4462 
 827   0.0000      15.854388       431.4198 

                    ********************************
                    * MULLIKEN POPULATION ANALYSIS *
                    ********************************

-----------------------
MULLIKEN ATOMIC CHARGES
-----------------------
   0 C :   -0.271081
   1 C :    0.041261
   2 O :   -0.341155
   3 C :    0.435690
   4 O :   -0.433363
   5 C :   -0.082919
   6 C :    0.100163
   7 C :   -0.280898
   8 N :   -0.142997
   9 C :    0.191847
  10 S :   -0.416598
  11 N :   -0.211731
  12 C :    0.067795
  13 C :    0.072542
  14 C :   -0.242469
  15 C :   -0.129687
  16 C :   -0.278806
  17 C :    0.293401
  18 O :   -0.359631
  19 C :   -0.268370
  20 H :    0.095029
  21 H :    0.093512
  22 H :    0.102472
  23 H :    0.099179
  24 H :    0.097347
  25 H :    0.119636
  26 H :    0.104515
  27 H :    0.125255
  28 H :    0.197034
  29 H :    0.192278
  30 H :    0.186893
  31 H :    0.149952
  32 H :    0.156050
  33 H :    0.130500
  34 H :    0.240232
  35 H :    0.167126
Sum of atomic charges:    0.0000000

--------------------------------
MULLIKEN REDUCED ORBITAL CHARGES
--------------------------------
  0 C s       :     3.257825  s :     3.257825
      pz      :     0.964399  p :     2.935239
      px      :     0.960345
      py      :     1.010495
      dz2     :     0.007274  d :     0.073552
      dxz     :     0.018858
      dyz     :     0.019785
      dx2y2   :     0.025493
      dxy     :     0.002143
      f0      :     0.000271  f :     0.004466
      f+1     :     0.000796
      f-1     :     0.000195
      f+2     :     0.002402
      f-2     :     0.000308
      f+3     :     0.000377
      f-3     :     0.000118
  1 C s       :     3.171562  s :     3.171562
      pz      :     0.876290  p :     2.630698
      px      :     0.996143
      py      :     0.758264
      dz2     :     0.022095  d :     0.145062
      dxz     :     0.027526
      dyz     :     0.042005
      dx2y2   :     0.034126
      dxy     :     0.019310
      f0      :     0.000758  f :     0.011417
      f+1     :     0.000784
      f-1     :     0.002527
      f+2     :     0.003115
      f-2     :     0.001711
      f+3     :     0.001317
      f-3     :     0.001205
  2 O s       :     3.719395  s :     3.719395
      pz      :     1.671212  p :     4.584595
      px      :     1.422656
      py      :     1.490727
      dz2     :     0.004028  d :     0.034918
      dxz     :     0.006070
      dyz     :     0.006078
      dx2y2   :     0.013340
      dxy     :     0.005402
      f0      :     0.000326  f :     0.002247
      f+1     :     0.000262
      f-1     :     0.000213
      f+2     :     0.000447
      f-2     :     0.000267
      f+3     :     0.000353
      f-3     :     0.000379
  3 C s       :     3.085349  s :     3.085349
      pz      :     0.685270  p :     2.151227
      px      :     0.679495
      py      :     0.786462
      dz2     :     0.024686  d :     0.301503
      dxz     :     0.075648
      dyz     :     0.036205
      dx2y2   :     0.099482
      dxy     :     0.065482
      f0      :     0.002406  f :     0.026231
      f+1     :     0.002651
      f-1     :     0.001755
      f+2     :     0.002841
      f-2     :     0.004218
      f+3     :     0.006845
      f-3     :     0.005516
  4 O s       :     3.771087  s :     3.771087
      pz      :     1.530602  p :     4.624431
      px      :     1.528800
      py      :     1.565030
      dz2     :     0.003866  d :     0.035433
      dxz     :     0.007116
      dyz     :     0.004231
      dx2y2   :     0.008097
      dxy     :     0.012124
      f0      :     0.000213  f :     0.002411
      f+1     :     0.000253
      f-1     :     0.000161
      f+2     :     0.000053
      f-2     :     0.000430
      f+3     :     0.000580
      f-3     :     0.000721
  5 C s       :     3.139075  s :     3.139075
      pz      :     1.024128  p :     2.838871
      px      :     0.941448
      py      :     0.873295
      dz2     :     0.022439  d :     0.093940
      dxz     :     0.014114
      dyz     :     0.020684
      dx2y2   :     0.022910
      dxy     :     0.013792
      f0      :     0.001321  f :     0.011033
      f+1     :     0.001335
      f-1     :     0.000985
      f+2     :     0.002274
      f-2     :     0.001672
      f+3     :     0.001412
      f-3     :     0.002033
  6 C s       :     3.217637  s :     3.217637
      pz      :     0.880988  p :     2.492711
      px      :     0.851064
      py      :     0.760659
      dz2     :     0.023709  d :     0.175476
      dxz     :     0.017470
      dyz     :     0.051796
      dx2y2   :     0.039842
      dxy     :     0.042659
      f0      :     0.001302  f :     0.014012
      f+1     :     0.001426
      f-1     :     0.001929
      f+2     :     0.002302
      f-2     :     0.002169
      f+3     :     0.002340
      f-3     :     0.002544
  7 C s       :     3.278721  s :     3.278721
      pz      :     0.970824  p :     2.927837
      px      :     0.931378
      py      :     1.025635
      dz2     :     0.009366  d :     0.069723
      dxz     :     0.018198
      dyz     :     0.016316
      dx2y2   :     0.023069
      dxy     :     0.002775
      f0      :     0.000219  f :     0.004618
      f+1     :     0.000719
      f-1     :     0.000311
      f+2     :     0.002336
      f-2     :     0.000383
      f+3     :     0.000352
      f-3     :     0.000299
  8 N s       :     3.349163  s :     3.349163
      pz      :     1.420409  p :     3.730671
      px      :     1.250384
      py      :     1.059878
      dz2     :     0.008098  d :     0.058360
      dxz     :     0.008360
      dyz     :     0.011576
      dx2y2   :     0.014448
      dxy     :     0.015878
      f0      :     0.000608  f :     0.004805
      f+1     :     0.000798
      f-1     :     0.000417
      f+2     :     0.000909
      f-2     :     0.000904
      f+3     :     0.000636
      f-3     :     0.000533
  9 C s       :     3.170467  s :     3.170467
      pz      :     0.712579  p :     2.360559
      px      :     0.751525
      py      :     0.896456
      dz2     :     0.046200  d :     0.259722
      dxz     :     0.029454
      dyz     :     0.059470
      dx2y2   :     0.060507
      dxy     :     0.064091
      f0      :     0.001493  f :     0.017405
      f+1     :     0.002880
      f-1     :     0.002203
      f+2     :     0.003154
      f-2     :     0.002104
      f+3     :     0.002640
      f-3     :     0.002931
 10 S s       :     5.856631  s :     5.856631
      pz      :     3.639553  p :    10.465710
      px      :     3.673021
      py      :     3.153136
      dz2     :     0.011362  d :     0.084135
      dxz     :     0.002142
      dyz     :     0.022588
      dx2y2   :     0.022443
      dxy     :     0.025601
      f0      :     0.001039  f :     0.010122
      f+1     :     0.000336
      f-1     :     0.001457
      f+2     :     0.001662
      f-2     :     0.000929
      f+3     :     0.003095
      f-3     :     0.001604
 11 N s       :     3.398825  s :     3.398825
      pz      :     1.334809  p :     3.747556
      px      :     1.392995
      py      :     1.019752
      dz2     :     0.005540  d :     0.060925
      dxz     :     0.007736
      dyz     :     0.019409
      dx2y2   :     0.014996
      dxy     :     0.013245
      f0      :     0.000492  f :     0.004424
      f+1     :     0.000380
      f-1     :     0.000501
      f+2     :     0.000948
      f-2     :     0.000715
      f+3     :     0.000659
      f-3     :     0.000728
 12 C s       :     3.129423  s :     3.129423
      pz      :     0.871772  p :     2.625657
      px      :     0.911349
      py      :     0.842536
      dz2     :     0.035983  d :     0.166219
      dxz     :     0.029197
      dyz     :     0.030104
      dx2y2   :     0.028642
      dxy     :     0.042293
      f0      :     0.001140  f :     0.010905
      f+1     :     0.001708
      f-1     :     0.001446
      f+2     :     0.002247
      f-2     :     0.001380
      f+3     :     0.001662
[...]
      f+2     :     0.007029
      f-2     :     0.005844
      f+3     :     0.009202
      f-3     :     0.005802
 15 C s       :     2.706981  s :     2.706981
      pz      :     0.879558  p :     2.792662
      px      :     0.944429
      py      :     0.968675
      dz2     :     0.074614  d :     0.420066
      dxz     :     0.070427
      dyz     :     0.059490
      dx2y2   :     0.132514
      dxy     :     0.083021
      f0      :     0.003748  f :     0.041098
      f+1     :     0.004537
      f-1     :     0.004889
      f+2     :     0.005584
      f-2     :     0.007143
      f+3     :     0.007667
      f-3     :     0.007529
 16 C s       :     2.699819  s :     2.699819
      pz      :     0.931296  p :     2.876295
      px      :     0.956102
      py      :     0.988897
      dz2     :     0.034177  d :     0.394531
      dxz     :     0.056063
      dyz     :     0.083223
      dx2y2   :     0.116255
      dxy     :     0.104814
      f0      :     0.003536  f :     0.041121
      f+1     :     0.002115
      f-1     :     0.006289
      f+2     :     0.005858
      f-2     :     0.004995
      f+3     :     0.010462
      f-3     :     0.007866
 17 C s       :     2.700690  s :     2.700690
      pz      :     0.859921  p :     2.682236
      px      :     0.863495
      py      :     0.958820
      dz2     :     0.106128  d :     0.712436
      dxz     :     0.100471
      dyz     :     0.138280
      dx2y2   :     0.170720
      dxy     :     0.196836
      f0      :     0.008461  f :     0.099630
      f+1     :     0.009639
      f-1     :     0.012116
      f+2     :     0.011565
      f-2     :     0.016094
      f+3     :     0.025635
      f-3     :     0.016121
 18 O s       :     3.176461  s :     3.176461
      pz      :     1.581783  p :     4.349719
      px      :     1.259607
      py      :     1.508329
      dz2     :     0.007215  d :     0.075084
      dxz     :     0.011722
      dyz     :     0.009922
      dx2y2   :     0.015715
      dxy     :     0.030509
      f0      :     0.000500  f :     0.005017
      f+1     :     0.000637
      f-1     :     0.000291
      f+2     :     0.000243
      f-2     :     0.000821
      f+3     :     0.001343
      f-3     :     0.001182
 19 C s       :     2.696944  s :     2.696944
      pz      :     0.927767  p :     2.856405
      px      :     0.960253
      py      :     0.968384
      dz2     :     0.061438  d :     0.384104
      dxz     :     0.068401
      dyz     :     0.054278
      dx2y2   :     0.116846
      dxy     :     0.083142
      f0      :     0.003540  f :     0.040018
      f+1     :     0.004765
      f-1     :     0.004157
      f+2     :     0.006203
      f-2     :     0.006907
      f+3     :     0.007026
      f-3     :     0.007421
 20 H s       :     0.850933  s :     0.850933
      pz      :     0.047714  p :     0.150012
      px      :     0.038794
      py      :     0.063504
      dz2     :     0.004841  d :     0.027537
      dxz     :     0.003054
      dyz     :     0.007775
      dx2y2   :     0.005977
      dxy     :     0.005890
 21 H s       :     0.849911  s :     0.849911
      pz      :     0.045788  p :     0.152181
      px      :     0.067406
      py      :     0.038987
      dz2     :     0.004399  d :     0.027427
      dxz     :     0.007619
      dyz     :     0.002614
      dx2y2   :     0.006179
      dxy     :     0.006617
 22 H s       :     0.844331  s :     0.844331
      pz      :     0.052417  p :     0.149845
      px      :     0.038845
      py      :     0.058583
      dz2     :     0.006130  d :     0.027298
      dxz     :     0.004309
      dyz     :     0.007043
      dx2y2   :     0.004914
      dxy     :     0.004902
 23 H s       :     0.857372  s :     0.857372
      pz      :     0.046482  p :     0.144088
      px      :     0.040834
      py      :     0.056773
      dz2     :     0.003923  d :     0.026617
      dxz     :     0.004411
      dyz     :     0.007594
      dx2y2   :     0.005376
      dxy     :     0.005313
 24 H s       :     0.849533  s :     0.849533
      pz      :     0.048387  p :     0.151343
      px      :     0.073574
      py      :     0.029382
      dz2     :     0.005120  d :     0.027807
      dxz     :     0.008749
      dyz     :     0.002913
      dx2y2   :     0.005646
      dxy     :     0.005379
 25 H s       :     0.831466  s :     0.831466
      pz      :     0.056138  p :     0.155729
      px      :     0.037504
      py      :     0.062087
      dz2     :     0.007412  d :     0.028100
      dxz     :     0.005314
      dyz     :     0.007251
      dx2y2   :     0.004442
      dxy     :     0.003681
 26 H s       :     0.840572  s :     0.840572
      pz      :     0.046321  p :     0.151473
      px      :     0.037488
      py      :     0.067664
      dz2     :     0.004321  d :     0.027855
      dxz     :     0.002307
      dyz     :     0.008318
      dx2y2   :     0.006193
      dxy     :     0.006716
 27 H s       :     0.829434  s :     0.829434
      pz      :     0.045408  p :     0.151564
      px      :     0.065700
      py      :     0.040456
      dz2     :     0.004401  d :     0.027479
      dxz     :     0.007517
      dyz     :     0.002616
      dx2y2   :     0.006195
      dxy     :     0.006751
 28 H s       :     0.743750  s :     0.743750
      pz      :     0.079831  p :     0.255988
      px      :     0.073961
      py      :     0.102197
      dz2     :     0.007670  d :     0.061949
      dxz     :     0.004338
      dyz     :     0.017523
      dx2y2   :     0.015218
      dxy     :     0.017200
 29 H s       :     0.746405  s :     0.746405
      pz      :     0.098327  p :     0.254174
      px      :     0.112135
      py      :     0.043712
      dz2     :     0.018414  d :     0.060523
      dxz     :     0.014937
      dyz     :     0.006883
      dx2y2   :     0.011728
      dxy     :     0.008562
 30 H s       :     0.817118  s :     0.817118
      pz      :     0.038511  p :     0.153807
      px      :     0.050164
      py      :     0.065132
      dz2     :     0.002966  d :     0.028197
      dxz     :     0.004117
      dyz     :     0.005386
      dx2y2   :     0.007354
      dxy     :     0.008374
 31 H s       :     0.845353  s :     0.845353
      pz      :     0.049822  p :     0.159603
      px      :     0.056693
      py      :     0.053087
      dz2     :     0.003986  d :     0.027629
      dxz     :     0.004451
      dyz     :     0.005035
      dx2y2   :     0.007416
      dxy     :     0.006741
 32 H s       :     0.844632  s :     0.844632
      pz      :     0.039953  p :     0.151135
      px      :     0.034996
      py      :     0.076186
      dz2     :     0.002960  d :     0.026411
      dxz     :     0.000497
      dyz     :     0.007698
      dx2y2   :     0.007437
      dxy     :     0.007819
 33 H s       :     0.849630  s :     0.849630
      pz      :     0.059117  p :     0.159383
      px      :     0.061805
      py      :     0.038460
      dz2     :     0.005888  d :     0.027803
      dxz     :     0.006699
      dyz     :     0.003807
      dx2y2   :     0.005692
      dxy     :     0.005719
 34 H s       :     0.707073  s :     0.707073
      pz      :     0.109587  p :     0.349688
      px      :     0.121810
      py      :     0.118291
      dz2     :     0.013668  d :     0.099763
      dxz     :     0.022130
      dyz     :     0.012917
      dx2y2   :     0.025116
      dxy     :     0.025932
 35 H s       :     0.837574  s :     0.837574
      pz      :     0.049104  p :     0.168628
      px      :     0.037806
      py      :     0.081718
      dz2     :     0.003255  d :     0.029619
      dxz     :     0.000569
      dyz     :     0.008965
      dx2y2   :     0.007871
      dxy     :     0.008960


                      *****************************
                      * MAYER POPULATION ANALYSIS *
                      *****************************

  NA   - Mulliken gross atomic population
  ZA   - Total nuclear charge
  QA   - Mulliken gross atomic charge
  VA   - Mayer's total valence
  BVA  - Mayer's bonded valence
  FA   - Mayer's free valence

  ATOM       NA         ZA         QA         VA         BVA        FA
  0 C      6.2711     6.0000    -0.2711     3.8888     3.8888     0.0000
  1 C      5.9587     6.0000     0.0413     3.8473     3.8473     0.0000
  2 O      8.3412     8.0000    -0.3412     2.0739     2.0739     0.0000
  3 C      5.5643     6.0000     0.4357     4.1978     4.1978    -0.0000
  4 O      8.4334     8.0000    -0.4334     2.0848     2.0848     0.0000
  5 C      6.0829     6.0000    -0.0829     3.5882     3.5882    -0.0000
  6 C      5.8998     6.0000     0.1002     3.8614     3.8614     0.0000
  7 C      6.2809     6.0000    -0.2809     3.8935     3.8935     0.0000
  8 N      7.1430     7.0000    -0.1430     3.2655     3.2655     0.0000
  9 C      5.8082     6.0000     0.1918     4.1299     4.1299     0.0000
 10 S     16.4166    16.0000    -0.4166     1.7833     1.7833     0.0000
 11 N      7.2117     7.0000    -0.2117     3.2101     3.2101     0.0000
 12 C      5.9322     6.0000     0.0678     3.9044     3.9044     0.0000
 13 C      5.9275     6.0000     0.0725     3.6680     3.6680    -0.0000
 14 C      6.2425     6.0000    -0.2425     3.8529     3.8529     0.0000
 15 C      6.1297     6.0000    -0.1297     3.8147     3.8147     0.0000
 16 C      6.2788     6.0000    -0.2788     3.7848     3.7848    -0.0000
 17 C      5.7066     6.0000     0.2934     3.8917     3.8917    -0.0000
 18 O      8.3596     8.0000    -0.3596     2.1097     2.1097    -0.0000
 19 C      6.2684     6.0000    -0.2684     3.8061     3.8061    -0.0000
 20 H      0.9050     1.0000     0.0950     0.9842     0.9842     0.0000
 21 H      0.9065     1.0000     0.0935     0.9820     0.9820     0.0000
 22 H      0.8975     1.0000     0.1025     0.9830     0.9830     0.0000
 23 H      0.9008     1.0000     0.0992     0.9812     0.9812     0.0000
 24 H      0.9027     1.0000     0.0973     0.9836     0.9836     0.0000
 25 H      0.8804     1.0000     0.1196     0.9899     0.9899     0.0000
 26 H      0.8955     1.0000     0.1045     0.9826     0.9826     0.0000
 27 H      0.8747     1.0000     0.1253     0.9758     0.9758     0.0000
 28 H      0.8030     1.0000     0.1970     1.0215     1.0215     0.0000
 29 H      0.8077     1.0000     0.1923     1.0203     1.0203    -0.0000
 30 H      0.8131     1.0000     0.1869     0.9960     0.9960     0.0000
 31 H      0.8500     1.0000     0.1500     0.9883     0.9883     0.0000
 32 H      0.8439     1.0000     0.1561     0.9783     0.9783     0.0000
 33 H      0.8695     1.0000     0.1305     0.9906     0.9906     0.0000
 34 H      0.7598     1.0000     0.2402     1.0102     1.0102    -0.0000
 35 H      0.8329     1.0000     0.1671     0.9942     0.9942    -0.0000

  Mayer bond orders larger than 0.100000
B(  0-C ,  1-C ) :   0.9650 B(  0-C , 20-H ) :   0.9772 B(  0-C , 21-H ) :   0.9803 
B(  0-C , 22-H ) :   0.9781 B(  1-C ,  2-O ) :   0.8953 B(  1-C , 23-H ) :   0.9807 
B(  1-C , 24-H ) :   0.9789 B(  2-O ,  3-C ) :   1.1849 B(  3-C ,  4-O ) :   1.9660 
B(  3-C ,  5-C ) :   0.9917 B(  5-C ,  6-C ) :   1.6456 B(  5-C , 12-C ) :   0.9963 
B(  6-C ,  7-C ) :   0.9596 B(  6-C ,  8-N ) :   1.1349 B(  7-C , 25-H ) :   0.9706 
B(  7-C , 26-H ) :   0.9831 B(  7-C , 27-H ) :   0.9632 B(  8-N ,  9-C ) :   1.1628 
B(  8-N , 28-H ) :   0.9497 B(  9-C , 10-S ) :   1.6395 B(  9-C , 11-N ) :   1.2752 
B( 11-N , 12-C ) :   0.9773 B( 11-N , 29-H ) :   0.9520 B( 12-C , 13-C ) :   0.8805 
B( 12-C , 30-H ) :   0.9847 B( 13-C , 14-C ) :   1.3893 B( 13-C , 19-C ) :   1.3479 
B( 14-C , 15-C ) :   1.3756 B( 14-C , 31-H ) :   0.9710 B( 15-C , 16-C ) :   1.3826 
B( 15-C , 32-H ) :   0.9722 B( 16-C , 17-C ) :   1.3232 B( 16-C , 33-H ) :   0.9829 
B( 17-C , 18-O ) :   1.1160 B( 17-C , 19-C ) :   1.3847 B( 18-O , 34-H ) :   0.9795 
B( 19-C , 35-H ) :   0.9480 

-------
TIMINGS
-------

Total SCF time: 0 days 1 hours 34 min 14 sec 

Total time                  ....    5654.451 sec
Sum of individual times     ....    5650.444 sec  ( 99.9%)

Fock matrix formation       ....    5639.575 sec  ( 99.7%)
Diagonalization             ....       1.170 sec  (  0.0%)
Density matrix formation    ....       0.209 sec  (  0.0%)
Population analysis         ....       0.165 sec  (  0.0%)
Initial guess               ....       4.689 sec  (  0.1%)
Orbital Transformation      ....       0.000 sec  (  0.0%)
Orbital Orthonormalization  ....       0.000 sec  (  0.0%)
DIIS solution               ....       1.818 sec  (  0.0%)
SOSCF solution              ....       1.572 sec  (  0.0%)

------------------------------------------------------------------------------
                                ORCA  MP2 
------------------------------------------------------------------------------

Freezing NCore=48 chemical core electrons

-------------
RI-MP2 ENERGY
-------------
Dimension of the basis                    ...  828
Memory devoted to MP2                     ...  256 MB   
Data format for buffers                   ... DOUBLE
Compression type for matrix containers    ... UNCOMPRESSED
Overall scaling of the MP2 energy         ...   1.000e+00
Calculating two index integrals           ... done (    0.040 sec)
Cholesky decomposition of V**-1           ... done (    0.279 sec)

-----------------
RI-TRANSFORMATION (AUX index driven)
-----------------

Dimension of the orbital-basis         ... 828
Dimension of the aux-basis             ... 2141
Transformation of internal/external MOs...   24-  76 to   77- 827
Number Format for Storage              ... Double (8 Byte)
Integral mode                          ... Direct

First Phase: integral generation and transformation of MO indices
  Aux angular momentum 0               ... done (    4.519 sec)
  Aux angular momentum 1               ... done (    7.115 sec)
  Aux angular momentum 2               ... done (    9.420 sec)
  Aux angular momentum 3               ... done (    7.542 sec)
  Aux angular momentum 4               ... done (    2.644 sec)
Closing buffer VIA ( 0.63 GB; CompressionRatio= 1.00)
  Phase 1 completed in    31.455 sec
Second Phase: sorting and transformation of aux index

IA-Transformation
Memory available                       ... 167 MB 
Max. # MO pairs treated in a batch     ... 12    
# of internal orbitals                 ... 53
# batches for internal orbitals        ... 5
Closing buffer IAV ( 0.63 GB; CompressionRatio= 1.00)
(ia|v) transformation done in    20.982 sec

  Phase 2 completed in    20.985 sec
RI-Integral transformation completed in    52.450 sec
Opening buffers                              ... done

Starting loop over batches of integrals:

Operator 0  - window                       ... ( 24- 76)x( 77-827)
Operator 0  - Memory available             ...   256 MB
Operator 0  - Memory needed per MO         ...  12.3 MB
Operator 0  - Number of orbitals per batch ... 13
Operator 0  - Number of batches            ... 5

OPERATOR  0   PASS   0:  MOs    24 ...   36
  Reading integrals       ... ok
  Internal MO  26
  Internal MO  29
  Internal MO  32
  Internal MO  35
OPERATOR  0   PASS   1:  MOs    37 ...   49
  Reading integrals       ... ok
  Internal MO  38
  Internal MO  41
  Internal MO  44
  Internal MO  47
OPERATOR  0   PASS   2:  MOs    50 ...   62
  Reading integrals       ... ok
  Internal MO  50
  Internal MO  53
  Internal MO  56
  Internal MO  59
  Internal MO  62
OPERATOR  0   PASS   3:  MOs    63 ...   75
  Reading integrals       ... ok
  Internal MO  65
  Internal MO  68
  Internal MO  71
  Internal MO  74
OPERATOR  0   PASS   4:  MOs    76 ...   76
  Reading integrals       ... ok
Time spent in pair loops =    77.343 sec
Deleting buffer (Ka|jb)[aa] ...done

-----------------------------------------------
 RI-MP2 CORRELATION ENERGY:     -3.553246900 Eh
-----------------------------------------------


-------
TIMINGS
-------

Total time                :  130.214 sec
Integral trafo            :   52.466 sec ( 40.3%)
I/O of integrals          :    0.951 sec (  0.7%)
K(i,j) Operators          :   47.030 sec ( 36.1%)
T(i,j) pair energies      :    8.037 sec (  6.2%)
V-calculation             :    0.040 sec (  0.0%)
V**(-1/2)                 :    0.279 sec (  0.2%)
Gamma(ia|P)               :    0.000 sec (  0.0%)
Gamma-Trafo               :    0.000 sec (  0.0%)
D(virtual)                :    0.000 sec (  0.0%)
D(internal)               :    0.000 sec (  0.0%)
W(virtual)                :    0.000 sec (  0.0%)
W(internal)               :    0.000 sec (  0.0%)
L(virtual)                :    0.000 sec (  0.0%)
L(internal)               :    0.000 sec (  0.0%)
G(D)                      :    0.000 sec (  0.0%)
G(Z)                      :    0.000 sec (  0.0%)
Z-Vector Solution         :    0.000 sec (  0.0%)
3-Index Derivative        :    0.000 sec (  0.0%)
2-Index Derivative        :    0.000 sec (  0.0%)
Separable Gradient        :    0.000 sec (  0.0%)


---------------------------------------
MP2 TOTAL ENERGY:    -1274.281445019 Eh
---------------------------------------

-------------------------   --------------------
FINAL SINGLE POINT ENERGY     -1274.281445019065
-------------------------   --------------------


                            ***************************************
                            *     ORCA property calculations      *
                            ***************************************


  WARNING: The energy has been calculated at the MP2 level but the densities
           used in the property calculations are still SCF densities
           MP2 response densities have not been calculated 
           use %mp2 Density relaxed end
           or  %mp2 Density unrelaxed end

                                    ---------------------
                                    Active property flags
                                    ---------------------
   (+) Dipole Moment


------------------------------------------------------------------------------
                       ORCA ELECTRIC PROPERTIES CALCULATION
------------------------------------------------------------------------------

Dipole Moment Calculation                       ... on
Quadrupole Moment Calculation                   ... off
Polarizability Calculation                      ... off
GBWName                                         ... G2_CONFS/Conf125.orca.gbw
Electron density file                           ... G2_CONFS/Conf125.orca.scfp
The origin for moment calculation is the CENTER OF MASS  = (32.981984, 31.637167 35.412658)

-------------
DIPOLE MOMENT
-------------
                                X             Y             Z
Electronic contribution:     11.75012      11.94820      10.46017
Nuclear contribution   :    -13.62228     -13.53418     -11.33315
                        -----------------------------------------
Total Dipole Moment    :     -1.87216      -1.58598      -0.87297
                        -----------------------------------------
Magnitude (a.u.)       :      2.60431
Magnitude (Debye)      :      6.61962



--------------------
Rotational spectrum 
--------------------
 
Rotational constants in cm-1:     0.012241     0.008408     0.006408 
Rotational constants in MHz :   366.964198   252.057036   192.092036 

 Dipole components along the rotational axes: 
x,y,z [a.u.] :    -2.265331     0.758361     1.037097 
x,y,z [Debye]:    -5.758015     1.927600     2.636090 

 

Timings for individual modules:

Sum of individual times         ...     5786.232 sec (=  96.437 min)
GTO integral calculation        ...        1.279 sec (=   0.021 min)   0.0 %
SCF iterations                  ...     5654.507 sec (=  94.242 min)  97.7 %
MP2 module                      ...      130.445 sec (=   2.174 min)   2.3 %
                             ****ORCA TERMINATED NORMALLY****
TOTAL RUN TIME: 0 days 1 hours 36 minutes 27 seconds 77 msec
