
                                 *****************
                                 * O   R   C   A *
                                 *****************

           --- An Ab Initio, DFT and Semiempirical electronic structure package ---

                  #######################################################
                  #                        -***-                        #
                  #          Department of theory and spectroscopy      #
                  #               Directorship: Frank Neese             #
                  #        Max Planck Institute fuer Kohlenforschung    #
                  #                Kaiser Wilhelm Platz 1               #
                  #                 D-45470 Muelheim/Ruhr               #
                  #                      Germany                        #
                  #                                                     #
                  #                  All rights reserved                #
                  #                        -***-                        #
                  #######################################################


                         Program Version 4.2.0 -  RELEASE  -


 With contributions from (in alphabetic order):
   Daniel Aravena         : Magnetic Suceptibility
   Michael Atanasov       : Ab Initio Ligand Field Theory (pilot matlab implementation)
   Alexander A. Auer      : GIAO ZORA, VPT2
   Ute Becker             : Parallelization
   Giovanni Bistoni       : ED, misc. LED, open-shell LED, HFLED
   Martin Brehm           : Molecular dynamics
   Dmytro Bykov           : SCF Hessian
   Vijay G. Chilkuri      : MRCI spin determinant printing, contributions to CSF-ICE
   Dipayan Datta          : RHF DLPNO-CCSD density
   Achintya Kumar Dutta   : EOM-CC, STEOM-CC
   Dmitry Ganyushin       : Spin-Orbit,Spin-Spin,Magnetic field MRCI
   Miquel Garcia          : C-PCM Hessian, Gaussian charge scheme
   Yang Guo               : DLPNO-NEVPT2, CIM, IAO-localization
   Andreas Hansen         : Spin unrestricted coupled pair/coupled cluster methods
   Benjamin Helmich-Paris : CASSCF linear response (MC-RPA)
   Lee Huntington         : MR-EOM, pCC
   Robert Izsak           : Overlap fitted RIJCOSX, COSX-SCS-MP3, EOM
   Christian Kollmar      : KDIIS, OOCD, Brueckner-CCSD(T), CCSD density
   Simone Kossmann        : Meta GGA functionals, TD-DFT gradient, OOMP2, MP2 Hessian
   Martin Krupicka        : AUTO-CI
   Lucas Lang             : DCDCAS
   Dagmar Lenk            : GEPOL surface, SMD
   Dimitrios Liakos       : Extrapolation schemes; Compound Job, initial MDCI parallelization
   Dimitrios Manganas     : Further ROCIS development; embedding schemes
   Dimitrios Pantazis     : SARC Basis sets
   Taras Petrenko         : DFT Hessian,TD-DFT gradient, ASA, ECA, R-Raman, ABS, FL, XAS/XES, NRVS
   Peter Pinski           : DLPNO-MP2, DLPNO-MP2 Gradient
   Christoph Reimann      : Effective Core Potentials
   Marius Retegan         : Local ZFS, SOC
   Christoph Riplinger    : Optimizer, TS searches, QM/MM, DLPNO-CCSD(T), (RO)-DLPNO pert. Triples
   Tobias Risthaus        : Range-separated hybrids, TD-DFT gradient, RPA, STAB
   Michael Roemelt        : Original ROCIS implementation
   Masaaki Saitow         : Open-shell DLPNO-CCSD energy and density
   Barbara Sandhoefer     : DKH picture change effects
   Avijit Sen             : IP-ROCIS
   Kantharuban Sivalingam : CASSCF convergence, NEVPT2, FIC-MRCI
   Bernardo de Souza      : ESD, SOC TD-DFT
   Georgi Stoychev        : AutoAux, RI-MP2 NMR
   Willem Van den Heuvel  : Paramagnetic NMR
   Boris Wezisla          : Elementary symmetry handling
   Frank Wennmohs         : Technical directorship


 We gratefully acknowledge several colleagues who have allowed us to
 interface, adapt or use parts of their codes:
   Stefan Grimme, W. Hujo, H. Kruse,             : VdW corrections, initial TS optimization,
                  C. Bannwarth                     DFT functionals, gCP, sTDA/sTD-DF
   Ed Valeev, F. Pavosevic, A. Kumar             : LibInt (2-el integral package), F12 methods
   Garnet Chan, S. Sharma, J. Yang, R. Olivares  : DMRG
   Ulf Ekstrom                                   : XCFun DFT Library
   Mihaly Kallay                                 : mrcc  (arbitrary order and MRCC methods)
   Andreas Klamt, Michael Diedenhofen            : otool_cosmo (COSMO solvation model)
   Jiri Pittner, Ondrej Demel                    : Mk-CCSD
   Frank Weinhold                                : gennbo (NPA and NBO analysis)
   Christopher J. Cramer and Donald G. Truhlar   : smd solvation model
   Lars Goerigk                                  : TD-DFT with DH, B97 family of functionals
   V. Asgeirsson, H. Jonsson                     : NEB implementation
   FAccTs GmbH                                   : IRC, NEB, NEB-TS, Multilevel, MM, QM/MM, CI optimization
   S Lehtola, MJT Oliveira, MAL Marques          : LibXC Library


 Your calculation uses the libint2 library for the computation of 2-el integrals
 For citations please refer to: http://libint.valeyev.net

 Your ORCA version has been built with support for libXC version: 4.2.3
 For citations please refer to: https://tddft.org/programs/libxc/

 This ORCA versions uses:
   CBLAS   interface :  Fast vector & matrix operations
   LAPACKE interface :  Fast linear algebra routines
   SCALAPACK package :  Parallel linear algebra routines


----- Orbital basis set information -----
Your calculation utilizes the basis: cc-pVTZ 
       H, B-Ne : Obtained from the ccRepo (grant-hill.group.shef.ac.uk/ccrepo) Feb. 2017
                 T. H. Dunning, Jr., J. Chem. Phys. 90, 1007 (1989)
            He : Obtained from the ccRepo (grant-hill.group.shef.ac.uk/ccrepo) Feb. 2017
                 D. E. Woon, T. H. Dunning, Jr., J. Chem. Phys. 100, 2975 (1994)
  Li-Be, Na-Mg : Obtained from the ccRepo (grant-hill.group.shef.ac.uk/ccrepo) Feb. 2017
                 B. P. Prascher, D. E. Woon, K. A. Peterson, T. H. Dunning, Jr., A. K. Wilson, Theor. Chem. Acc. 128, 69 (2011)
         Al-Ar : Obtained from the ccRepo (grant-hill.group.shef.ac.uk/ccrepo) Feb. 2017
                 D. E. Woon, T. H. Dunning, Jr., J. Chem. Phys. 98, 1358 (1993)
            Ca : Obtained from the Peterson Research Group Website (tyr0.chem.wsu.edu/~kipeters) Feb. 2017
                 J. Koput, K. A. Peterson, J. Phys. Chem. 106, 9595 (2002)
         Sc-Zn : Obtained from the ccRepo (grant-hill.group.shef.ac.uk/ccrepo) Feb. 2017
                 N. B. Balabanov, K. A. Peterson, J. Chem. Phys. 123, 064107 (2005)
                 N. B. Balabanov, K. A. Peterson, J. Chem. Phys. 125, 074110 (2006)
         Ga-Kr : Obtained from the ccRepo (grant-hill.group.shef.ac.uk/ccrepo) Feb. 2017
                 A. K. Wilson, D. E. Woon, K. A. Peterson, T. H. Dunning, Jr., J. Chem. Phys. 110, 7667 (1999)
             Y : Obtained from the ccRepo (grant-hill.group.shef.ac.uk/ccrepo) Feb. 2017
                 K. A. Peterson, D. Figgen, M. Dolg, H. Stoll, J. Chem. Phys. 126, 124101 (2007)
        Ag, Au : Obtained from the Peterson Research Group Website (tyr0.chem.wsu.edu/~kipeters) Feb. 2017
                 K. A. Peterson, C. Puzzarini, Theor. Chem. Acc. 114, 283 (2005)

----- AuxC basis set information -----
Your calculation utilizes the auxiliary basis: cc-pVTZ/C 
  Obtained from the EMSL Basis Set Exchange (bse.pnl.gov) Feb. 2017
  H-He, B-F, Al-Ar, Ga-Kr : F. Weigend, A. Kohn, C. Hattig, J. Chem. Phys. 116, 3175 (2002)
             Li-Be, Na-Mg : C. Haettig, Phys. Chem. Chem. Phys. 7, 59 (2005)
                       Ne : C. Haettig, Phys. Chem. Chem. Phys. 7, 59 (2005)
                            F. Weigend, A. Kohn, C. Hattig, J. Chem. Phys. 116, 3175 (2002)
                    Sc-Zn : J. G. Hill, J. A. Platts, J. Chem. Phys. 128, 044104 (2008)

================================================================================
                                        WARNINGS
                       Please study these warnings very carefully!
================================================================================


WARNING: No MP2 level density has been requested!
         To caclulate MP2 level properties use
         %mp2 Density relaxed end
         or
         %mp2 Density unrelaxed end

WARNING: Post HF methods need fully converged wavefunctions
  ===> : Setting SCFConvForced true
         You can overwrite this default with %scf ConvForced false 


INFO   : the flag for use of LIBINT has been found!

================================================================================
                                       INPUT FILE
================================================================================
NAME = G2_CONFS/Conf496.orca
|  1> ! ri-mp2 cc-pvtz cc-pvtz/c TightSCF  NoKeepInts
|  2> 
|  3> %scf
|  4>   MaxCore 4096
|  5> end
|  6> *xyz  0  1
|  7>     C       15.8612970   13.4330134   15.6481218
|  8>     C       15.3590073   14.3910012   16.7511278
|  9>     O       16.1566693   15.5179527   17.1405009
| 10>     C       16.5776751   16.6393430   16.4828327
| 11>     O       16.0307726   17.1213529   15.5070282
| 12>     C       17.3715392   17.3598026   17.5278782
| 13>     C       17.3166796   18.6974621   17.7614806
| 14>     C       16.4858558   19.7142114   17.0021673
| 15>     N       18.3006612   19.3042654   18.5527625
| 16>     C       19.3491359   18.6535873   19.1526289
| 17>     S       20.4706937   19.4832178   20.0451865
| 18>     N       19.4183922   17.2876395   18.9766361
| 19>     C       18.4858467   16.4959343   18.1355780
| 20>     C       17.8639556   15.8217653   19.4026491
| 21>     C       18.0053687   14.4043785   19.4490988
| 22>     C       17.2735394   13.5935174   20.3247716
| 23>     C       16.3823668   14.1884134   21.2196141
| 24>     C       16.2250206   15.5812526   21.2122294
| 25>     O       15.3245005   16.1261953   22.0671039
| 26>     C       16.9365176   16.3945602   20.3068545
| 27>     H       15.0875836   12.6595958   15.5272782
| 28>     H       16.7557500   12.8914509   15.9897397
| 29>     H       16.0481394   13.8829260   14.6694342
| 30>     H       14.4381633   14.8350953   16.3562490
| 31>     H       15.1021577   13.8299959   17.6546800
| 32>     H       15.4175883   19.5947551   17.2096568
| 33>     H       16.6295760   19.5944157   15.9194586
| 34>     H       16.7631467   20.7518868   17.2324044
| 35>     H       18.3123230   20.3092949   18.6450554
| 36>     H       20.1608742   16.8351170   19.4929946
| 37>     H       18.7028117   15.5428784   17.6496978
| 38>     H       18.6349594   13.8851863   18.7305737
| 39>     H       17.3774018   12.5090276   20.2816636
| 40>     H       15.8059436   13.5630935   21.8956159
| 41>     H       14.9942446   15.4034555   22.6257848
| 42>     H       16.7208394   17.4549542   20.2874676
| 43> *
| 44> 
| 45>                          ****END OF INPUT****
================================================================================

                       ****************************
                       * Single Point Calculation *
                       ****************************

---------------------------------
CARTESIAN COORDINATES (ANGSTROEM)
---------------------------------
  C     15.861297   13.433013   15.648122
  C     15.359007   14.391001   16.751128
  O     16.156669   15.517953   17.140501
  C     16.577675   16.639343   16.482833
  O     16.030773   17.121353   15.507028
  C     17.371539   17.359803   17.527878
  C     17.316680   18.697462   17.761481
  C     16.485856   19.714211   17.002167
  N     18.300661   19.304265   18.552763
  C     19.349136   18.653587   19.152629
  S     20.470694   19.483218   20.045186
  N     19.418392   17.287640   18.976636
  C     18.485847   16.495934   18.135578
  C     17.863956   15.821765   19.402649
  C     18.005369   14.404378   19.449099
  C     17.273539   13.593517   20.324772
  C     16.382367   14.188413   21.219614
  C     16.225021   15.581253   21.212229
  O     15.324500   16.126195   22.067104
  C     16.936518   16.394560   20.306855
  H     15.087584   12.659596   15.527278
  H     16.755750   12.891451   15.989740
  H     16.048139   13.882926   14.669434
  H     14.438163   14.835095   16.356249
  H     15.102158   13.829996   17.654680
  H     15.417588   19.594755   17.209657
  H     16.629576   19.594416   15.919459
  H     16.763147   20.751887   17.232404
  H     18.312323   20.309295   18.645055
  H     20.160874   16.835117   19.492995
  H     18.702812   15.542878   17.649698
  H     18.634959   13.885186   18.730574
  H     17.377402   12.509028   20.281664
  H     15.805944   13.563093   21.895616
  H     14.994245   15.403455   22.625785
  H     16.720839   17.454954   20.287468

----------------------------
CARTESIAN COORDINATES (A.U.)
----------------------------
  NO LB      ZA    FRAG     MASS         X           Y           Z
   0 C     6.0000    0    12.011   29.973507   25.384716   29.570665
   1 C     6.0000    0    12.011   29.024317   27.195051   31.655044
   2 O     8.0000    0    15.999   30.531680   29.324681   32.390852
   3 C     6.0000    0    12.011   31.327266   31.443801   31.148040
   4 O     8.0000    0    15.999   30.293770   32.354668   29.304036
   5 C     6.0000    0    12.011   32.827452   32.805273   33.122890
   6 C     6.0000    0    12.011   32.723782   35.333083   33.564334
   7 C     6.0000    0    12.011   31.153753   37.254460   32.129440
   8 N     7.0000    0    14.007   34.583238   36.479775   35.059640
   9 C     6.0000    0    12.011   36.564568   35.250171   36.193223
  10 S    16.0000    0    32.060   38.684005   36.817946   37.879913
  11 N     7.0000    0    14.007   36.695443   32.668904   35.860645
  12 C     6.0000    0    12.011   34.933188   31.172798   34.271276
  13 C     6.0000    0    12.011   33.757984   29.898803   36.665693
  14 C     6.0000    0    12.011   34.025216   27.220330   36.753470
  15 C     6.0000    0    12.011   32.642259   25.688025   38.408252
  16 C     6.0000    0    12.011   30.958187   26.812216   40.099259
  17 C     6.0000    0    12.011   30.660845   29.444300   40.085304
  18 O     8.0000    0    15.999   28.959109   30.474093   41.700783
  19 C     6.0000    0    12.011   32.005380   30.981229   38.374394
  20 H     1.0000    0     1.008   28.511401   23.923169   29.342303
  21 H     1.0000    0     1.008   31.663779   24.361312   30.216229
  22 H     1.0000    0     1.008   30.326588   26.234928   27.721213
  23 H     1.0000    0     1.008   27.284175   28.034267   30.908831
  24 H     1.0000    0     1.008   28.538942   26.134905   33.362510
  25 H     1.0000    0     1.008   29.135020   37.028721   32.521538
  26 H     1.0000    0     1.008   31.425344   37.028079   30.083417
  27 H     1.0000    0     1.008   31.677756   39.215383   32.564525
  28 H     1.0000    0     1.008   34.605275   38.379005   35.234048
  29 H     1.0000    0     1.008   38.098531   31.813761   36.836421
  30 H     1.0000    0     1.008   35.343192   29.371784   33.353095
  31 H     1.0000    0     1.008   35.214970   26.239199   35.395655
  32 H     1.0000    0     1.008   32.838530   23.638636   38.326790
  33 H     1.0000    0     1.008   29.868905   25.630532   41.376718
  34 H     1.0000    0     1.008   28.335016   29.108312   42.756537
  35 H     1.0000    0     1.008   31.597807   32.985083   38.337758

--------------------------------
INTERNAL COORDINATES (ANGSTROEM)
--------------------------------
 C      0   0   0     0.000000000000     0.00000000     0.00000000
 C      1   0   0     1.544881161679     0.00000000     0.00000000
 O      2   1   0     1.434536775618   120.00999603     0.00000000
 C      3   2   1     1.366488035022   133.26387856    63.87159023
 O      4   3   2     1.218043640608   124.88841798    23.38769777
 C      4   3   2     1.497131370846   102.84589906   179.99999791
 C      6   4   3     1.359011624284   124.90703464   222.93774625
 C      7   6   4     1.516774213011   126.57435079   358.26337091
 N      7   6   4     1.400912944939   119.67499808   193.83600720
 C      9   7   6     1.372049884009   125.32909696   359.18954476
 S     10   9   7     1.656151482984   121.03487387   178.84190315
 N     10   9   7     1.378979076370   116.89369963   358.76801801
 C     12  10   9     1.484525837045   124.68210431     3.24898585
 C     13  12  10     1.564199972278    91.18455417   249.21018011
 C     14  13  12     1.425180893885   114.55671199   240.99015058
 C     15  14  13     1.399954535152   122.99420638   194.71516215
 C     16  15  14     1.396006072198   119.19836548   358.53389131
 C     17  16  15     1.401718016402   119.45395988     0.82223896
 O     18  17  16     1.355990194484   118.07055480   178.17506567
 C     18  17  16     1.409752085573   121.33165180     0.81758377
 H      1   2   3     1.100640897382   106.59348365   180.06103410
 H      1   2   3     1.100017681774   110.36101383    66.50257221
 H      1   2   3     1.093234123356   116.07415864   300.53521494
 H      2   1   3     1.095948223540   105.49822995   117.11402684
 H      2   1   3     1.094123046907   110.36428369   233.46964220
 H      8   7   6     1.094768081274   111.49830404    70.14354054
 H      8   7   6     1.098755948645   110.39959261   310.58244499
 H      8   7   6     1.098485139273   112.95650603   192.03356285
 H      9   7   6     1.009325652522   119.41084301   173.65304734
 H     12  10   9     1.011277525634   114.51652183   184.62299624
 H     13  12  10     1.091544286093   126.36801913   153.82580969
 H     15  14  13     1.087300928629   120.71787730     9.14119871
 H     16  15  14     1.090304463947   120.10513067   176.51966903
 H     17  16  15     1.086400992469   119.49074640   179.49529279
 H     19  18  17     0.971363024833   106.82052115     5.75058860
 H     20  18  17     1.082279249123   118.43599664   175.15253473

---------------------------
INTERNAL COORDINATES (A.U.)
---------------------------
 C      0   0   0     0.000000000000     0.00000000     0.00000000
 C      1   0   0     2.919402305028     0.00000000     0.00000000
 O      2   1   0     2.710881634956   120.00999603     0.00000000
 C      3   2   1     2.582288151472   133.26387856    63.87159023
 O      4   3   2     2.301768899913   124.88841798    23.38769777
 C      4   3   2     2.829168277401   102.84589906   179.99999791
 C      6   4   3     2.568159782712   124.90703464   222.93774625
 C      7   6   4     2.866287869584   126.57435079   358.26337091
 N      7   6   4     2.647341803399   119.67499808   193.83600720
 C      9   7   6     2.592798522855   125.32909696   359.18954476
 S     10   9   7     3.129672739127   121.03487387   178.84190315
 N     10   9   7     2.605892798747   116.89369963   358.76801801
 C     12  10   9     2.805347270744   124.68210431     3.24898585
 C     13  12  10     2.955909566293    91.18455417   249.21018011
 C     14  13  12     2.693201580740   114.55671199   240.99015058
 C     15  14  13     2.645530671378   122.99420638   194.71516215
 C     16  15  14     2.638069157745   119.19836548   358.53389131
 C     17  16  15     2.648863167983   119.45395988     0.82223896
 O     18  17  16     2.562450107858   118.07055480   178.17506567
 C     18  17  16     2.664045358457   121.33165180     0.81758377
 H      1   2   3     2.079909867846   106.59348365   180.06103410
 H      1   2   3     2.078732161024   110.36101383    66.50257221
 H      1   2   3     2.065913093401   116.07415864   300.53521494
 H      2   1   3     2.071041999448   105.49822995   117.11402684
 H      2   1   3     2.067592915466   110.36428369   233.46964220
 H      8   7   6     2.068811853766   111.49830404    70.14354054
 H      8   7   6     2.076347830955   110.39959261   310.58244499
 H      8   7   6     2.075836075409   112.95650603   192.03356285
 H      9   7   6     1.907349063209   119.41084301   173.65304734
 H     12  10   9     1.911037568838   114.51652183   184.62299624
 H     13  12  10     2.062719763762   126.36801913   153.82580969
 H     15  14  13     2.054700980267   120.71787730     9.14119871
 H     16  15  14     2.060376839451   120.10513067   176.51966903
 H     17  16  15     2.053000347387   119.49074640   179.49529279
 H     19  18  17     1.835610093553   106.82052115     5.75058860
 H     20  18  17     2.045211381269   118.43599664   175.15253473

---------------------
BASIS SET INFORMATION
---------------------
There are 5 groups of distinct atoms

 Group   1 Type C   : 18s5p2d1f contracted to 4s3p2d1f pattern {8811/311/11/1}
 Group   2 Type O   : 18s5p2d1f contracted to 4s3p2d1f pattern {8811/311/11/1}
 Group   3 Type N   : 18s5p2d1f contracted to 4s3p2d1f pattern {8811/311/11/1}
 Group   4 Type S   : 41s16p2d1f contracted to 5s4p2d1f pattern {13131311/7711/11/1}
 Group   5 Type H   : 5s2p1d contracted to 3s2p1d pattern {311/11/1}

Atom   0C    basis set group =>   1
Atom   1C    basis set group =>   1
Atom   2O    basis set group =>   2
Atom   3C    basis set group =>   1
Atom   4O    basis set group =>   2
Atom   5C    basis set group =>   1
Atom   6C    basis set group =>   1
Atom   7C    basis set group =>   1
Atom   8N    basis set group =>   3
Atom   9C    basis set group =>   1
Atom  10S    basis set group =>   4
Atom  11N    basis set group =>   3
Atom  12C    basis set group =>   1
Atom  13C    basis set group =>   1
Atom  14C    basis set group =>   1
Atom  15C    basis set group =>   1
Atom  16C    basis set group =>   1
Atom  17C    basis set group =>   1
Atom  18O    basis set group =>   2
Atom  19C    basis set group =>   1
Atom  20H    basis set group =>   5
Atom  21H    basis set group =>   5
Atom  22H    basis set group =>   5
Atom  23H    basis set group =>   5
Atom  24H    basis set group =>   5
Atom  25H    basis set group =>   5
Atom  26H    basis set group =>   5
Atom  27H    basis set group =>   5
Atom  28H    basis set group =>   5
Atom  29H    basis set group =>   5
Atom  30H    basis set group =>   5
Atom  31H    basis set group =>   5
Atom  32H    basis set group =>   5
Atom  33H    basis set group =>   5
Atom  34H    basis set group =>   5
Atom  35H    basis set group =>   5
---------------------------------
AUXILIARY/C BASIS SET INFORMATION
---------------------------------
There are 5 groups of distinct atoms

 Group   1 Type C   : 8s6p5d3f1g contracted to 8s6p5d3f1g pattern {11111111/111111/11111/111/1}
 Group   2 Type O   : 8s6p5d3f1g contracted to 8s6p5d3f1g pattern {11111111/111111/11111/111/1}
 Group   3 Type N   : 8s6p5d3f1g contracted to 8s6p5d3f1g pattern {11111111/111111/11111/111/1}
 Group   4 Type S   : 10s8p7d5f2g contracted to 10s8p7d5f2g pattern {1111111111/11111111/1111111/11111/11}
 Group   5 Type H   : 4s3p2d1f contracted to 4s3p2d1f pattern {1111/111/11/1}

Atom   0C    basis set group =>   1
Atom   1C    basis set group =>   1
Atom   2O    basis set group =>   2
Atom   3C    basis set group =>   1
Atom   4O    basis set group =>   2
Atom   5C    basis set group =>   1
Atom   6C    basis set group =>   1
Atom   7C    basis set group =>   1
Atom   8N    basis set group =>   3
Atom   9C    basis set group =>   1
Atom  10S    basis set group =>   4
Atom  11N    basis set group =>   3
Atom  12C    basis set group =>   1
Atom  13C    basis set group =>   1
Atom  14C    basis set group =>   1
Atom  15C    basis set group =>   1
Atom  16C    basis set group =>   1
Atom  17C    basis set group =>   1
Atom  18O    basis set group =>   2
Atom  19C    basis set group =>   1
Atom  20H    basis set group =>   5
Atom  21H    basis set group =>   5
Atom  22H    basis set group =>   5
Atom  23H    basis set group =>   5
Atom  24H    basis set group =>   5
Atom  25H    basis set group =>   5
Atom  26H    basis set group =>   5
Atom  27H    basis set group =>   5
Atom  28H    basis set group =>   5
Atom  29H    basis set group =>   5
Atom  30H    basis set group =>   5
Atom  31H    basis set group =>   5
Atom  32H    basis set group =>   5
Atom  33H    basis set group =>   5
Atom  34H    basis set group =>   5
Atom  35H    basis set group =>   5
------------------------------------------------------------------------------
                           ORCA GTO INTEGRAL CALCULATION
------------------------------------------------------------------------------

                         BASIS SET STATISTICS AND STARTUP INFO

 # of primitive gaussian shells          ...  682
 # of primitive gaussian functions       ... 1312
 # of contracted shells                  ...  298
 # of contracted basis functions         ...  828
 Highest angular momentum                ...    3
 Maximum contraction depth               ...   13
 Integral package used                   ... LIBINT
 Integral threshhold            Thresh   ...  2.500e-11
 Primitive cut-off              TCut     ...  2.500e-12


------------------------------ INTEGRAL EVALUATION ----------------------------


 * One electron integrals 
 Pre-screening matrix                    ... done
 Shell pair data                         ... done (   0.013 sec)

-------------------------------------------------------------------------------
                                 ORCA SCF
-------------------------------------------------------------------------------

------------
SCF SETTINGS
------------
Hamiltonian:
 Ab initio Hamiltonian  Method          .... Hartree-Fock(GTOs)


General Settings:
 Integral files         IntName         .... G2_CONFS/Conf496.orca
 Hartree-Fock type      HFTyp           .... RHF
 Total Charge           Charge          ....    0
 Multiplicity           Mult            ....    1
 Number of Electrons    NEL             ....  154
 Basis Dimension        Dim             ....  828
 Nuclear Repulsion      ENuc            ....   1715.7262445262 Eh

Convergence Acceleration:
 DIIS                   CNVDIIS         .... on
   Start iteration      DIISMaxIt       ....    12
   Startup error        DIISStart       ....  0.200000
   # of expansion vecs  DIISMaxEq       ....     5
   Bias factor          DIISBfac        ....   1.050
   Max. coefficient     DIISMaxC        ....  10.000
 Newton-Raphson         CNVNR           .... off
 SOSCF                  CNVSOSCF        .... on
   Start iteration      SOSCFMaxIt      ....   150
   Startup grad/error   SOSCFStart      ....  0.003300
 Level Shifting         CNVShift        .... on
   Level shift para.    LevelShift      ....    0.2500
   Turn off err/grad.   ShiftErr        ....    0.0010
 Zerner damping         CNVZerner       .... off
 Static damping         CNVDamp         .... on
   Fraction old density DampFac         ....    0.7000
   Max. Damping (<1)    DampMax         ....    0.9800
   Min. Damping (>=0)   DampMin         ....    0.0000
   Turn off err/grad.   DampErr         ....    0.1000
 Fernandez-Rico         CNVRico         .... off

SCF Procedure:
 Maximum # iterations   MaxIter         ....   125
 SCF integral mode      SCFMode         .... Direct
   Integral package                     .... LIBINT
 Reset frequency        DirectResetFreq ....    20
 Integral Threshold     Thresh          ....  2.500e-11 Eh
 Primitive CutOff       TCut            ....  2.500e-12 Eh

Convergence Tolerance:
 Convergence Check Mode ConvCheckMode   .... Total+1el-Energy
 Convergence forced     ConvForced      .... 1
 Energy Change          TolE            ....  1.000e-08 Eh
 1-El. energy change                    ....  1.000e-05 Eh
 Orbital Gradient       TolG            ....  1.000e-05
 Orbital Rotation angle TolX            ....  1.000e-05
 DIIS Error             TolErr          ....  5.000e-07


Diagonalization of the overlap matrix:
Smallest eigenvalue                        ... 3.402e-05
Time for diagonalization                   ...    0.107 sec
Threshold for overlap eigenvalues          ... 1.000e-08
Number of eigenvalues below threshold      ... 0
Time for construction of square roots      ...    0.070 sec
Total time needed                          ...    0.179 sec

-------------------
DFT GRID GENERATION
-------------------

General Integration Accuracy     IntAcc      ...  4.340
Radial Grid Type                 RadialGrid  ... Gauss-Chebyshev
Angular Grid (max. acc.)         AngularGrid ... Lebedev-110
Angular grid pruning method      GridPruning ... 3 (G Style)
Weight generation scheme         WeightScheme... Becke
Basis function cutoff            BFCut       ...    1.0000e-11
Integration weight cutoff        WCut        ...    1.0000e-14
Grids for H and He will be reduced by one unit

# of grid points (after initial pruning)     ...  46246 (   0.0 sec)
# of grid points (after weights+screening)   ...  41232 (   0.3 sec)
nearest neighbour list constructed           ...    0.0 sec
Grid point re-assignment to atoms done       ...    0.0 sec
Grid point division into batches done        ...    0.0 sec
Reduced shell lists constructed in    0.9 sec

Total number of grid points                  ...    41232
Total number of batches                      ...      659
Average number of points per batch           ...       62
Average number of grid points per atom       ...     1145
Average number of shells per batch           ...   149.59 (50.20%)
Average number of basis functions per batch  ...   380.61 (45.97%)
Average number of large shells per batch     ...    95.71 (63.98%)
Average number of large basis fcns per batch ...   246.10 (64.66%)
Maximum spatial batch extension              ...  25.60, 20.82, 19.58 au
Average spatial batch extension              ...   3.61,  3.39,  3.48 au

Time for grid setup =    1.266 sec

------------------------------
INITIAL GUESS: MODEL POTENTIAL
------------------------------
Loading Hartree-Fock densities                     ... done
Calculating cut-offs                               ... done
Setting up the integral package                    ... done
Initializing the effective Hamiltonian             ... done
Starting the Coulomb interaction                   ... done (   3.1 sec)
Reading the grid                                   ... done
Mapping shells                                     ... done
Starting the XC term evaluation                    ... done (   1.3 sec)
Transforming the Hamiltonian                       ... done (   0.0 sec)
Diagonalizing the Hamiltonian                      ... done (   0.1 sec)
Back transforming the eigenvectors                 ... done (   0.0 sec)
Now organizing SCF variables                       ... done
                      ------------------
                      INITIAL GUESS DONE (   6.0 sec)
                      ------------------
--------------
SCF ITERATIONS
--------------
ITER       Energy         Delta-E        Max-DP      RMS-DP      [F,P]     Damp
               ***  Starting incremental Fock matrix formation  ***
  0  -1269.9111103360   0.000000000000 0.04933289  0.00044084  0.3104506 0.7000
  1  -1270.1816201983  -0.270509862237 0.03608820  0.00035643  0.1827425 0.7000
                               ***Turning on DIIS***
  2  -1270.3497852470  -0.168165048706 0.02583978  0.00023907  0.1097662 0.7000
  3  -1272.4896814230  -2.139896176036 0.06312169  0.00051335  0.0829122 0.0000
  4  -1270.6600607794   1.829620643660 0.00728467  0.00009572  0.0074206 0.0000
  5  -1270.7240432203  -0.063982440932 0.00356593  0.00005173  0.0045669 0.0000
                      *** Initiating the SOSCF procedure ***
                           *** Shutting down DIIS ***
                      *** Re-Reading the Fockian *** 
                      *** Removing any level shift *** 
ITER      Energy       Delta-E        Grad      Rot      Max-DP    RMS-DP
  6  -1270.69990231   0.0241409102  0.001680  0.001680  0.001700  0.000027
               *** Restarting incremental Fock matrix formation ***
  7  -1270.71490130  -0.0149989852  0.000800  0.001954  0.001279  0.000017
  8  -1270.71495342  -0.0000521223  0.000392  0.002180  0.001406  0.000019
  9  -1270.71497323  -0.0000198169  0.000184  0.000440  0.000404  0.000005
 10  -1270.71497596  -0.0000027248  0.000048  0.000158  0.000163  0.000002
 11  -1270.71497623  -0.0000002702  0.000023  0.000102  0.000070  0.000001
 12  -1270.71497632  -0.0000000900  0.000008  0.000036  0.000038  0.000000
 13  -1270.71497633  -0.0000000072  0.000003  0.000013  0.000009  0.000000
                  ***Gradient check signals convergence***
              ***Rediagonalizing the Fockian in SOSCF/NRSCF***

               *****************************************************
               *                     SUCCESS                       *
               *           SCF CONVERGED AFTER  14 CYCLES          *
               *****************************************************


----------------
TOTAL SCF ENERGY
----------------

Total Energy       :        -1270.71497632 Eh          -34577.91241 eV

Components:
Nuclear Repulsion  :         1715.72624453 Eh           46687.28465 eV
Electronic Energy  :        -2986.44122085 Eh          -81265.19706 eV
One Electron Energy:        -5152.61139492 Eh         -140209.68418 eV
Two Electron Energy:         2166.17017407 Eh           58944.48712 eV

Virial components:
Potential Energy   :        -2539.60581216 Eh          -69106.18744 eV
Kinetic Energy     :         1268.89083584 Eh           34528.27503 eV
Virial Ratio       :            2.00143759


---------------
SCF CONVERGENCE
---------------

  Last Energy change         ...    5.4797e-09  Tolerance :   1.0000e-08
  Last MAX-Density change    ...    2.7554e-06  Tolerance :   1.0000e-07
  Last RMS-Density change    ...    3.9171e-08  Tolerance :   5.0000e-09
  Last Orbital Gradient      ...    1.6817e-06  Tolerance :   1.0000e-05
  Last Orbital Rotation      ...    3.6361e-06  Tolerance :   1.0000e-05

             **** THE GBW FILE WAS UPDATED (G2_CONFS/Conf496.orca.gbw) ****
             **** DENSITY FILE WAS UPDATED (G2_CONFS/Conf496.orca.scfp) ****
             **** ENERGY FILE WAS UPDATED (G2_CONFS/Conf496.orca.en.tmp) ****
             **** THE GBW FILE WAS UPDATED (G2_CONFS/Conf496.orca.gbw) ****
             **** DENSITY FILE WAS UPDATED (G2_CONFS/Conf496.orca.scfp) ****
----------------
ORBITAL ENERGIES
----------------

  NO   OCC          E(Eh)            E(eV) 
   0   2.0000     -91.888378     -2500.4099 
   1   2.0000     -20.596607      -560.4622 
   2   2.0000     -20.592249      -560.3436 
   3   2.0000     -20.557535      -559.3990 
   4   2.0000     -15.625110      -425.1808 
   5   2.0000     -15.612687      -424.8428 
   6   2.0000     -11.403266      -310.2986 
   7   2.0000     -11.384402      -309.7853 
   8   2.0000     -11.330528      -308.3193 
   9   2.0000     -11.317577      -307.9669 
  10   2.0000     -11.311309      -307.7964 
  11   2.0000     -11.303550      -307.5852 
  12   2.0000     -11.262415      -306.4659 
  13   2.0000     -11.259682      -306.3915 
  14   2.0000     -11.253034      -306.2106 
  15   2.0000     -11.249071      -306.1028 
  16   2.0000     -11.238753      -305.8220 
  17   2.0000     -11.234216      -305.6986 
  18   2.0000     -11.233774      -305.6865 
  19   2.0000     -11.229806      -305.5785 
  20   2.0000      -8.893306      -241.9991 
  21   2.0000      -6.574865      -178.9112 
  22   2.0000      -6.572872      -178.8569 
  23   2.0000      -6.572287      -178.8410 
  24   2.0000      -1.450902       -39.4811 
  25   2.0000      -1.412370       -38.4325 
  26   2.0000      -1.363393       -37.0998 
  27   2.0000      -1.336677       -36.3728 
  28   2.0000      -1.240217       -33.7480 
  29   2.0000      -1.150990       -31.3200 
  30   2.0000      -1.119526       -30.4638 
  31   2.0000      -1.047560       -28.5056 
  32   2.0000      -1.038253       -28.2523 
  33   2.0000      -1.009040       -27.4574 
  34   2.0000      -0.996485       -27.1157 
  35   2.0000      -0.980969       -26.6935 
  36   2.0000      -0.923282       -25.1238 
  37   2.0000      -0.910324       -24.7712 
  38   2.0000      -0.846081       -23.0230 
  39   2.0000      -0.832013       -22.6402 
  40   2.0000      -0.826948       -22.5024 
  41   2.0000      -0.814091       -22.1525 
  42   2.0000      -0.749259       -20.3884 
  43   2.0000      -0.732698       -19.9377 
  44   2.0000      -0.720801       -19.6140 
  45   2.0000      -0.696197       -18.9445 
  46   2.0000      -0.691227       -18.8092 
  47   2.0000      -0.684138       -18.6163 
  48   2.0000      -0.674689       -18.3592 
  49   2.0000      -0.659155       -17.9365 
  50   2.0000      -0.647598       -17.6220 
  51   2.0000      -0.640854       -17.4385 
  52   2.0000      -0.632928       -17.2229 
  53   2.0000      -0.623661       -16.9707 
  54   2.0000      -0.602691       -16.4001 
  55   2.0000      -0.594683       -16.1821 
  56   2.0000      -0.591948       -16.1077 
  57   2.0000      -0.574234       -15.6257 
  58   2.0000      -0.570913       -15.5353 
  59   2.0000      -0.568520       -15.4702 
  60   2.0000      -0.555816       -15.1245 
  61   2.0000      -0.546869       -14.8811 
  62   2.0000      -0.544814       -14.8251 
  63   2.0000      -0.535187       -14.5632 
  64   2.0000      -0.516415       -14.0524 
  65   2.0000      -0.510514       -13.8918 
  66   2.0000      -0.500517       -13.6198 
  67   2.0000      -0.498474       -13.5642 
  68   2.0000      -0.480189       -13.0666 
  69   2.0000      -0.455104       -12.3840 
  70   2.0000      -0.452699       -12.3186 
  71   2.0000      -0.452506       -12.3133 
  72   2.0000      -0.347181        -9.4473 
  73   2.0000      -0.338577        -9.2131 
  74   2.0000      -0.325538        -8.8584 
  75   2.0000      -0.315576        -8.5873 
  76   2.0000      -0.306993        -8.3537 
  77   0.0000       0.071502         1.9457 
  78   0.0000       0.112643         3.0652 
  79   0.0000       0.120297         3.2735 
  80   0.0000       0.129859         3.5336 
  81   0.0000       0.137426         3.7396 
  82   0.0000       0.140479         3.8226 
  83   0.0000       0.150063         4.0834 
  84   0.0000       0.155576         4.2334 
  85   0.0000       0.164407         4.4737 
  86   0.0000       0.169398         4.6096 
  87   0.0000       0.175508         4.7758 
  88   0.0000       0.182915         4.9774 
  89   0.0000       0.193048         5.2531 
  90   0.0000       0.197770         5.3816 
  91   0.0000       0.204624         5.5681 
  92   0.0000       0.213196         5.8014 
  93   0.0000       0.219061         5.9610 
  94   0.0000       0.225881         6.1465 
  95   0.0000       0.232597         6.3293 
  96   0.0000       0.237653         6.4669 
  97   0.0000       0.244846         6.6626 
  98   0.0000       0.252657         6.8751 
  99   0.0000       0.270752         7.3675 
 100   0.0000       0.284181         7.7330 
 101   0.0000       0.288042         7.8380 
 102   0.0000       0.298898         8.1334 
 103   0.0000       0.312526         8.5043 
 104   0.0000       0.325317         8.8523 
 105   0.0000       0.332878         9.0581 
 106   0.0000       0.342527         9.3206 
 107   0.0000       0.355798         9.6818 
 108   0.0000       0.358202         9.7472 
 109   0.0000       0.365030         9.9330 
 110   0.0000       0.367248         9.9933 
 111   0.0000       0.375322        10.2130 
 112   0.0000       0.384046        10.4504 
 113   0.0000       0.388456        10.5704 
 114   0.0000       0.395695        10.7674 
 115   0.0000       0.399546        10.8722 
 116   0.0000       0.412548        11.2260 
 117   0.0000       0.419796        11.4232 
 118   0.0000       0.425814        11.5870 
 119   0.0000       0.431612        11.7448 
 120   0.0000       0.435160        11.8413 
 121   0.0000       0.446894        12.1606 
 122   0.0000       0.451718        12.2919 
 123   0.0000       0.452250        12.3063 
 124   0.0000       0.464821        12.6484 
 125   0.0000       0.471646        12.8341 
 126   0.0000       0.472162        12.8482 
 127   0.0000       0.474382        12.9086 
 128   0.0000       0.481670        13.1069 
 129   0.0000       0.494102        13.4452 
 130   0.0000       0.500721        13.6253 
 131   0.0000       0.505883        13.7658 
 132   0.0000       0.508528        13.8377 
 133   0.0000       0.515968        14.0402 
 134   0.0000       0.521641        14.1946 
 135   0.0000       0.529600        14.4112 
 136   0.0000       0.534672        14.5492 
 137   0.0000       0.538801        14.6615 
 138   0.0000       0.541895        14.7457 
 139   0.0000       0.547380        14.8950 
 140   0.0000       0.555195        15.1076 
 141   0.0000       0.556043        15.1307 
 142   0.0000       0.566719        15.4212 
 143   0.0000       0.571428        15.5493 
 144   0.0000       0.572054        15.5664 
 145   0.0000       0.580254        15.7895 
 146   0.0000       0.586774        15.9669 
 147   0.0000       0.590242        16.0613 
 148   0.0000       0.596130        16.2215 
 149   0.0000       0.600028        16.3276 
 150   0.0000       0.605297        16.4710 
 151   0.0000       0.612537        16.6680 
 152   0.0000       0.612818        16.6756 
 153   0.0000       0.616590        16.7783 
 154   0.0000       0.618394        16.8274 
 155   0.0000       0.623302        16.9609 
 156   0.0000       0.627971        17.0880 
 157   0.0000       0.630187        17.1483 
 158   0.0000       0.634711        17.2714 
 159   0.0000       0.642587        17.4857 
 160   0.0000       0.647816        17.6280 
 161   0.0000       0.651581        17.7304 
 162   0.0000       0.654160        17.8006 
 163   0.0000       0.659575        17.9479 
 164   0.0000       0.666965        18.1490 
 165   0.0000       0.671333        18.2679 
 166   0.0000       0.674048        18.3418 
 167   0.0000       0.677530        18.4365 
 168   0.0000       0.686462        18.6796 
 169   0.0000       0.693890        18.8817 
 170   0.0000       0.695604        18.9284 
 171   0.0000       0.706478        19.2242 
 172   0.0000       0.709380        19.3032 
 173   0.0000       0.714557        19.4441 
 174   0.0000       0.729799        19.8589 
 175   0.0000       0.733731        19.9658 
 176   0.0000       0.736533        20.0421 
 177   0.0000       0.739850        20.1323 
 178   0.0000       0.757027        20.5998 
 179   0.0000       0.762649        20.7527 
 180   0.0000       0.770553        20.9678 
 181   0.0000       0.783392        21.3172 
 182   0.0000       0.785201        21.3664 
 183   0.0000       0.792085        21.5537 
 184   0.0000       0.799704        21.7611 
 185   0.0000       0.809518        22.0281 
 186   0.0000       0.814855        22.1733 
 187   0.0000       0.817943        22.2574 
 188   0.0000       0.823708        22.4142 
 189   0.0000       0.838325        22.8120 
 190   0.0000       0.842576        22.9276 
 191   0.0000       0.847346        23.0575 
 192   0.0000       0.856944        23.3186 
 193   0.0000       0.869827        23.6692 
 194   0.0000       0.872450        23.7406 
 195   0.0000       0.875978        23.8366 
 196   0.0000       0.878480        23.9047 
 197   0.0000       0.888182        24.1687 
 198   0.0000       0.890962        24.2443 
 199   0.0000       0.899460        24.4756 
 200   0.0000       0.910873        24.7861 
 201   0.0000       0.914678        24.8897 
 202   0.0000       0.921120        25.0650 
 203   0.0000       0.931581        25.3496 
 204   0.0000       0.933278        25.3958 
 205   0.0000       0.949450        25.8359 
 206   0.0000       0.957108        26.0442 
 207   0.0000       0.961695        26.1691 
 208   0.0000       0.971839        26.4451 
 209   0.0000       0.983262        26.7559 
 210   0.0000       0.986191        26.8356 
 211   0.0000       0.995514        27.0893 
 212   0.0000       0.997138        27.1335 
 213   0.0000       1.003243        27.2996 
 214   0.0000       1.012243        27.5445 
 215   0.0000       1.016148        27.6508 
 216   0.0000       1.023818        27.8595 
 217   0.0000       1.025457        27.9041 
 218   0.0000       1.039197        28.2780 
 219   0.0000       1.046823        28.4855 
 220   0.0000       1.047796        28.5120 
 221   0.0000       1.052198        28.6318 
 222   0.0000       1.058600        28.8060 
 223   0.0000       1.070373        29.1263 
 224   0.0000       1.078474        29.3468 
 225   0.0000       1.084568        29.5126 
 226   0.0000       1.093079        29.7442 
 227   0.0000       1.102214        29.9928 
 228   0.0000       1.107596        30.1392 
 229   0.0000       1.116634        30.3852 
 230   0.0000       1.120343        30.4861 
 231   0.0000       1.129972        30.7481 
 232   0.0000       1.136531        30.9266 
 233   0.0000       1.148070        31.2406 
 234   0.0000       1.160024        31.5659 
 235   0.0000       1.166111        31.7315 
 236   0.0000       1.170157        31.8416 
 237   0.0000       1.184755        32.2388 
 238   0.0000       1.193869        32.4868 
 239   0.0000       1.200377        32.6639 
 240   0.0000       1.205603        32.8061 
 241   0.0000       1.213582        33.0232 
 242   0.0000       1.215991        33.0888 
 243   0.0000       1.217014        33.1166 
 244   0.0000       1.221573        33.2407 
 245   0.0000       1.234064        33.5806 
 246   0.0000       1.239086        33.7172 
 247   0.0000       1.245183        33.8832 
 248   0.0000       1.247851        33.9557 
 249   0.0000       1.266028        34.4504 
 250   0.0000       1.270062        34.5601 
 251   0.0000       1.272560        34.6281 
 252   0.0000       1.276957        34.7478 
 253   0.0000       1.283057        34.9138 
 254   0.0000       1.294075        35.2136 
 255   0.0000       1.300255        35.3817 
 256   0.0000       1.312581        35.7172 
 257   0.0000       1.318018        35.8651 
 258   0.0000       1.327049        36.1108 
 259   0.0000       1.338855        36.4321 
 260   0.0000       1.340450        36.4755 
 261   0.0000       1.346903        36.6511 
 262   0.0000       1.350520        36.7495 
 263   0.0000       1.366837        37.1935 
 264   0.0000       1.370357        37.2893 
 265   0.0000       1.372973        37.3605 
 266   0.0000       1.394184        37.9377 
 267   0.0000       1.405694        38.2509 
 268   0.0000       1.413738        38.4698 
 269   0.0000       1.418470        38.5985 
 270   0.0000       1.421149        38.6714 
 271   0.0000       1.430057        38.9138 
 272   0.0000       1.439833        39.1798 
 273   0.0000       1.450289        39.4644 
 274   0.0000       1.460833        39.7513 
 275   0.0000       1.465962        39.8908 
 276   0.0000       1.476286        40.1718 
 277   0.0000       1.480153        40.2770 
 278   0.0000       1.486649        40.4538 
 279   0.0000       1.488873        40.5143 
 280   0.0000       1.498972        40.7891 
 281   0.0000       1.502764        40.8923 
 282   0.0000       1.507817        41.0298 
 283   0.0000       1.515712        41.2446 
 284   0.0000       1.519952        41.3600 
 285   0.0000       1.527090        41.5542 
 286   0.0000       1.533019        41.7156 
 287   0.0000       1.537774        41.8450 
 288   0.0000       1.545439        42.0535 
 289   0.0000       1.551460        42.2174 
 290   0.0000       1.556998        42.3681 
 291   0.0000       1.562609        42.5208 
 292   0.0000       1.566018        42.6135 
 293   0.0000       1.567821        42.6626 
 294   0.0000       1.578361        42.9494 
 295   0.0000       1.591201        43.2988 
 296   0.0000       1.598442        43.4958 
 297   0.0000       1.602938        43.6182 
 298   0.0000       1.611511        43.8515 
 299   0.0000       1.619582        44.0711 
 300   0.0000       1.631831        44.4044 
 301   0.0000       1.636806        44.5398 
 302   0.0000       1.650604        44.9152 
 303   0.0000       1.663684        45.2712 
 304   0.0000       1.665816        45.3292 
 305   0.0000       1.674020        45.5524 
 306   0.0000       1.678743        45.6809 
 307   0.0000       1.693032        46.0698 
 308   0.0000       1.705671        46.4137 
 309   0.0000       1.711964        46.5849 
 310   0.0000       1.720431        46.8153 
 311   0.0000       1.730266        47.0829 
 312   0.0000       1.742571        47.4178 
 313   0.0000       1.745732        47.5038 
 314   0.0000       1.752390        47.6850 
 315   0.0000       1.755244        47.7626 
 316   0.0000       1.775406        48.3113 
 317   0.0000       1.782526        48.5050 
 318   0.0000       1.785619        48.5892 
 319   0.0000       1.792798        48.7845 
 320   0.0000       1.801106        49.0106 
 321   0.0000       1.817400        49.4540 
 322   0.0000       1.826602        49.7044 
 323   0.0000       1.838848        50.0376 
 324   0.0000       1.841906        50.1208 
 325   0.0000       1.849276        50.3214 
 326   0.0000       1.855371        50.4872 
 327   0.0000       1.887146        51.3519 
 328   0.0000       1.893244        51.5178 
 329   0.0000       1.908779        51.9405 
 330   0.0000       1.925410        52.3931 
 331   0.0000       1.936227        52.6874 
 332   0.0000       1.944825        52.9214 
 333   0.0000       1.950931        53.0875 
 334   0.0000       1.959436        53.3190 
 335   0.0000       1.978105        53.8270 
 336   0.0000       1.981121        53.9090 
 337   0.0000       1.995299        54.2948 
 338   0.0000       2.002887        54.5013 
 339   0.0000       2.018075        54.9146 
 340   0.0000       2.030043        55.2403 
 341   0.0000       2.035586        55.3911 
 342   0.0000       2.050707        55.8026 
 343   0.0000       2.058363        56.0109 
 344   0.0000       2.065633        56.2087 
 345   0.0000       2.107906        57.3590 
 346   0.0000       2.118257        57.6407 
 347   0.0000       2.144660        58.3592 
 348   0.0000       2.154490        58.6267 
 349   0.0000       2.169301        59.0297 
 350   0.0000       2.186155        59.4883 
 351   0.0000       2.199272        59.8452 
 352   0.0000       2.208472        60.0956 
 353   0.0000       2.224278        60.5257 
 354   0.0000       2.234355        60.7999 
 355   0.0000       2.242323        61.0167 
 356   0.0000       2.271921        61.8221 
 357   0.0000       2.286154        62.2094 
 358   0.0000       2.289257        62.2939 
 359   0.0000       2.291748        62.3616 
 360   0.0000       2.322818        63.2071 
 361   0.0000       2.325263        63.2736 
 362   0.0000       2.341252        63.7087 
 363   0.0000       2.354869        64.0792 
 364   0.0000       2.370915        64.5159 
 365   0.0000       2.375145        64.6310 
 366   0.0000       2.384736        64.8920 
 367   0.0000       2.388802        65.0026 
 368   0.0000       2.400632        65.3245 
 369   0.0000       2.423306        65.9415 
 370   0.0000       2.429333        66.1055 
 371   0.0000       2.451140        66.6989 
 372   0.0000       2.474876        67.3448 
 373   0.0000       2.481034        67.5124 
 374   0.0000       2.495210        67.8981 
 375   0.0000       2.505695        68.1834 
 376   0.0000       2.510549        68.3155 
 377   0.0000       2.512945        68.3807 
 378   0.0000       2.532065        68.9010 
 379   0.0000       2.546449        69.2924 
 380   0.0000       2.551152        69.4204 
 381   0.0000       2.573927        70.0401 
 382   0.0000       2.581318        70.2412 
 383   0.0000       2.596875        70.6646 
 384   0.0000       2.603886        70.8553 
 385   0.0000       2.612130        71.0797 
 386   0.0000       2.628550        71.5265 
 387   0.0000       2.635663        71.7200 
 388   0.0000       2.652416        72.1759 
 389   0.0000       2.667029        72.5735 
 390   0.0000       2.673038        72.7371 
 391   0.0000       2.685852        73.0858 
 392   0.0000       2.697686        73.4078 
 393   0.0000       2.712054        73.7987 
 394   0.0000       2.725209        74.1567 
 395   0.0000       2.729665        74.2780 
 396   0.0000       2.736063        74.4521 
 397   0.0000       2.739636        74.5493 
 398   0.0000       2.751713        74.8779 
 399   0.0000       2.771382        75.4131 
 400   0.0000       2.774643        75.5019 
 401   0.0000       2.785242        75.7903 
 402   0.0000       2.787593        75.8543 
 403   0.0000       2.792353        75.9838 
 404   0.0000       2.805533        76.3424 
 405   0.0000       2.825980        76.8988 
 406   0.0000       2.839166        77.2576 
 407   0.0000       2.846237        77.4500 
 408   0.0000       2.853207        77.6397 
 409   0.0000       2.876773        78.2810 
 410   0.0000       2.880429        78.3805 
 411   0.0000       2.885970        78.5312 
 412   0.0000       2.894753        78.7702 
 413   0.0000       2.902144        78.9713 
 414   0.0000       2.908850        79.1538 
 415   0.0000       2.912783        79.2608 
 416   0.0000       2.925711        79.6126 
 417   0.0000       2.932917        79.8087 
 418   0.0000       2.944229        80.1166 
 419   0.0000       2.945791        80.1590 
 420   0.0000       2.954408        80.3935 
 421   0.0000       2.973816        80.9217 
 422   0.0000       2.981571        81.1327 
 423   0.0000       2.994211        81.4766 
 424   0.0000       2.999207        81.6126 
 425   0.0000       3.010084        81.9086 
 426   0.0000       3.014670        82.0333 
 427   0.0000       3.018358        82.1337 
 428   0.0000       3.025681        82.3330 
 429   0.0000       3.034845        82.5823 
 430   0.0000       3.049827        82.9900 
 431   0.0000       3.055876        83.1546 
 432   0.0000       3.064976        83.4022 
 433   0.0000       3.070857        83.5623 
 434   0.0000       3.078303        83.7649 
 435   0.0000       3.080834        83.8338 
 436   0.0000       3.098261        84.3080 
 437   0.0000       3.099518        84.3422 
 438   0.0000       3.109592        84.6163 
 439   0.0000       3.111681        84.6731 
 440   0.0000       3.115826        84.7859 
 441   0.0000       3.117849        84.8410 
 442   0.0000       3.133243        85.2599 
 443   0.0000       3.140404        85.4547 
 444   0.0000       3.142546        85.5130 
 445   0.0000       3.146844        85.6300 
 446   0.0000       3.156297        85.8872 
 447   0.0000       3.165750        86.1444 
 448   0.0000       3.180028        86.5330 
 449   0.0000       3.185432        86.6800 
 450   0.0000       3.192418        86.8701 
 451   0.0000       3.197280        87.0024 
 452   0.0000       3.203485        87.1712 
 453   0.0000       3.212270        87.4103 
 454   0.0000       3.218902        87.5908 
 455   0.0000       3.226812        87.8060 
 456   0.0000       3.237204        88.0888 
 457   0.0000       3.242577        88.2350 
 458   0.0000       3.245801        88.3227 
 459   0.0000       3.257423        88.6390 
 460   0.0000       3.266270        88.8797 
 461   0.0000       3.274398        89.1009 
 462   0.0000       3.280989        89.2802 
 463   0.0000       3.284046        89.3634 
 464   0.0000       3.292370        89.5899 
 465   0.0000       3.308564        90.0306 
 466   0.0000       3.311476        90.1099 
 467   0.0000       3.316415        90.2442 
 468   0.0000       3.327272        90.5397 
 469   0.0000       3.334131        90.7263 
 470   0.0000       3.335881        90.7739 
 471   0.0000       3.346811        91.0714 
 472   0.0000       3.349795        91.1526 
 473   0.0000       3.355674        91.3125 
 474   0.0000       3.356207        91.3270 
 475   0.0000       3.367900        91.6452 
 476   0.0000       3.376782        91.8869 
 477   0.0000       3.378417        91.9314 
 478   0.0000       3.381360        92.0115 
 479   0.0000       3.386501        92.1514 
 480   0.0000       3.393056        92.3297 
 481   0.0000       3.396656        92.4277 
 482   0.0000       3.406308        92.6903 
 483   0.0000       3.408467        92.7491 
 484   0.0000       3.411315        92.8266 
 485   0.0000       3.418818        93.0308 
 486   0.0000       3.421484        93.1033 
 487   0.0000       3.435977        93.4977 
 488   0.0000       3.442494        93.6750 
 489   0.0000       3.443001        93.6888 
 490   0.0000       3.444080        93.7182 
 491   0.0000       3.454328        93.9970 
 492   0.0000       3.464254        94.2671 
 493   0.0000       3.469051        94.3977 
 494   0.0000       3.471567        94.4661 
 495   0.0000       3.478459        94.6537 
 496   0.0000       3.488575        94.9290 
 497   0.0000       3.496651        95.1487 
 498   0.0000       3.504766        95.3695 
 499   0.0000       3.510284        95.5197 
 500   0.0000       3.516700        95.6943 
 501   0.0000       3.518766        95.7505 
 502   0.0000       3.533515        96.1518 
 503   0.0000       3.537398        96.2575 
 504   0.0000       3.542190        96.3879 
 505   0.0000       3.549443        96.5853 
 506   0.0000       3.558752        96.8386 
 507   0.0000       3.574194        97.2588 
 508   0.0000       3.574989        97.2804 
 509   0.0000       3.585236        97.5592 
 510   0.0000       3.594864        97.8212 
 511   0.0000       3.602008        98.0156 
 512   0.0000       3.612727        98.3073 
 513   0.0000       3.616864        98.4199 
 514   0.0000       3.626970        98.6949 
 515   0.0000       3.630103        98.7801 
 516   0.0000       3.630818        98.7996 
 517   0.0000       3.638334        99.0041 
 518   0.0000       3.641576        99.0923 
 519   0.0000       3.646057        99.2142 
 520   0.0000       3.650829        99.3441 
 521   0.0000       3.660257        99.6007 
 522   0.0000       3.664107        99.7054 
 523   0.0000       3.672489        99.9335 
 524   0.0000       3.680742       100.1581 
 525   0.0000       3.683767       100.2404 
 526   0.0000       3.688986       100.3824 
 527   0.0000       3.699286       100.6627 
 528   0.0000       3.703079       100.7659 
 529   0.0000       3.706756       100.8660 
 530   0.0000       3.714324       101.0719 
 531   0.0000       3.720700       101.2454 
 532   0.0000       3.725809       101.3844 
 533   0.0000       3.732886       101.5770 
 534   0.0000       3.738509       101.7300 
 535   0.0000       3.748313       101.9968 
 536   0.0000       3.750770       102.0636 
 537   0.0000       3.756504       102.2197 
 538   0.0000       3.764110       102.4266 
 539   0.0000       3.767283       102.5130 
 540   0.0000       3.781903       102.9108 
 541   0.0000       3.788291       103.0846 
 542   0.0000       3.796271       103.3018 
 543   0.0000       3.801692       103.4493 
 544   0.0000       3.806672       103.5848 
 545   0.0000       3.812974       103.7563 
 546   0.0000       3.822504       104.0156 
 547   0.0000       3.830296       104.2277 
 548   0.0000       3.840689       104.5105 
 549   0.0000       3.842763       104.5669 
 550   0.0000       3.849903       104.7612 
 551   0.0000       3.867193       105.2317 
 552   0.0000       3.874363       105.4268 
 553   0.0000       3.880293       105.5882 
 554   0.0000       3.882048       105.6359 
 555   0.0000       3.888003       105.7980 
 556   0.0000       3.899642       106.1146 
 557   0.0000       3.906297       106.2958 
 558   0.0000       3.926910       106.8567 
 559   0.0000       3.933573       107.0380 
 560   0.0000       3.937029       107.1320 
 561   0.0000       3.954088       107.5962 
 562   0.0000       3.958616       107.7194 
 563   0.0000       3.964535       107.8805 
 564   0.0000       3.983897       108.4073 
 565   0.0000       3.987633       108.5090 
 566   0.0000       3.992934       108.6532 
 567   0.0000       4.011036       109.1459 
 568   0.0000       4.020634       109.4070 
 569   0.0000       4.028344       109.6168 
 570   0.0000       4.033090       109.7460 
 571   0.0000       4.040318       109.9426 
 572   0.0000       4.049374       110.1891 
 573   0.0000       4.060202       110.4837 
 574   0.0000       4.072828       110.8273 
 575   0.0000       4.076545       110.9284 
 576   0.0000       4.080961       111.0486 
 577   0.0000       4.092450       111.3612 
 578   0.0000       4.095465       111.4433 
 579   0.0000       4.099794       111.5611 
 580   0.0000       4.107704       111.7763 
 581   0.0000       4.117328       112.0382 
 582   0.0000       4.120849       112.1340 
 583   0.0000       4.124591       112.2358 
 584   0.0000       4.130231       112.3893 
 585   0.0000       4.137360       112.5833 
 586   0.0000       4.148995       112.8999 
 587   0.0000       4.155329       113.0722 
 588   0.0000       4.163144       113.2849 
 589   0.0000       4.169921       113.4693 
 590   0.0000       4.178754       113.7097 
 591   0.0000       4.182970       113.8244 
 592   0.0000       4.184892       113.8767 
 593   0.0000       4.190742       114.0359 
 594   0.0000       4.201788       114.3365 
 595   0.0000       4.207463       114.4909 
 596   0.0000       4.212786       114.6357 
 597   0.0000       4.225567       114.9835 
 598   0.0000       4.230018       115.1047 
 599   0.0000       4.238474       115.3347 
 600   0.0000       4.238968       115.3482 
 601   0.0000       4.258815       115.8882 
 602   0.0000       4.275811       116.3507 
 603   0.0000       4.280983       116.4915 
 604   0.0000       4.289980       116.7363 
 605   0.0000       4.295827       116.8954 
 606   0.0000       4.302952       117.0893 
 607   0.0000       4.307784       117.2208 
 608   0.0000       4.316046       117.4456 
 609   0.0000       4.321820       117.6027 
 610   0.0000       4.335731       117.9812 
 611   0.0000       4.341760       118.1453 
 612   0.0000       4.358414       118.5985 
 613   0.0000       4.371208       118.9466 
 614   0.0000       4.374421       119.0340 
 615   0.0000       4.381974       119.2396 
 616   0.0000       4.386129       119.3526 
 617   0.0000       4.392363       119.5223 
 618   0.0000       4.398491       119.6890 
 619   0.0000       4.405472       119.8790 
 620   0.0000       4.409907       119.9997 
 621   0.0000       4.416043       120.1666 
 622   0.0000       4.420853       120.2975 
 623   0.0000       4.421869       120.3252 
 624   0.0000       4.423826       120.3784 
 625   0.0000       4.445290       120.9625 
 626   0.0000       4.452547       121.1600 
 627   0.0000       4.463660       121.4624 
 628   0.0000       4.466211       121.5318 
 629   0.0000       4.483943       122.0143 
 630   0.0000       4.490395       122.1898 
 631   0.0000       4.499010       122.4243 
 632   0.0000       4.502114       122.5088 
 633   0.0000       4.518972       122.9675 
 634   0.0000       4.525718       123.1511 
 635   0.0000       4.537289       123.4659 
 636   0.0000       4.540832       123.5623 
 637   0.0000       4.557031       124.0031 
 638   0.0000       4.568398       124.3124 
 639   0.0000       4.571751       124.4037 
 640   0.0000       4.580549       124.6431 
 641   0.0000       4.593033       124.9828 
 642   0.0000       4.600559       125.1876 
 643   0.0000       4.606900       125.3601 
 644   0.0000       4.618450       125.6744 
 645   0.0000       4.624027       125.8262 
 646   0.0000       4.625593       125.8688 
 647   0.0000       4.636217       126.1579 
 648   0.0000       4.647431       126.4630 
 649   0.0000       4.649952       126.5316 
 650   0.0000       4.659148       126.7819 
 651   0.0000       4.663768       126.9076 
 652   0.0000       4.665937       126.9666 
 653   0.0000       4.688400       127.5779 
 654   0.0000       4.696315       127.7932 
 655   0.0000       4.707710       128.1033 
 656   0.0000       4.711585       128.2088 
 657   0.0000       4.716215       128.3347 
 658   0.0000       4.719855       128.4338 
 659   0.0000       4.748581       129.2155 
 660   0.0000       4.751562       129.2966 
 661   0.0000       4.764463       129.6476 
 662   0.0000       4.772666       129.8709 
 663   0.0000       4.792822       130.4193 
 664   0.0000       4.795630       130.4957 
 665   0.0000       4.807568       130.8206 
 666   0.0000       4.819197       131.1370 
 667   0.0000       4.833785       131.5340 
 668   0.0000       4.870703       132.5386 
 669   0.0000       4.881220       132.8247 
 670   0.0000       4.884904       132.9250 
 671   0.0000       4.921920       133.9323 
 672   0.0000       4.965513       135.1185 
 673   0.0000       4.978489       135.4716 
 674   0.0000       4.997236       135.9817 
 675   0.0000       5.001433       136.0959 
 676   0.0000       5.007477       136.2604 
 677   0.0000       5.014844       136.4608 
 678   0.0000       5.026009       136.7647 
 679   0.0000       5.039580       137.1339 
 680   0.0000       5.041342       137.1819 
 681   0.0000       5.052306       137.4802 
 682   0.0000       5.059154       137.6666 
 683   0.0000       5.084406       138.3537 
 684   0.0000       5.106703       138.9605 
 685   0.0000       5.111152       139.0815 
 686   0.0000       5.122938       139.4022 
 687   0.0000       5.129845       139.5902 
 688   0.0000       5.139423       139.8508 
 689   0.0000       5.158403       140.3673 
 690   0.0000       5.167724       140.6209 
 691   0.0000       5.179856       140.9510 
 692   0.0000       5.186487       141.1315 
 693   0.0000       5.189379       141.2102 
 694   0.0000       5.196032       141.3912 
 695   0.0000       5.212777       141.8469 
 696   0.0000       5.227517       142.2480 
 697   0.0000       5.231406       142.3538 
 698   0.0000       5.246425       142.7625 
 699   0.0000       5.249107       142.8355 
 700   0.0000       5.268969       143.3759 
 701   0.0000       5.278447       143.6338 
 702   0.0000       5.299294       144.2011 
 703   0.0000       5.312665       144.5650 
 704   0.0000       5.332051       145.0925 
 705   0.0000       5.342536       145.3778 
 706   0.0000       5.354070       145.6916 
 707   0.0000       5.360464       145.8657 
 708   0.0000       5.375402       146.2721 
 709   0.0000       5.380391       146.4079 
 710   0.0000       5.392511       146.7377 
 711   0.0000       5.404050       147.0517 
 712   0.0000       5.408747       147.1795 
 713   0.0000       5.461675       148.6197 
 714   0.0000       5.479635       149.1085 
 715   0.0000       5.487210       149.3146 
 716   0.0000       5.491084       149.4200 
 717   0.0000       5.506782       149.8472 
 718   0.0000       5.508287       149.8881 
 719   0.0000       5.520804       150.2287 
 720   0.0000       5.527447       150.4095 
 721   0.0000       5.534217       150.5937 
 722   0.0000       5.536071       150.6442 
 723   0.0000       5.565430       151.4430 
 724   0.0000       5.582805       151.9158 
 725   0.0000       5.590975       152.1382 
 726   0.0000       5.594125       152.2239 
 727   0.0000       5.600779       152.4049 
 728   0.0000       5.610313       152.6644 
 729   0.0000       5.622290       152.9903 
 730   0.0000       5.639434       153.4568 
 731   0.0000       5.645962       153.6344 
 732   0.0000       5.663843       154.1210 
 733   0.0000       5.670119       154.2918 
 734   0.0000       5.677368       154.4890 
 735   0.0000       5.689368       154.8156 
 736   0.0000       5.709762       155.3705 
 737   0.0000       5.724243       155.7646 
 738   0.0000       5.744132       156.3058 
 739   0.0000       5.752409       156.5310 
 740   0.0000       5.759999       156.7375 
 741   0.0000       5.776549       157.1879 
 742   0.0000       5.793191       157.6407 
 743   0.0000       5.811059       158.1269 
 744   0.0000       5.824528       158.4935 
 745   0.0000       5.840397       158.9253 
 746   0.0000       5.857704       159.3962 
 747   0.0000       5.876168       159.8987 
 748   0.0000       5.884583       160.1276 
 749   0.0000       5.928183       161.3140 
 750   0.0000       5.944375       161.7547 
 751   0.0000       5.981009       162.7515 
 752   0.0000       5.981324       162.7601 
 753   0.0000       5.985404       162.8711 
 754   0.0000       6.002969       163.3491 
 755   0.0000       6.017328       163.7398 
 756   0.0000       6.061971       164.9546 
 757   0.0000       6.063282       164.9903 
 758   0.0000       6.085802       165.6031 
 759   0.0000       6.104018       166.0988 
 760   0.0000       6.140726       167.0977 
 761   0.0000       6.189213       168.4171 
 762   0.0000       6.206163       168.8783 
 763   0.0000       6.221498       169.2956 
 764   0.0000       6.226947       169.4438 
 765   0.0000       6.247415       170.0008 
 766   0.0000       6.274987       170.7511 
 767   0.0000       6.285331       171.0326 
 768   0.0000       6.304440       171.5525 
 769   0.0000       6.321865       172.0267 
 770   0.0000       6.334262       172.3640 
 771   0.0000       6.361338       173.1008 
 772   0.0000       6.392565       173.9505 
 773   0.0000       6.428164       174.9192 
 774   0.0000       6.456354       175.6863 
 775   0.0000       6.501440       176.9132 
 776   0.0000       6.565433       178.6545 
 777   0.0000       6.575270       178.9222 
 778   0.0000       6.594790       179.4534 
 779   0.0000       6.612622       179.9386 
 780   0.0000       6.641217       180.7167 
 781   0.0000       6.679615       181.7616 
 782   0.0000       6.746659       183.5859 
 783   0.0000       6.823689       185.6820 
 784   0.0000       6.877342       187.1420 
 785   0.0000       6.892442       187.5529 
 786   0.0000       6.915121       188.1700 
 787   0.0000       6.938087       188.7949 
 788   0.0000       6.951244       189.1530 
 789   0.0000       7.001643       190.5244 
 790   0.0000       7.025756       191.1806 
 791   0.0000       7.091097       192.9586 
 792   0.0000       7.102926       193.2805 
 793   0.0000       7.137272       194.2151 
 794   0.0000       7.161914       194.8856 
 795   0.0000       7.241508       197.0515 
 796   0.0000       7.251456       197.3222 
 797   0.0000       7.285887       198.2591 
 798   0.0000       7.341325       199.7676 
 799   0.0000       7.369499       200.5343 
 800   0.0000       7.418756       201.8746 
 801   0.0000       7.530630       204.9189 
 802   0.0000       7.556472       205.6221 
 803   0.0000       7.595570       206.6860 
 804   0.0000       7.659531       208.4264 
 805   0.0000       7.821116       212.8234 
 806   0.0000       7.879228       214.4047 
 807   0.0000       7.930045       215.7875 
 808   0.0000       7.995420       217.5664 
 809   0.0000       9.499740       258.5011 
 810   0.0000       9.582224       260.7456 
 811   0.0000      10.744385       292.3696 
 812   0.0000      11.069495       301.2163 
 813   0.0000      11.761319       320.0417 
 814   0.0000      12.673547       344.8647 
 815   0.0000      12.775665       347.6435 
 816   0.0000      12.987952       353.4201 
 817   0.0000      13.056995       355.2989 
 818   0.0000      13.173307       358.4639 
 819   0.0000      13.352648       363.3440 
 820   0.0000      13.504031       367.4634 
 821   0.0000      13.720171       373.3448 
 822   0.0000      13.791930       375.2975 
 823   0.0000      13.826033       376.2255 
 824   0.0000      13.912525       378.5791 
 825   0.0000      14.590788       397.0355 
 826   0.0000      14.626708       398.0129 
 827   0.0000      15.877601       432.0515 

                    ********************************
                    * MULLIKEN POPULATION ANALYSIS *
                    ********************************

-----------------------
MULLIKEN ATOMIC CHARGES
-----------------------
   0 C :   -0.292822
   1 C :    0.018756
   2 O :   -0.341906
   3 C :    0.415315
   4 O :   -0.401555
   5 C :   -0.155320
   6 C :    0.126091
   7 C :   -0.286753
   8 N :   -0.121268
   9 C :    0.210246
  10 S :   -0.437849
  11 N :   -0.199892
  12 C :    0.060870
  13 C :    0.089097
  14 C :   -0.239495
  15 C :   -0.130303
  16 C :   -0.289209
  17 C :    0.313727
  18 O :   -0.359872
  19 C :   -0.247465
  20 H :    0.101422
  21 H :    0.086572
  22 H :    0.119702
  23 H :    0.102977
  24 H :    0.128437
  25 H :    0.125198
  26 H :    0.142744
  27 H :    0.096480
  28 H :    0.196671
  29 H :    0.185221
  30 H :    0.169990
  31 H :    0.128697
  32 H :    0.157968
  33 H :    0.125771
  34 H :    0.243108
  35 H :    0.158644
Sum of atomic charges:   -0.0000000

--------------------------------
MULLIKEN REDUCED ORBITAL CHARGES
--------------------------------
  0 C s       :     3.263214  s :     3.263214
      pz      :     0.972675  p :     2.950374
      px      :     1.005391
      py      :     0.972308
      dz2     :     0.023351  d :     0.074886
      dxz     :     0.006941
      dyz     :     0.016579
      dx2y2   :     0.004622
      dxy     :     0.023394
      f0      :     0.000512  f :     0.004348
      f+1     :     0.000260
      f-1     :     0.001401
      f+2     :     0.000424
      f-2     :     0.000833
      f+3     :     0.000285
      f-3     :     0.000633
  1 C s       :     3.175570  s :     3.175570
      pz      :     0.968377  p :     2.638341
      px      :     0.883458
      py      :     0.786506
      dz2     :     0.028723  d :     0.155703
      dxz     :     0.021710
      dyz     :     0.036821
      dx2y2   :     0.032048
      dxy     :     0.036402
      f0      :     0.001019  f :     0.011628
      f+1     :     0.000806
      f-1     :     0.001974
      f+2     :     0.001234
      f-2     :     0.002229
      f+3     :     0.001833
      f-3     :     0.002533
  2 O s       :     3.707944  s :     3.707944
      pz      :     1.648853  p :     4.599545
      px      :     1.638714
      py      :     1.311979
      dz2     :     0.003366  d :     0.031972
      dxz     :     0.005069
      dyz     :     0.011621
      dx2y2   :     0.005560
      dxy     :     0.006357
      f0      :     0.000203  f :     0.002445
      f+1     :     0.000071
      f-1     :     0.000289
      f+2     :     0.000317
      f-2     :     0.000448
      f+3     :     0.000701
      f-3     :     0.000415
  3 C s       :     3.086116  s :     3.086116
      pz      :     0.778555  p :     2.180677
      px      :     0.712750
      py      :     0.689372
      dz2     :     0.080502  d :     0.290929
      dxz     :     0.051444
      dyz     :     0.068560
      dx2y2   :     0.048425
      dxy     :     0.041998
      f0      :     0.003917  f :     0.026963
      f+1     :     0.002953
      f-1     :     0.004765
      f+2     :     0.005375
      f-2     :     0.004487
      f+3     :     0.002451
      f-3     :     0.003017
  4 O s       :     3.769454  s :     3.769454
      pz      :     1.422306  p :     4.594642
      px      :     1.504539
      py      :     1.667797
      dz2     :     0.011674  d :     0.035068
      dxz     :     0.008508
      dyz     :     0.007544
      dx2y2   :     0.002662
      dxy     :     0.004680
      f0      :     0.000478  f :     0.002391
      f+1     :     0.000445
      f-1     :     0.000452
      f+2     :     0.000280
      f-2     :     0.000503
      f+3     :     0.000099
      f-3     :     0.000134
  5 C s       :     3.180152  s :     3.180152
      pz      :     1.016275  p :     2.873330
      px      :     0.992118
      py      :     0.864937
      dz2     :     0.011360  d :     0.090736
      dxz     :     0.008124
      dyz     :     0.029318
      dx2y2   :     0.014650
      dxy     :     0.027284
      f0      :     0.001037  f :     0.011103
      f+1     :     0.001015
      f-1     :     0.001804
      f+2     :     0.001897
      f-2     :     0.001948
      f+3     :     0.001836
      f-3     :     0.001565
  6 C s       :     3.191545  s :     3.191545
      pz      :     0.814398  p :     2.492394
      px      :     0.839129
      py      :     0.838866
      dz2     :     0.033606  d :     0.175830
      dxz     :     0.020605
      dyz     :     0.042300
      dx2y2   :     0.029359
      dxy     :     0.049959
      f0      :     0.001457  f :     0.014141
      f+1     :     0.001995
      f-1     :     0.001629
      f+2     :     0.002300
      f-2     :     0.002029
      f+3     :     0.002547
      f-3     :     0.002185
  7 C s       :     3.281715  s :     3.281715
      pz      :     1.016703  p :     2.929836
      px      :     0.985843
      py      :     0.927291
      dz2     :     0.020811  d :     0.070515
      dxz     :     0.007072
      dyz     :     0.011944
      dx2y2   :     0.018954
      dxy     :     0.011733
      f0      :     0.001133  f :     0.004687
      f+1     :     0.000377
      f-1     :     0.000483
      f+2     :     0.000272
      f-2     :     0.000796
      f+3     :     0.001054
      f-3     :     0.000572
  8 N s       :     3.336779  s :     3.336779
      pz      :     1.449154  p :     3.720017
      px      :     1.190277
      py      :     1.080586
      dz2     :     0.009077  d :     0.059556
      dxz     :     0.010615
      dyz     :     0.007850
      dx2y2   :     0.018672
      dxy     :     0.013343
      f0      :     0.000626  f :     0.004916
      f+1     :     0.000911
      f-1     :     0.000391
      f+2     :     0.000813
      f-2     :     0.000945
      f+3     :     0.000549
      f-3     :     0.000680
  9 C s       :     3.160659  s :     3.160659
      pz      :     0.747164  p :     2.348793
      px      :     0.805508
      py      :     0.796121
      dz2     :     0.044064  d :     0.262757
      dxz     :     0.030700
      dyz     :     0.055488
      dx2y2   :     0.069556
      dxy     :     0.062949
      f0      :     0.001664  f :     0.017545
      f+1     :     0.002583
      f-1     :     0.001970
      f+2     :     0.002958
      f-2     :     0.001957
      f+3     :     0.003439
      f-3     :     0.002973
 10 S s       :     5.856169  s :     5.856169
      pz      :     3.438153  p :    10.486948
      px      :     3.392020
      py      :     3.656775
      dz2     :     0.013060  d :     0.084615
      dxz     :     0.022862
      dyz     :     0.015527
      dx2y2   :     0.007781
      dxy     :     0.025384
      f0      :     0.001029  f :     0.010116
      f+1     :     0.001471
      f-1     :     0.000872
      f+2     :     0.000906
      f-2     :     0.003168
      f+3     :     0.000754
      f-3     :     0.001917
 11 N s       :     3.381606  s :     3.381606
      pz      :     1.406365  p :     3.754196
      px      :     1.322394
      py      :     1.025437
      dz2     :     0.007024  d :     0.059716
      dxz     :     0.008721
      dyz     :     0.014033
      dx2y2   :     0.012369
      dxy     :     0.017569
      f0      :     0.000545  f :     0.004374
      f+1     :     0.000443
      f-1     :     0.000563
      f+2     :     0.000724
      f-2     :     0.000663
      f+3     :     0.000636
      f-3     :     0.000800
 12 C s       :     3.119035  s :     3.119035
      pz      :     0.884089  p :     2.637257
      px      :     0.818642
      py      :     0.934525
      dz2     :     0.027861  d :     0.171948
      dxz     :     0.030436
      dyz     :     0.047057
      dx2y2   :     0.033355
      dxy     :     0.033239
      f0      :     0.001250  f :     0.010891
      f+1     :     0.001783
      f-1     :     0.001464
      f+2     :     0.001539
      f-2     :     0.002393
      f+3     :     0.001118
      f-3     :     0.001344
 13 C s       :     3.128876  s :     3.128876
      pz      :     0.851727  p :     2.654902
      px      :     0.875458
      py      :     0.927717
      dz2     :     0.027950  d :     0.115892
      dxz     :     0.010943
      dyz     :     0.030152
      dx2y2   :     0.017682
      dxy     :     0.029165
      f0      :     0.001214  f :     0.011232
      f+1     :     0.001898
[...]
      f+2     :     0.007500
      f-2     :     0.004888
      f+3     :     0.007539
      f-3     :     0.006366
 15 C s       :     2.703885  s :     2.703885
      pz      :     0.917926  p :     2.794506
      px      :     0.903924
      py      :     0.972655
      dz2     :     0.109186  d :     0.428625
      dxz     :     0.067826
      dyz     :     0.070803
      dx2y2   :     0.116788
      dxy     :     0.064023
      f0      :     0.003940  f :     0.042406
      f+1     :     0.005362
      f-1     :     0.007454
      f+2     :     0.007522
      f-2     :     0.006728
      f+3     :     0.005171
      f-3     :     0.006230
 16 C s       :     2.699969  s :     2.699969
      pz      :     0.952392  p :     2.881295
      px      :     0.950451
      py      :     0.978452
      dz2     :     0.054167  d :     0.393715
      dxz     :     0.052416
      dyz     :     0.102665
      dx2y2   :     0.087576
      dxy     :     0.096891
      f0      :     0.005407  f :     0.041035
      f+1     :     0.004244
      f-1     :     0.004818
      f+2     :     0.007195
      f-2     :     0.005037
      f+3     :     0.008488
      f-3     :     0.005845
 17 C s       :     2.704633  s :     2.704633
      pz      :     0.840435  p :     2.674228
      px      :     0.820043
      py      :     1.013750
      dz2     :     0.143073  d :     0.707863
      dxz     :     0.097709
      dyz     :     0.164136
      dx2y2   :     0.144319
      dxy     :     0.158626
      f0      :     0.012646  f :     0.099103
      f+1     :     0.013844
      f-1     :     0.012316
      f+2     :     0.018078
      f-2     :     0.014149
      f+3     :     0.015912
      f-3     :     0.012158
 18 O s       :     3.178831  s :     3.178831
      pz      :     1.392005  p :     4.349956
      px      :     1.457486
      py      :     1.500465
      dz2     :     0.010076  d :     0.075617
      dxz     :     0.016697
      dyz     :     0.021807
      dx2y2   :     0.011651
      dxy     :     0.015386
      f0      :     0.000670  f :     0.005096
      f+1     :     0.000636
      f-1     :     0.000550
      f+2     :     0.000871
      f-2     :     0.001080
      f+3     :     0.000645
      f-3     :     0.000644
 19 C s       :     2.698717  s :     2.698717
      pz      :     0.950896  p :     2.856867
      px      :     0.937807
      py      :     0.968163
      dz2     :     0.082016  d :     0.378147
      dxz     :     0.065201
      dyz     :     0.070970
      dx2y2   :     0.091416
      dxy     :     0.068545
      f0      :     0.003808  f :     0.039361
      f+1     :     0.005840
      f-1     :     0.006100
      f+2     :     0.006941
      f-2     :     0.006820
      f+3     :     0.005091
      f-3     :     0.004760
 20 H s       :     0.837805  s :     0.837805
      pz      :     0.038737  p :     0.150519
      px      :     0.055522
      py      :     0.056260
      dz2     :     0.002279  d :     0.027546
      dxz     :     0.004410
      dyz     :     0.005023
      dx2y2   :     0.009065
      dxy     :     0.006768
 21 H s       :     0.852566  s :     0.852566
      pz      :     0.040872  p :     0.152174
      px      :     0.062396
      py      :     0.048907
      dz2     :     0.003495  d :     0.027292
      dxz     :     0.005752
      dyz     :     0.003196
      dx2y2   :     0.007536
      dxy     :     0.007312
 22 H s       :     0.847106  s :     0.847106
      pz      :     0.067603  p :     0.151751
      px      :     0.040627
      py      :     0.043521
      dz2     :     0.009141  d :     0.027426
      dxz     :     0.007277
      dyz     :     0.007371
      dx2y2   :     0.001269
      dxy     :     0.002368
 23 H s       :     0.851289  s :     0.851289
      pz      :     0.045251  p :     0.151053
      px      :     0.067667
      py      :     0.038135
      dz2     :     0.004259  d :     0.028053
      dxz     :     0.007114
      dyz     :     0.003102
      dx2y2   :     0.006400
      dxy     :     0.007178
 24 H s       :     0.847509  s :     0.847509
      pz      :     0.065326  p :     0.144473
      px      :     0.037675
      py      :     0.041472
      dz2     :     0.006931  d :     0.027278
      dxz     :     0.007115
      dyz     :     0.007960
      dx2y2   :     0.002302
      dxy     :     0.002971
 25 H s       :     0.831483  s :     0.831483
      pz      :     0.041389  p :     0.151889
      px      :     0.072910
      py      :     0.037591
      dz2     :     0.003162  d :     0.027741
      dxz     :     0.008866
      dyz     :     0.000198
      dx2y2   :     0.007006
      dxy     :     0.008509
 26 H s       :     0.822352  s :     0.822352
      pz      :     0.075152  p :     0.152994
      px      :     0.039209
      py      :     0.038633
      dz2     :     0.009605  d :     0.027721
      dxz     :     0.008853
      dyz     :     0.008530
      dx2y2   :     0.000602
      dxy     :     0.000132
 27 H s       :     0.842745  s :     0.842745
      pz      :     0.041716  p :     0.149980
      px      :     0.040206
      py      :     0.068057
      dz2     :     0.003290  d :     0.027561
      dxz     :     0.000671
      dyz     :     0.008165
      dx2y2   :     0.007483
      dxy     :     0.007952
 28 H s       :     0.742542  s :     0.742542
      pz      :     0.076962  p :     0.254181
      px      :     0.056432
      py      :     0.120787
      dz2     :     0.005436  d :     0.061660
      dxz     :     0.000408
      dyz     :     0.021792
      dx2y2   :     0.015951
      dxy     :     0.018074
 29 H s       :     0.748557  s :     0.748557
      pz      :     0.094042  p :     0.255361
      px      :     0.105489
      py      :     0.055829
      dz2     :     0.013243  d :     0.061843
      dxz     :     0.012819
      dyz     :     0.009191
      dx2y2   :     0.014641
      dxy     :     0.011949
 30 H s       :     0.813381  s :     0.813381
      pz      :     0.055682  p :     0.172686
      px      :     0.034965
      py      :     0.082039
      dz2     :     0.006103  d :     0.031123
      dxz     :     0.002912
      dyz     :     0.009129
      dx2y2   :     0.007264
      dxy     :     0.005715
 31 H s       :     0.848696  s :     0.848696
      pz      :     0.061219  p :     0.162524
      px      :     0.058919
      py      :     0.042386
      dz2     :     0.006855  d :     0.028110
      dxz     :     0.005858
      dyz     :     0.005692
      dx2y2   :     0.004878
      dxy     :     0.004827
 32 H s       :     0.844386  s :     0.844386
      pz      :     0.036004  p :     0.149985
      px      :     0.036734
      py      :     0.077247
      dz2     :     0.002622  d :     0.026237
      dxz     :     0.000139
      dyz     :     0.007954
      dx2y2   :     0.007669
      dxy     :     0.007852
 33 H s       :     0.849603  s :     0.849603
      pz      :     0.057507  p :     0.159380
      px      :     0.054231
      py      :     0.047642
      dz2     :     0.006370  d :     0.027712
      dxz     :     0.005177
      dyz     :     0.005751
      dx2y2   :     0.005412
      dxy     :     0.005003
 34 H s       :     0.705505  s :     0.705505
      pz      :     0.107383  p :     0.346118
      px      :     0.093295
      py      :     0.145441
      dz2     :     0.022491  d :     0.099072
      dxz     :     0.012175
      dyz     :     0.023799
      dx2y2   :     0.020121
      dxy     :     0.020487
 35 H s       :     0.842701  s :     0.842701
      pz      :     0.039995  p :     0.161133
      px      :     0.041934
      py      :     0.079204
      dz2     :     0.002768  d :     0.028553
      dxz     :     0.000401
      dyz     :     0.008737
      dx2y2   :     0.007953
      dxy     :     0.008694


                      *****************************
                      * MAYER POPULATION ANALYSIS *
                      *****************************

  NA   - Mulliken gross atomic population
  ZA   - Total nuclear charge
  QA   - Mulliken gross atomic charge
  VA   - Mayer's total valence
  BVA  - Mayer's bonded valence
  FA   - Mayer's free valence

  ATOM       NA         ZA         QA         VA         BVA        FA
  0 C      6.2928     6.0000    -0.2928     3.8747     3.8747    -0.0000
  1 C      5.9812     6.0000     0.0188     3.8610     3.8610    -0.0000
  2 O      8.3419     8.0000    -0.3419     2.0238     2.0238     0.0000
  3 C      5.5847     6.0000     0.4153     4.2500     4.2500     0.0000
  4 O      8.4016     8.0000    -0.4016     2.1137     2.1137    -0.0000
  5 C      6.1553     6.0000    -0.1553     3.6078     3.6078     0.0000
  6 C      5.8739     6.0000     0.1261     3.8722     3.8722    -0.0000
  7 C      6.2868     6.0000    -0.2868     3.8881     3.8881    -0.0000
  8 N      7.1213     7.0000    -0.1213     3.2931     3.2931    -0.0000
  9 C      5.7898     6.0000     0.2102     4.1394     4.1394     0.0000
 10 S     16.4378    16.0000    -0.4378     1.7587     1.7587    -0.0000
 11 N      7.1999     7.0000    -0.1999     3.2572     3.2572     0.0000
 12 C      5.9391     6.0000     0.0609     3.9146     3.9146    -0.0000
 13 C      5.9109     6.0000     0.0891     3.6788     3.6788    -0.0000
 14 C      6.2395     6.0000    -0.2395     3.8397     3.8397    -0.0000
 15 C      6.1303     6.0000    -0.1303     3.8014     3.8014    -0.0000
 16 C      6.2892     6.0000    -0.2892     3.7765     3.7765    -0.0000
 17 C      5.6863     6.0000     0.3137     3.8812     3.8812     0.0000
 18 O      8.3599     8.0000    -0.3599     2.1146     2.1146     0.0000
 19 C      6.2475     6.0000    -0.2475     3.8603     3.8603     0.0000
 20 H      0.8986     1.0000     0.1014     0.9829     0.9829    -0.0000
 21 H      0.9134     1.0000     0.0866     0.9827     0.9827    -0.0000
 22 H      0.8803     1.0000     0.1197     0.9825     0.9825    -0.0000
 23 H      0.8970     1.0000     0.1030     0.9778     0.9778     0.0000
 24 H      0.8716     1.0000     0.1284     0.9708     0.9708    -0.0000
 25 H      0.8748     1.0000     0.1252     0.9782     0.9782    -0.0000
 26 H      0.8573     1.0000     0.1427     0.9825     0.9825     0.0000
 27 H      0.9035     1.0000     0.0965     0.9863     0.9863    -0.0000
 28 H      0.8033     1.0000     0.1967     1.0240     1.0240     0.0000
 29 H      0.8148     1.0000     0.1852     1.0284     1.0284     0.0000
 30 H      0.8300     1.0000     0.1700     0.9923     0.9923    -0.0000
 31 H      0.8713     1.0000     0.1287     0.9892     0.9892    -0.0000
 32 H      0.8420     1.0000     0.1580     0.9772     0.9772     0.0000
 33 H      0.8742     1.0000     0.1258     0.9926     0.9926     0.0000
 34 H      0.7569     1.0000     0.2431     1.0088     1.0088     0.0000
 35 H      0.8414     1.0000     0.1586     0.9917     0.9917     0.0000

  Mayer bond orders larger than 0.100000
B(  0-C ,  1-C ) :   0.9602 B(  0-C , 20-H ) :   0.9735 B(  0-C , 21-H ) :   0.9777 
B(  0-C , 22-H ) :   0.9743 B(  1-C ,  2-O ) :   0.9004 B(  1-C , 23-H ) :   0.9853 
B(  1-C , 24-H ) :   0.9755 B(  2-O ,  3-C ) :   1.1594 B(  3-C ,  4-O ) :   2.0288 
B(  3-C ,  5-C ) :   1.0073 B(  5-C ,  6-C ) :   1.6908 B(  5-C , 12-C ) :   0.9966 
B(  6-C ,  7-C ) :   0.9476 B(  6-C ,  8-N ) :   1.1465 B(  7-C , 25-H ) :   0.9714 
B(  7-C , 26-H ) :   0.9575 B(  7-C , 27-H ) :   0.9901 B(  8-N ,  9-C ) :   1.1837 
B(  8-N , 28-H ) :   0.9481 B(  9-C , 10-S ) :   1.6055 B(  9-C , 11-N ) :   1.3013 
B( 11-N , 12-C ) :   0.9804 B( 11-N , 29-H ) :   0.9537 B( 12-C , 13-C ) :   0.8979 
B( 12-C , 30-H ) :   0.9863 B( 13-C , 14-C ) :   1.3446 B( 13-C , 19-C ) :   1.3843 
B( 14-C , 15-C ) :   1.3889 B( 14-C , 31-H ) :   0.9809 B( 15-C , 16-C ) :   1.3599 
B( 15-C , 32-H ) :   0.9715 B( 16-C , 17-C ) :   1.3167 B( 16-C , 33-H ) :   0.9884 
B( 17-C , 18-O ) :   1.1035 B( 17-C , 19-C ) :   1.3925 B( 18-O , 34-H ) :   0.9779 
B( 19-C , 35-H ) :   0.9549 

-------
TIMINGS
-------

Total SCF time: 0 days 1 hours 33 min 54 sec 

Total time                  ....    5634.504 sec
Sum of individual times     ....    5630.150 sec  ( 99.9%)

Fock matrix formation       ....    5619.669 sec  ( 99.7%)
Diagonalization             ....       1.171 sec  (  0.0%)
Density matrix formation    ....       0.210 sec  (  0.0%)
Population analysis         ....       0.278 sec  (  0.0%)
Initial guess               ....       4.741 sec  (  0.1%)
Orbital Transformation      ....       0.000 sec  (  0.0%)
Orbital Orthonormalization  ....       0.000 sec  (  0.0%)
DIIS solution               ....       1.384 sec  (  0.0%)
SOSCF solution              ....       1.431 sec  (  0.0%)

------------------------------------------------------------------------------
                                ORCA  MP2 
------------------------------------------------------------------------------

Freezing NCore=48 chemical core electrons

-------------
RI-MP2 ENERGY
-------------
Dimension of the basis                    ...  828
Memory devoted to MP2                     ...  256 MB   
Data format for buffers                   ... DOUBLE
Compression type for matrix containers    ... UNCOMPRESSED
Overall scaling of the MP2 energy         ...   1.000e+00
Calculating two index integrals           ... done (    0.038 sec)
Cholesky decomposition of V**-1           ... done (    0.307 sec)

-----------------
RI-TRANSFORMATION (AUX index driven)
-----------------

Dimension of the orbital-basis         ... 828
Dimension of the aux-basis             ... 2141
Transformation of internal/external MOs...   24-  76 to   77- 827
Number Format for Storage              ... Double (8 Byte)
Integral mode                          ... Direct

First Phase: integral generation and transformation of MO indices
  Aux angular momentum 0               ... done (    4.164 sec)
  Aux angular momentum 1               ... done (    6.653 sec)
  Aux angular momentum 2               ... done (    9.053 sec)
  Aux angular momentum 3               ... done (    7.466 sec)
  Aux angular momentum 4               ... done (    2.618 sec)
Closing buffer VIA ( 0.63 GB; CompressionRatio= 1.00)
  Phase 1 completed in    30.270 sec
Second Phase: sorting and transformation of aux index

IA-Transformation
Memory available                       ... 167 MB 
Max. # MO pairs treated in a batch     ... 12    
# of internal orbitals                 ... 53
# batches for internal orbitals        ... 5
Closing buffer IAV ( 0.63 GB; CompressionRatio= 1.00)
(ia|v) transformation done in    20.302 sec

  Phase 2 completed in    20.335 sec
RI-Integral transformation completed in    50.611 sec
Opening buffers                              ... done

Starting loop over batches of integrals:

Operator 0  - window                       ... ( 24- 76)x( 77-827)
Operator 0  - Memory available             ...   256 MB
Operator 0  - Memory needed per MO         ...  12.3 MB
Operator 0  - Number of orbitals per batch ... 13
Operator 0  - Number of batches            ... 5

OPERATOR  0   PASS   0:  MOs    24 ...   36
  Reading integrals       ... ok
  Internal MO  26
  Internal MO  29
  Internal MO  32
  Internal MO  35
OPERATOR  0   PASS   1:  MOs    37 ...   49
  Reading integrals       ... ok
  Internal MO  38
  Internal MO  41
  Internal MO  44
  Internal MO  47
OPERATOR  0   PASS   2:  MOs    50 ...   62
  Reading integrals       ... ok
  Internal MO  50
  Internal MO  53
  Internal MO  56
  Internal MO  59
  Internal MO  62
OPERATOR  0   PASS   3:  MOs    63 ...   75
  Reading integrals       ... ok
  Internal MO  65
  Internal MO  68
  Internal MO  71
  Internal MO  74
OPERATOR  0   PASS   4:  MOs    76 ...   76
  Reading integrals       ... ok
Time spent in pair loops =    80.251 sec
Deleting buffer (Ka|jb)[aa] ...done

-----------------------------------------------
 RI-MP2 CORRELATION ENERGY:     -3.550723864 Eh
-----------------------------------------------


-------
TIMINGS
-------

Total time                :  131.342 sec
Integral trafo            :   50.619 sec ( 38.5%)
I/O of integrals          :    1.376 sec (  1.0%)
K(i,j) Operators          :   49.026 sec ( 37.3%)
T(i,j) pair energies      :    8.617 sec (  6.6%)
V-calculation             :    0.038 sec (  0.0%)
V**(-1/2)                 :    0.307 sec (  0.2%)
Gamma(ia|P)               :    0.000 sec (  0.0%)
Gamma-Trafo               :    0.000 sec (  0.0%)
D(virtual)                :    0.000 sec (  0.0%)
D(internal)               :    0.000 sec (  0.0%)
W(virtual)                :    0.000 sec (  0.0%)
W(internal)               :    0.000 sec (  0.0%)
L(virtual)                :    0.000 sec (  0.0%)
L(internal)               :    0.000 sec (  0.0%)
G(D)                      :    0.000 sec (  0.0%)
G(Z)                      :    0.000 sec (  0.0%)
Z-Vector Solution         :    0.000 sec (  0.0%)
3-Index Derivative        :    0.000 sec (  0.0%)
2-Index Derivative        :    0.000 sec (  0.0%)
Separable Gradient        :    0.000 sec (  0.0%)


---------------------------------------
MP2 TOTAL ENERGY:    -1274.265700185 Eh
---------------------------------------

-------------------------   --------------------
FINAL SINGLE POINT ENERGY     -1274.265700184672
-------------------------   --------------------


                            ***************************************
                            *     ORCA property calculations      *
                            ***************************************


  WARNING: The energy has been calculated at the MP2 level but the densities
           used in the property calculations are still SCF densities
           MP2 response densities have not been calculated 
           use %mp2 Density relaxed end
           or  %mp2 Density unrelaxed end

                                    ---------------------
                                    Active property flags
                                    ---------------------
   (+) Dipole Moment


------------------------------------------------------------------------------
                       ORCA ELECTRIC PROPERTIES CALCULATION
------------------------------------------------------------------------------

Dipole Moment Calculation                       ... on
Quadrupole Moment Calculation                   ... off
Polarizability Calculation                      ... off
GBWName                                         ... G2_CONFS/Conf496.orca.gbw
Electron density file                           ... G2_CONFS/Conf496.orca.scfp
The origin for moment calculation is the CENTER OF MASS  = (32.903663, 31.542579 35.315765)

-------------
DIPOLE MOMENT
-------------
                                X             Y             Z
Electronic contribution:      9.72771      11.00030       7.82477
Nuclear contribution   :    -11.06133     -12.76919      -8.35659
                        -----------------------------------------
Total Dipole Moment    :     -1.33362      -1.76889      -0.53182
                        -----------------------------------------
Magnitude (a.u.)       :      2.27823
Magnitude (Debye)      :      5.79080



--------------------
Rotational spectrum 
--------------------
 
Rotational constants in cm-1:     0.012064     0.008847     0.006374 
Rotational constants in MHz :   361.679045   265.212922   191.091703 

 Dipole components along the rotational axes: 
x,y,z [a.u.] :    -2.277206     0.049892     0.046695 
x,y,z [Debye]:    -5.788197     0.126815     0.118689 

 

Timings for individual modules:

Sum of individual times         ...     5767.366 sec (=  96.123 min)
GTO integral calculation        ...        1.201 sec (=   0.020 min)   0.0 %
SCF iterations                  ...     5634.553 sec (=  93.909 min)  97.7 %
MP2 module                      ...      131.612 sec (=   2.194 min)   2.3 %
                             ****ORCA TERMINATED NORMALLY****
TOTAL RUN TIME: 0 days 1 hours 36 minutes 8 seconds 183 msec
