
                                 *****************
                                 * O   R   C   A *
                                 *****************

           --- An Ab Initio, DFT and Semiempirical electronic structure package ---

                  #######################################################
                  #                        -***-                        #
                  #          Department of theory and spectroscopy      #
                  #               Directorship: Frank Neese             #
                  #        Max Planck Institute fuer Kohlenforschung    #
                  #                Kaiser Wilhelm Platz 1               #
                  #                 D-45470 Muelheim/Ruhr               #
                  #                      Germany                        #
                  #                                                     #
                  #                  All rights reserved                #
                  #                        -***-                        #
                  #######################################################


                         Program Version 4.2.0 -  RELEASE  -


 With contributions from (in alphabetic order):
   Daniel Aravena         : Magnetic Suceptibility
   Michael Atanasov       : Ab Initio Ligand Field Theory (pilot matlab implementation)
   Alexander A. Auer      : GIAO ZORA, VPT2
   Ute Becker             : Parallelization
   Giovanni Bistoni       : ED, misc. LED, open-shell LED, HFLED
   Martin Brehm           : Molecular dynamics
   Dmytro Bykov           : SCF Hessian
   Vijay G. Chilkuri      : MRCI spin determinant printing, contributions to CSF-ICE
   Dipayan Datta          : RHF DLPNO-CCSD density
   Achintya Kumar Dutta   : EOM-CC, STEOM-CC
   Dmitry Ganyushin       : Spin-Orbit,Spin-Spin,Magnetic field MRCI
   Miquel Garcia          : C-PCM Hessian, Gaussian charge scheme
   Yang Guo               : DLPNO-NEVPT2, CIM, IAO-localization
   Andreas Hansen         : Spin unrestricted coupled pair/coupled cluster methods
   Benjamin Helmich-Paris : CASSCF linear response (MC-RPA)
   Lee Huntington         : MR-EOM, pCC
   Robert Izsak           : Overlap fitted RIJCOSX, COSX-SCS-MP3, EOM
   Christian Kollmar      : KDIIS, OOCD, Brueckner-CCSD(T), CCSD density
   Simone Kossmann        : Meta GGA functionals, TD-DFT gradient, OOMP2, MP2 Hessian
   Martin Krupicka        : AUTO-CI
   Lucas Lang             : DCDCAS
   Dagmar Lenk            : GEPOL surface, SMD
   Dimitrios Liakos       : Extrapolation schemes; Compound Job, initial MDCI parallelization
   Dimitrios Manganas     : Further ROCIS development; embedding schemes
   Dimitrios Pantazis     : SARC Basis sets
   Taras Petrenko         : DFT Hessian,TD-DFT gradient, ASA, ECA, R-Raman, ABS, FL, XAS/XES, NRVS
   Peter Pinski           : DLPNO-MP2, DLPNO-MP2 Gradient
   Christoph Reimann      : Effective Core Potentials
   Marius Retegan         : Local ZFS, SOC
   Christoph Riplinger    : Optimizer, TS searches, QM/MM, DLPNO-CCSD(T), (RO)-DLPNO pert. Triples
   Tobias Risthaus        : Range-separated hybrids, TD-DFT gradient, RPA, STAB
   Michael Roemelt        : Original ROCIS implementation
   Masaaki Saitow         : Open-shell DLPNO-CCSD energy and density
   Barbara Sandhoefer     : DKH picture change effects
   Avijit Sen             : IP-ROCIS
   Kantharuban Sivalingam : CASSCF convergence, NEVPT2, FIC-MRCI
   Bernardo de Souza      : ESD, SOC TD-DFT
   Georgi Stoychev        : AutoAux, RI-MP2 NMR
   Willem Van den Heuvel  : Paramagnetic NMR
   Boris Wezisla          : Elementary symmetry handling
   Frank Wennmohs         : Technical directorship


 We gratefully acknowledge several colleagues who have allowed us to
 interface, adapt or use parts of their codes:
   Stefan Grimme, W. Hujo, H. Kruse,             : VdW corrections, initial TS optimization,
                  C. Bannwarth                     DFT functionals, gCP, sTDA/sTD-DF
   Ed Valeev, F. Pavosevic, A. Kumar             : LibInt (2-el integral package), F12 methods
   Garnet Chan, S. Sharma, J. Yang, R. Olivares  : DMRG
   Ulf Ekstrom                                   : XCFun DFT Library
   Mihaly Kallay                                 : mrcc  (arbitrary order and MRCC methods)
   Andreas Klamt, Michael Diedenhofen            : otool_cosmo (COSMO solvation model)
   Jiri Pittner, Ondrej Demel                    : Mk-CCSD
   Frank Weinhold                                : gennbo (NPA and NBO analysis)
   Christopher J. Cramer and Donald G. Truhlar   : smd solvation model
   Lars Goerigk                                  : TD-DFT with DH, B97 family of functionals
   V. Asgeirsson, H. Jonsson                     : NEB implementation
   FAccTs GmbH                                   : IRC, NEB, NEB-TS, Multilevel, MM, QM/MM, CI optimization
   S Lehtola, MJT Oliveira, MAL Marques          : LibXC Library


 Your calculation uses the libint2 library for the computation of 2-el integrals
 For citations please refer to: http://libint.valeyev.net

 Your ORCA version has been built with support for libXC version: 4.2.3
 For citations please refer to: https://tddft.org/programs/libxc/

 This ORCA versions uses:
   CBLAS   interface :  Fast vector & matrix operations
   LAPACKE interface :  Fast linear algebra routines
   SCALAPACK package :  Parallel linear algebra routines


----- Orbital basis set information -----
Your calculation utilizes the basis: cc-pVTZ 
       H, B-Ne : Obtained from the ccRepo (grant-hill.group.shef.ac.uk/ccrepo) Feb. 2017
                 T. H. Dunning, Jr., J. Chem. Phys. 90, 1007 (1989)
            He : Obtained from the ccRepo (grant-hill.group.shef.ac.uk/ccrepo) Feb. 2017
                 D. E. Woon, T. H. Dunning, Jr., J. Chem. Phys. 100, 2975 (1994)
  Li-Be, Na-Mg : Obtained from the ccRepo (grant-hill.group.shef.ac.uk/ccrepo) Feb. 2017
                 B. P. Prascher, D. E. Woon, K. A. Peterson, T. H. Dunning, Jr., A. K. Wilson, Theor. Chem. Acc. 128, 69 (2011)
         Al-Ar : Obtained from the ccRepo (grant-hill.group.shef.ac.uk/ccrepo) Feb. 2017
                 D. E. Woon, T. H. Dunning, Jr., J. Chem. Phys. 98, 1358 (1993)
            Ca : Obtained from the Peterson Research Group Website (tyr0.chem.wsu.edu/~kipeters) Feb. 2017
                 J. Koput, K. A. Peterson, J. Phys. Chem. 106, 9595 (2002)
         Sc-Zn : Obtained from the ccRepo (grant-hill.group.shef.ac.uk/ccrepo) Feb. 2017
                 N. B. Balabanov, K. A. Peterson, J. Chem. Phys. 123, 064107 (2005)
                 N. B. Balabanov, K. A. Peterson, J. Chem. Phys. 125, 074110 (2006)
         Ga-Kr : Obtained from the ccRepo (grant-hill.group.shef.ac.uk/ccrepo) Feb. 2017
                 A. K. Wilson, D. E. Woon, K. A. Peterson, T. H. Dunning, Jr., J. Chem. Phys. 110, 7667 (1999)
             Y : Obtained from the ccRepo (grant-hill.group.shef.ac.uk/ccrepo) Feb. 2017
                 K. A. Peterson, D. Figgen, M. Dolg, H. Stoll, J. Chem. Phys. 126, 124101 (2007)
        Ag, Au : Obtained from the Peterson Research Group Website (tyr0.chem.wsu.edu/~kipeters) Feb. 2017
                 K. A. Peterson, C. Puzzarini, Theor. Chem. Acc. 114, 283 (2005)

----- AuxC basis set information -----
Your calculation utilizes the auxiliary basis: cc-pVTZ/C 
  Obtained from the EMSL Basis Set Exchange (bse.pnl.gov) Feb. 2017
  H-He, B-F, Al-Ar, Ga-Kr : F. Weigend, A. Kohn, C. Hattig, J. Chem. Phys. 116, 3175 (2002)
             Li-Be, Na-Mg : C. Haettig, Phys. Chem. Chem. Phys. 7, 59 (2005)
                       Ne : C. Haettig, Phys. Chem. Chem. Phys. 7, 59 (2005)
                            F. Weigend, A. Kohn, C. Hattig, J. Chem. Phys. 116, 3175 (2002)
                    Sc-Zn : J. G. Hill, J. A. Platts, J. Chem. Phys. 128, 044104 (2008)

================================================================================
                                        WARNINGS
                       Please study these warnings very carefully!
================================================================================


WARNING: No MP2 level density has been requested!
         To caclulate MP2 level properties use
         %mp2 Density relaxed end
         or
         %mp2 Density unrelaxed end

WARNING: Post HF methods need fully converged wavefunctions
  ===> : Setting SCFConvForced true
         You can overwrite this default with %scf ConvForced false 


INFO   : the flag for use of LIBINT has been found!

================================================================================
                                       INPUT FILE
================================================================================
NAME = G2_CONFS/Conf89.orca
|  1> ! ri-mp2 cc-pvtz cc-pvtz/c TightSCF  NoKeepInts
|  2> 
|  3> %scf
|  4>   MaxCore 4096
|  5> end
|  6> *xyz  0  1
|  7>     C       14.6495870   14.6580532   15.6629096
|  8>     C       15.1130625   14.8890023   17.0877347
|  9>     O       16.2365359   15.7178394   17.2620933
| 10>     C       17.4804631   15.8467553   16.7260567
| 11>     O       18.0590766   15.2192322   15.8449790
| 12>     C       17.8169277   16.9786936   17.5951074
| 13>     C       17.1814810   18.1807580   17.5067183
| 14>     C       16.2951887   18.6721710   16.3785938
| 15>     N       17.6618086   19.1754180   18.3785034
| 16>     C       18.7250526   19.0739541   19.2411580
| 17>     S       18.9841022   20.2160164   20.4100739
| 18>     N       19.4512027   17.9048291   19.2083246
| 19>     C       19.0295737   16.7250606   18.4391578
| 20>     C       18.3482960   15.8718709   19.5460031
| 21>     C       18.6462113   14.4768011   19.4963475
| 22>     C       17.9468469   13.5199420   20.2337680
| 23>     C       16.9008548   13.9391335   21.0585358
| 24>     C       16.5727578   15.3023761   21.1248708
| 25>     O       15.5283004   15.6732550   21.9024699
| 26>     C       17.2711220   16.2635074   20.3751936
| 27>     H       13.5639523   14.8299065   15.6167460
| 28>     H       14.8884257   13.5956616   15.4941617
| 29>     H       15.1639036   15.3117732   14.9377757
| 30>     H       14.3391087   15.6053740   17.3662753
| 31>     H       15.0394081   14.0509570   17.8070958
| 32>     H       15.2894966   18.9591377   16.7115195
| 33>     H       16.1927930   17.9130261   15.5890230
| 34>     H       16.7457417   19.5518189   15.8866102
| 35>     H       17.1412429   20.0397680   18.4618006
| 36>     H       20.1013407   17.7925403   19.9710698
| 37>     H       19.6811374   15.8905209   18.1958008
| 38>     H       19.4012707   14.0813343   18.8149136
| 39>     H       18.2045618   12.4651738   20.1361655
| 40>     H       16.3455556   13.2012048   21.6230368
| 41>     H       15.2166340   14.8661275   22.3369177
| 42>     H       16.9339753   17.2930039   20.4064901
| 43> *
| 44> 
| 45>                          ****END OF INPUT****
================================================================================

                       ****************************
                       * Single Point Calculation *
                       ****************************

---------------------------------
CARTESIAN COORDINATES (ANGSTROEM)
---------------------------------
  C     14.649587   14.658053   15.662910
  C     15.113062   14.889002   17.087735
  O     16.236536   15.717839   17.262093
  C     17.480463   15.846755   16.726057
  O     18.059077   15.219232   15.844979
  C     17.816928   16.978694   17.595107
  C     17.181481   18.180758   17.506718
  C     16.295189   18.672171   16.378594
  N     17.661809   19.175418   18.378503
  C     18.725053   19.073954   19.241158
  S     18.984102   20.216016   20.410074
  N     19.451203   17.904829   19.208325
  C     19.029574   16.725061   18.439158
  C     18.348296   15.871871   19.546003
  C     18.646211   14.476801   19.496347
  C     17.946847   13.519942   20.233768
  C     16.900855   13.939133   21.058536
  C     16.572758   15.302376   21.124871
  O     15.528300   15.673255   21.902470
  C     17.271122   16.263507   20.375194
  H     13.563952   14.829906   15.616746
  H     14.888426   13.595662   15.494162
  H     15.163904   15.311773   14.937776
  H     14.339109   15.605374   17.366275
  H     15.039408   14.050957   17.807096
  H     15.289497   18.959138   16.711520
  H     16.192793   17.913026   15.589023
  H     16.745742   19.551819   15.886610
  H     17.141243   20.039768   18.461801
  H     20.101341   17.792540   19.971070
  H     19.681137   15.890521   18.195801
  H     19.401271   14.081334   18.814914
  H     18.204562   12.465174   20.136166
  H     16.345556   13.201205   21.623037
  H     15.216634   14.866127   22.336918
  H     16.933975   17.293004   20.406490

----------------------------
CARTESIAN COORDINATES (A.U.)
----------------------------
  NO LB      ZA    FRAG     MASS         X           Y           Z
   0 C     6.0000    0    12.011   27.683707   27.699706   29.598610
   1 C     6.0000    0    12.011   28.559549   28.136137   32.291139
   2 O     8.0000    0    15.999   30.682606   29.702412   32.620629
   3 C     6.0000    0    12.011   33.033288   29.946028   31.607666
   4 O     8.0000    0    15.999   34.126709   28.760181   29.942671
   5 C     6.0000    0    12.011   33.669114   32.085081   33.249934
   6 C     6.0000    0    12.011   32.468294   34.356654   33.082903
   7 C     6.0000    0    12.011   30.793444   35.285290   30.951057
   8 N     7.0000    0    14.007   33.375981   36.236289   34.730338
   9 C     6.0000    0    12.011   35.385221   36.044550   36.360519
  10 S    16.0000    0    32.060   35.874754   38.202735   38.569450
  11 N     7.0000    0    14.007   36.757446   33.835223   36.298473
  12 C     6.0000    0    12.011   35.960683   31.605784   34.844958
  13 C     6.0000    0    12.011   34.673254   29.993489   36.936593
  14 C     6.0000    0    12.011   35.236233   27.357189   36.842757
  15 C     6.0000    0    12.011   33.914626   25.548988   38.236280
  16 C     6.0000    0    12.011   31.937987   26.341145   39.794865
  17 C     6.0000    0    12.011   31.317974   28.917300   39.920220
  18 O     8.0000    0    15.999   29.344235   29.618160   41.389670
  19 C     6.0000    0    12.011   32.637691   30.733575   38.503536
  20 H     1.0000    0     1.008   25.632155   28.024462   29.511373
  21 H     1.0000    0     1.008   28.135047   25.692077   29.279722
  22 H     1.0000    0     1.008   28.655625   28.935058   28.228305
  23 H     1.0000    0     1.008   27.096988   29.489883   32.817504
  24 H     1.0000    0     1.008   28.420363   26.552461   33.650534
  25 H     1.0000    0     1.008   28.892961   35.827578   31.580195
  26 H     1.0000    0     1.008   30.599944   33.850714   29.458984
  27 H     1.0000    0     1.008   31.644866   36.947583   30.021342
  28 H     1.0000    0     1.008   32.392255   37.869673   34.887747
  29 H     1.0000    0     1.008   37.986029   33.623028   37.739853
  30 H     1.0000    0     1.008   37.191960   30.028733   34.385080
  31 H     1.0000    0     1.008   36.663088   26.609865   35.555034
  32 H     1.0000    0     1.008   34.401636   23.555765   38.051838
  33 H     1.0000    0     1.008   30.888624   24.946662   40.861618
  34 H     1.0000    0     1.008   28.755271   28.092910   42.210657
  35 H     1.0000    0     1.008   32.000576   32.679041   38.562678

--------------------------------
INTERNAL COORDINATES (ANGSTROEM)
--------------------------------
 C      0   0   0     0.000000000000     0.00000000     0.00000000
 C      1   0   0     1.516005801929     0.00000000     0.00000000
 O      2   1   0     1.406969914475   116.76514891     0.00000000
 C      3   2   1     1.360628319826   137.47742342   312.56948314
 O      4   3   2     1.226734175302   131.73632188   359.84059523
 C      4   3   2     1.466199802629    92.83353813   180.00000241
 C      6   4   3     1.362557875206   122.38565434   294.04787408
 C      7   6   4     1.516464857855   127.35157911   345.47861762
 N      7   6   4     1.407150446649   115.10127993   182.39624009
 C      9   7   6     1.372936883269   126.96914853     3.38543083
 S     10   9   7     1.654623030667   120.93873260   192.19142872
 N     10   9   7     1.376671807480   117.14621602     3.77148257
 C     12  10   9     1.470116421735   122.86871457   351.48786109
 C     13  12  10     1.554727785445   101.16208179   262.12777488
 C     14  13  12     1.427388857830   114.84228595   222.02697573
 C     15  14  13     1.395879255187   123.16281128   192.37666442
 C     16  15  14     1.396446529893   118.78506724     0.23650987
 C     17  16  15     1.403737283144   119.63735234     0.25645379
 O     18  17  16     1.353921260340   118.26012084   178.05923725
 C     18  17  16     1.404813808261   121.53518709     0.18814740
 H      1   2   3     1.100121509893   108.50192203   228.75144216
 H      1   2   3     1.101905481483   102.97603312   111.06697495
 H      1   2   3     1.103490179551   112.63536292   350.60783014
 H      2   1   3     1.090769344520    97.07274656   103.27681048
 H      2   1   3     1.106898950982   118.36710843   216.37468748
 H      8   7   6     1.097545447183   113.24128244   123.10271181
 H      8   7   6     1.100094499026   111.38987904     0.83452928
 H      8   7   6     1.104004663239   110.56051053   243.81475329
 H      9   7   6     1.012436661744   118.61561501   189.31982056
 H     12  10   9     1.008498107967   114.61732828   191.53464153
 H     13  12  10     1.086376728158   124.17068816   164.37787003
 H     15  14  13     1.091265708936   121.35383210     7.96361238
 H     16  15  14     1.090173918886   119.83398516   178.51884780
 H     17  16  15     1.082385027061   119.18658321   179.18548767
 H     19  18  17     0.968160956179   106.12247958     3.42462662
 H     20  18  17     1.083748315683   118.67617254   175.66267202

---------------------------
INTERNAL COORDINATES (A.U.)
---------------------------
 C      0   0   0     0.000000000000     0.00000000     0.00000000
 C      1   0   0     2.864835783081     0.00000000     0.00000000
 O      2   1   0     2.658787817024   116.76514891     0.00000000
 C      3   2   1     2.571214894528   137.47742342   312.56948314
 O      4   3   2     2.318191630442   131.73632188   359.84059523
 C      4   3   2     2.770716084579    92.83353813   180.00000241
 C      6   4   3     2.574861225758   122.38565434   294.04787408
 C      7   6   4     2.865703273061   127.35157911   345.47861762
 N      7   6   4     2.659128973391   115.10127993   182.39624009
 C      9   7   6     2.594474708538   126.96914853     3.38543083
 S     10   9   7     3.126784382840   120.93873260   192.19142872
 N     10   9   7     2.601532692428   117.14621602     3.77148257
 C     12  10   9     2.778117422060   122.86871457   351.48786109
 C     13  12  10     2.938009727289   101.16208179   262.12777488
 C     14  13  12     2.697374027910   114.84228595   222.02697573
 C     15  14  13     2.637829508325   123.16281128   192.37666442
 C     16  15  14     2.638901502163   118.78506724     0.23650987
 C     17  16  15     2.652679029117   119.63735234     0.25645379
 O     18  17  16     2.558540388936   118.26012084   178.05923725
 C     18  17  16     2.654713366765   121.53518709     0.18814740
 H      1   2   3     2.078928367734   108.50192203   228.75144216
 H      1   2   3     2.082299585470   102.97603312   111.06697495
 H      1   2   3     2.085294230822   112.63536292   350.60783014
 H      2   1   3     2.061255336419    97.07274656   103.27681048
 H      2   1   3     2.091735875280   118.36710843   216.37468748
 H      8   7   6     2.074060314708   113.24128244   123.10271181
 H      8   7   6     2.078877324592   111.38987904     0.83452928
 H      8   7   6     2.086266464093   110.56051053   243.81475329
 H      9   7   6     1.913228018639   118.61561501   189.31982056
 H     12  10   9     1.905785230635   114.61732828   191.53464153
 H     13  12  10     2.052954494484   124.17068816   164.37787003
 H     15  14  13     2.062193329229   121.35383210     7.96361238
 H     16  15  14     2.060130145038   119.83398516   178.51884780
 H     17  16  15     2.045411272602   119.18658321   179.18548767
 H     19  18  17     1.829559060734   106.12247958     3.42462662
 H     20  18  17     2.047987514739   118.67617254   175.66267202

---------------------
BASIS SET INFORMATION
---------------------
There are 5 groups of distinct atoms

 Group   1 Type C   : 18s5p2d1f contracted to 4s3p2d1f pattern {8811/311/11/1}
 Group   2 Type O   : 18s5p2d1f contracted to 4s3p2d1f pattern {8811/311/11/1}
 Group   3 Type N   : 18s5p2d1f contracted to 4s3p2d1f pattern {8811/311/11/1}
 Group   4 Type S   : 41s16p2d1f contracted to 5s4p2d1f pattern {13131311/7711/11/1}
 Group   5 Type H   : 5s2p1d contracted to 3s2p1d pattern {311/11/1}

Atom   0C    basis set group =>   1
Atom   1C    basis set group =>   1
Atom   2O    basis set group =>   2
Atom   3C    basis set group =>   1
Atom   4O    basis set group =>   2
Atom   5C    basis set group =>   1
Atom   6C    basis set group =>   1
Atom   7C    basis set group =>   1
Atom   8N    basis set group =>   3
Atom   9C    basis set group =>   1
Atom  10S    basis set group =>   4
Atom  11N    basis set group =>   3
Atom  12C    basis set group =>   1
Atom  13C    basis set group =>   1
Atom  14C    basis set group =>   1
Atom  15C    basis set group =>   1
Atom  16C    basis set group =>   1
Atom  17C    basis set group =>   1
Atom  18O    basis set group =>   2
Atom  19C    basis set group =>   1
Atom  20H    basis set group =>   5
Atom  21H    basis set group =>   5
Atom  22H    basis set group =>   5
Atom  23H    basis set group =>   5
Atom  24H    basis set group =>   5
Atom  25H    basis set group =>   5
Atom  26H    basis set group =>   5
Atom  27H    basis set group =>   5
Atom  28H    basis set group =>   5
Atom  29H    basis set group =>   5
Atom  30H    basis set group =>   5
Atom  31H    basis set group =>   5
Atom  32H    basis set group =>   5
Atom  33H    basis set group =>   5
Atom  34H    basis set group =>   5
Atom  35H    basis set group =>   5
---------------------------------
AUXILIARY/C BASIS SET INFORMATION
---------------------------------
There are 5 groups of distinct atoms

 Group   1 Type C   : 8s6p5d3f1g contracted to 8s6p5d3f1g pattern {11111111/111111/11111/111/1}
 Group   2 Type O   : 8s6p5d3f1g contracted to 8s6p5d3f1g pattern {11111111/111111/11111/111/1}
 Group   3 Type N   : 8s6p5d3f1g contracted to 8s6p5d3f1g pattern {11111111/111111/11111/111/1}
 Group   4 Type S   : 10s8p7d5f2g contracted to 10s8p7d5f2g pattern {1111111111/11111111/1111111/11111/11}
 Group   5 Type H   : 4s3p2d1f contracted to 4s3p2d1f pattern {1111/111/11/1}

Atom   0C    basis set group =>   1
Atom   1C    basis set group =>   1
Atom   2O    basis set group =>   2
Atom   3C    basis set group =>   1
Atom   4O    basis set group =>   2
Atom   5C    basis set group =>   1
Atom   6C    basis set group =>   1
Atom   7C    basis set group =>   1
Atom   8N    basis set group =>   3
Atom   9C    basis set group =>   1
Atom  10S    basis set group =>   4
Atom  11N    basis set group =>   3
Atom  12C    basis set group =>   1
Atom  13C    basis set group =>   1
Atom  14C    basis set group =>   1
Atom  15C    basis set group =>   1
Atom  16C    basis set group =>   1
Atom  17C    basis set group =>   1
Atom  18O    basis set group =>   2
Atom  19C    basis set group =>   1
Atom  20H    basis set group =>   5
Atom  21H    basis set group =>   5
Atom  22H    basis set group =>   5
Atom  23H    basis set group =>   5
Atom  24H    basis set group =>   5
Atom  25H    basis set group =>   5
Atom  26H    basis set group =>   5
Atom  27H    basis set group =>   5
Atom  28H    basis set group =>   5
Atom  29H    basis set group =>   5
Atom  30H    basis set group =>   5
Atom  31H    basis set group =>   5
Atom  32H    basis set group =>   5
Atom  33H    basis set group =>   5
Atom  34H    basis set group =>   5
Atom  35H    basis set group =>   5
------------------------------------------------------------------------------
                           ORCA GTO INTEGRAL CALCULATION
------------------------------------------------------------------------------

                         BASIS SET STATISTICS AND STARTUP INFO

 # of primitive gaussian shells          ...  682
 # of primitive gaussian functions       ... 1312
 # of contracted shells                  ...  298
 # of contracted basis functions         ...  828
 Highest angular momentum                ...    3
 Maximum contraction depth               ...   13
 Integral package used                   ... LIBINT
 Integral threshhold            Thresh   ...  2.500e-11
 Primitive cut-off              TCut     ...  2.500e-12


------------------------------ INTEGRAL EVALUATION ----------------------------


 * One electron integrals 
 Pre-screening matrix                    ... done
 Shell pair data                         ... done (   0.014 sec)

-------------------------------------------------------------------------------
                                 ORCA SCF
-------------------------------------------------------------------------------

------------
SCF SETTINGS
------------
Hamiltonian:
 Ab initio Hamiltonian  Method          .... Hartree-Fock(GTOs)


General Settings:
 Integral files         IntName         .... G2_CONFS/Conf89.orca
 Hartree-Fock type      HFTyp           .... RHF
 Total Charge           Charge          ....    0
 Multiplicity           Mult            ....    1
 Number of Electrons    NEL             ....  154
 Basis Dimension        Dim             ....  828
 Nuclear Repulsion      ENuc            ....   1744.3670401666 Eh

Convergence Acceleration:
 DIIS                   CNVDIIS         .... on
   Start iteration      DIISMaxIt       ....    12
   Startup error        DIISStart       ....  0.200000
   # of expansion vecs  DIISMaxEq       ....     5
   Bias factor          DIISBfac        ....   1.050
   Max. coefficient     DIISMaxC        ....  10.000
 Newton-Raphson         CNVNR           .... off
 SOSCF                  CNVSOSCF        .... on
   Start iteration      SOSCFMaxIt      ....   150
   Startup grad/error   SOSCFStart      ....  0.003300
 Level Shifting         CNVShift        .... on
   Level shift para.    LevelShift      ....    0.2500
   Turn off err/grad.   ShiftErr        ....    0.0010
 Zerner damping         CNVZerner       .... off
 Static damping         CNVDamp         .... on
   Fraction old density DampFac         ....    0.7000
   Max. Damping (<1)    DampMax         ....    0.9800
   Min. Damping (>=0)   DampMin         ....    0.0000
   Turn off err/grad.   DampErr         ....    0.1000
 Fernandez-Rico         CNVRico         .... off

SCF Procedure:
 Maximum # iterations   MaxIter         ....   125
 SCF integral mode      SCFMode         .... Direct
   Integral package                     .... LIBINT
 Reset frequency        DirectResetFreq ....    20
 Integral Threshold     Thresh          ....  2.500e-11 Eh
 Primitive CutOff       TCut            ....  2.500e-12 Eh

Convergence Tolerance:
 Convergence Check Mode ConvCheckMode   .... Total+1el-Energy
 Convergence forced     ConvForced      .... 1
 Energy Change          TolE            ....  1.000e-08 Eh
 1-El. energy change                    ....  1.000e-05 Eh
 Orbital Gradient       TolG            ....  1.000e-05
 Orbital Rotation angle TolX            ....  1.000e-05
 DIIS Error             TolErr          ....  5.000e-07


Diagonalization of the overlap matrix:
Smallest eigenvalue                        ... 3.370e-05
Time for diagonalization                   ...    0.118 sec
Threshold for overlap eigenvalues          ... 1.000e-08
Number of eigenvalues below threshold      ... 0
Time for construction of square roots      ...    0.064 sec
Total time needed                          ...    0.185 sec

-------------------
DFT GRID GENERATION
-------------------

General Integration Accuracy     IntAcc      ...  4.340
Radial Grid Type                 RadialGrid  ... Gauss-Chebyshev
Angular Grid (max. acc.)         AngularGrid ... Lebedev-110
Angular grid pruning method      GridPruning ... 3 (G Style)
Weight generation scheme         WeightScheme... Becke
Basis function cutoff            BFCut       ...    1.0000e-11
Integration weight cutoff        WCut        ...    1.0000e-14
Grids for H and He will be reduced by one unit

# of grid points (after initial pruning)     ...  46246 (   0.0 sec)
# of grid points (after weights+screening)   ...  41187 (   0.3 sec)
nearest neighbour list constructed           ...    0.0 sec
Grid point re-assignment to atoms done       ...    0.0 sec
Grid point division into batches done        ...    0.0 sec
Reduced shell lists constructed in    1.0 sec

Total number of grid points                  ...    41187
Total number of batches                      ...      663
Average number of points per batch           ...       62
Average number of grid points per atom       ...     1144
Average number of shells per batch           ...   153.22 (51.41%)
Average number of basis functions per batch  ...   390.18 (47.12%)
Average number of large shells per batch     ...    98.13 (64.05%)
Average number of large basis fcns per batch ...   251.72 (64.51%)
Maximum spatial batch extension              ...  22.06, 21.29, 21.09 au
Average spatial batch extension              ...   3.52,  3.36,  3.45 au

Time for grid setup =    1.319 sec

------------------------------
INITIAL GUESS: MODEL POTENTIAL
------------------------------
Loading Hartree-Fock densities                     ... done
Calculating cut-offs                               ... done
Setting up the integral package                    ... done
Initializing the effective Hamiltonian             ... done
Starting the Coulomb interaction                   ... done (   3.3 sec)
Reading the grid                                   ... done
Mapping shells                                     ... done
Starting the XC term evaluation                    ... done (   1.5 sec)
Transforming the Hamiltonian                       ... done (   0.1 sec)
Diagonalizing the Hamiltonian                      ... done (   0.1 sec)
Back transforming the eigenvectors                 ... done (   0.0 sec)
Now organizing SCF variables                       ... done
                      ------------------
                      INITIAL GUESS DONE (   6.9 sec)
                      ------------------
--------------
SCF ITERATIONS
--------------
ITER       Energy         Delta-E        Max-DP      RMS-DP      [F,P]     Damp
               ***  Starting incremental Fock matrix formation  ***
  0  -1269.8825296694   0.000000000000 0.04938305  0.00044820  0.2914044 0.7000
  1  -1270.1518592855  -0.269329616129 0.03612231  0.00036746  0.1701466 0.7000
                               ***Turning on DIIS***
  2  -1270.3197920929  -0.167932807405 0.02586435  0.00024844  0.1098482 0.7000
  3  -1272.4936902390  -2.173898146108 0.06319809  0.00053693  0.0828538 0.0000
  4  -1270.6251337090   1.868556530009 0.00871641  0.00010134  0.0074029 0.0000
  5  -1270.6915669023  -0.066433193357 0.00415760  0.00005292  0.0039488 0.0000
                      *** Initiating the SOSCF procedure ***
                           *** Shutting down DIIS ***
                      *** Re-Reading the Fockian *** 
                      *** Removing any level shift *** 
ITER      Energy       Delta-E        Grad      Rot      Max-DP    RMS-DP
  6  -1270.66991410   0.0216527987  0.001508  0.001508  0.001798  0.000027
               *** Restarting incremental Fock matrix formation ***
  7  -1270.68421801  -0.0143039037  0.000956  0.002517  0.001431  0.000017
  8  -1270.68426551  -0.0000475043  0.000396  0.002834  0.001591  0.000019
  9  -1270.68428426  -0.0000187493  0.000147  0.000295  0.000401  0.000005
 10  -1270.68428664  -0.0000023764  0.000046  0.000150  0.000148  0.000002
 11  -1270.68428691  -0.0000002741  0.000026  0.000140  0.000076  0.000001
 12  -1270.68428700  -0.0000000885  0.000014  0.000058  0.000041  0.000000
 13  -1270.68428701  -0.0000000121  0.000005  0.000021  0.000012  0.000000
                  ***Gradient check signals convergence***
              ***Rediagonalizing the Fockian in SOSCF/NRSCF***

               *****************************************************
               *                     SUCCESS                       *
               *           SCF CONVERGED AFTER  14 CYCLES          *
               *****************************************************


----------------
TOTAL SCF ENERGY
----------------

Total Energy       :        -1270.68428701 Eh          -34577.07731 eV

Components:
Nuclear Repulsion  :         1744.36704017 Eh           47466.64032 eV
Electronic Energy  :        -3015.05132717 Eh          -82043.71763 eV
One Electron Energy:        -5209.56261912 Eh         -141759.40578 eV
Two Electron Energy:         2194.51129194 Eh           59715.68814 eV

Virial components:
Potential Energy   :        -2539.91166879 Eh          -69114.51022 eV
Kinetic Energy     :         1269.22738179 Eh           34537.43291 eV
Virial Ratio       :            2.00114787


---------------
SCF CONVERGENCE
---------------

  Last Energy change         ...    5.1050e-09  Tolerance :   1.0000e-08
  Last MAX-Density change    ...    3.4456e-06  Tolerance :   1.0000e-07
  Last RMS-Density change    ...    3.8364e-08  Tolerance :   5.0000e-09
  Last Orbital Gradient      ...    2.3263e-06  Tolerance :   1.0000e-05
  Last Orbital Rotation      ...    4.0262e-06  Tolerance :   1.0000e-05

             **** THE GBW FILE WAS UPDATED (G2_CONFS/Conf89.orca.gbw) ****
             **** DENSITY FILE WAS UPDATED (G2_CONFS/Conf89.orca.scfp) ****
             **** ENERGY FILE WAS UPDATED (G2_CONFS/Conf89.orca.en.tmp) ****
             **** THE GBW FILE WAS UPDATED (G2_CONFS/Conf89.orca.gbw) ****
             **** DENSITY FILE WAS UPDATED (G2_CONFS/Conf89.orca.scfp) ****
----------------
ORBITAL ENERGIES
----------------

  NO   OCC          E(Eh)            E(eV) 
   0   2.0000     -91.885416     -2500.3293 
   1   2.0000     -20.599217      -560.5332 
   2   2.0000     -20.595874      -560.4422 
   3   2.0000     -20.564342      -559.5842 
   4   2.0000     -15.616440      -424.9449 
   5   2.0000     -15.609064      -424.7442 
   6   2.0000     -11.404018      -310.3191 
   7   2.0000     -11.382733      -309.7399 
   8   2.0000     -11.317202      -307.9567 
   9   2.0000     -11.314789      -307.8911 
  10   2.0000     -11.313834      -307.8651 
  11   2.0000     -11.296227      -307.3860 
  12   2.0000     -11.263964      -306.5080 
  13   2.0000     -11.263394      -306.4925 
  14   2.0000     -11.260667      -306.4183 
  15   2.0000     -11.252616      -306.1992 
  16   2.0000     -11.240888      -305.8801 
  17   2.0000     -11.238816      -305.8237 
  18   2.0000     -11.235579      -305.7356 
  19   2.0000     -11.234866      -305.7163 
  20   2.0000      -8.890512      -241.9231 
  21   2.0000      -6.572104      -178.8360 
  22   2.0000      -6.570064      -178.7805 
  23   2.0000      -6.569505      -178.7653 
  24   2.0000      -1.458429       -39.6859 
  25   2.0000      -1.418286       -38.5935 
  26   2.0000      -1.371454       -37.3192 
  27   2.0000      -1.332558       -36.2608 
  28   2.0000      -1.235846       -33.6291 
  29   2.0000      -1.161310       -31.6008 
  30   2.0000      -1.127815       -30.6894 
  31   2.0000      -1.060670       -28.8623 
  32   2.0000      -1.044822       -28.4311 
  33   2.0000      -1.016040       -27.6478 
  34   2.0000      -0.997170       -27.1344 
  35   2.0000      -0.983852       -26.7720 
  36   2.0000      -0.929095       -25.2820 
  37   2.0000      -0.910821       -24.7847 
  38   2.0000      -0.846873       -23.0446 
  39   2.0000      -0.836665       -22.7668 
  40   2.0000      -0.830799       -22.6072 
  41   2.0000      -0.811698       -22.0874 
  42   2.0000      -0.744523       -20.2595 
  43   2.0000      -0.727813       -19.8048 
  44   2.0000      -0.724898       -19.7255 
  45   2.0000      -0.700627       -19.0650 
  46   2.0000      -0.695883       -18.9359 
  47   2.0000      -0.691015       -18.8035 
  48   2.0000      -0.679304       -18.4848 
  49   2.0000      -0.663986       -18.0680 
  50   2.0000      -0.653319       -17.7777 
  51   2.0000      -0.647031       -17.6066 
  52   2.0000      -0.633689       -17.2436 
  53   2.0000      -0.615359       -16.7448 
  54   2.0000      -0.606366       -16.5001 
  55   2.0000      -0.599431       -16.3114 
  56   2.0000      -0.596030       -16.2188 
  57   2.0000      -0.591123       -16.0853 
  58   2.0000      -0.573845       -15.6151 
  59   2.0000      -0.571200       -15.5431 
  60   2.0000      -0.555350       -15.1118 
  61   2.0000      -0.551946       -15.0192 
  62   2.0000      -0.545769       -14.8511 
  63   2.0000      -0.542383       -14.7590 
  64   2.0000      -0.516716       -14.0605 
  65   2.0000      -0.509756       -13.8712 
  66   2.0000      -0.502016       -13.6605 
  67   2.0000      -0.493475       -13.4281 
  68   2.0000      -0.473178       -12.8758 
  69   2.0000      -0.466311       -12.6890 
  70   2.0000      -0.456212       -12.4142 
  71   2.0000      -0.443123       -12.0580 
  72   2.0000      -0.348115        -9.4727 
  73   2.0000      -0.334641        -9.1060 
  74   2.0000      -0.325236        -8.8501 
  75   2.0000      -0.320764        -8.7284 
  76   2.0000      -0.303269        -8.2524 
  77   0.0000       0.077581         2.1111 
  78   0.0000       0.114065         3.1039 
  79   0.0000       0.115442         3.1413 
  80   0.0000       0.129302         3.5185 
  81   0.0000       0.136293         3.7087 
  82   0.0000       0.142688         3.8827 
  83   0.0000       0.147499         4.0137 
  84   0.0000       0.156591         4.2611 
  85   0.0000       0.161450         4.3933 
  86   0.0000       0.166396         4.5279 
  87   0.0000       0.173460         4.7201 
  88   0.0000       0.181481         4.9384 
  89   0.0000       0.191192         5.2026 
  90   0.0000       0.193339         5.2610 
  91   0.0000       0.205252         5.5852 
  92   0.0000       0.207975         5.6593 
  93   0.0000       0.214737         5.8433 
  94   0.0000       0.227883         6.2010 
  95   0.0000       0.234731         6.3874 
  96   0.0000       0.240884         6.5548 
  97   0.0000       0.247331         6.7302 
  98   0.0000       0.255656         6.9568 
  99   0.0000       0.268597         7.3089 
 100   0.0000       0.284772         7.7490 
 101   0.0000       0.286688         7.8012 
 102   0.0000       0.301216         8.1965 
 103   0.0000       0.310802         8.4574 
 104   0.0000       0.321472         8.7477 
 105   0.0000       0.333232         9.0677 
 106   0.0000       0.334617         9.1054 
 107   0.0000       0.339540         9.2393 
 108   0.0000       0.355867         9.6836 
 109   0.0000       0.356986         9.7141 
 110   0.0000       0.368528        10.0281 
 111   0.0000       0.380494        10.3538 
 112   0.0000       0.384359        10.4589 
 113   0.0000       0.393902        10.7186 
 114   0.0000       0.396382        10.7861 
 115   0.0000       0.407954        11.1010 
 116   0.0000       0.414332        11.2746 
 117   0.0000       0.421321        11.4647 
 118   0.0000       0.428895        11.6708 
 119   0.0000       0.435875        11.8608 
 120   0.0000       0.437091        11.8938 
 121   0.0000       0.441522        12.0144 
 122   0.0000       0.452878        12.3234 
 123   0.0000       0.459910        12.5148 
 124   0.0000       0.461823        12.5669 
 125   0.0000       0.470890        12.8136 
 126   0.0000       0.475307        12.9338 
 127   0.0000       0.481170        13.0933 
 128   0.0000       0.489337        13.3155 
 129   0.0000       0.496675        13.5152 
 130   0.0000       0.506487        13.7822 
 131   0.0000       0.510907        13.9025 
 132   0.0000       0.513333        13.9685 
 133   0.0000       0.516005        14.0412 
 134   0.0000       0.518155        14.0997 
 135   0.0000       0.527783        14.3617 
 136   0.0000       0.535005        14.5582 
 137   0.0000       0.540744        14.7144 
 138   0.0000       0.542896        14.7730 
 139   0.0000       0.553852        15.0711 
 140   0.0000       0.556717        15.1490 
 141   0.0000       0.559808        15.2332 
 142   0.0000       0.563397        15.3308 
 143   0.0000       0.566331        15.4106 
 144   0.0000       0.575285        15.6543 
 145   0.0000       0.577888        15.7251 
 146   0.0000       0.580351        15.7922 
 147   0.0000       0.590454        16.0671 
 148   0.0000       0.592788        16.1306 
 149   0.0000       0.598892        16.2967 
 150   0.0000       0.604017        16.4361 
 151   0.0000       0.609904        16.5963 
 152   0.0000       0.612177        16.6582 
 153   0.0000       0.614880        16.7317 
 154   0.0000       0.621388        16.9088 
 155   0.0000       0.626846        17.0574 
 156   0.0000       0.631574        17.1860 
 157   0.0000       0.634925        17.2772 
 158   0.0000       0.641105        17.4453 
 159   0.0000       0.643441        17.5089 
 160   0.0000       0.645803        17.5732 
 161   0.0000       0.651396        17.7254 
 162   0.0000       0.658857        17.9284 
 163   0.0000       0.668718        18.1967 
 164   0.0000       0.671237        18.2653 
 165   0.0000       0.673246        18.3200 
 166   0.0000       0.683423        18.5969 
 167   0.0000       0.686174        18.6717 
 168   0.0000       0.688900        18.7459 
 169   0.0000       0.695528        18.9263 
 170   0.0000       0.700351        19.0575 
 171   0.0000       0.703877        19.1535 
 172   0.0000       0.713229        19.4080 
 173   0.0000       0.713945        19.4274 
 174   0.0000       0.720668        19.6104 
 175   0.0000       0.729776        19.8582 
 176   0.0000       0.735281        20.0080 
 177   0.0000       0.743401        20.2290 
 178   0.0000       0.744331        20.2543 
 179   0.0000       0.745224        20.2786 
 180   0.0000       0.763473        20.7752 
 181   0.0000       0.765024        20.8174 
 182   0.0000       0.784235        21.3401 
 183   0.0000       0.794969        21.6322 
 184   0.0000       0.807762        21.9803 
 185   0.0000       0.814672        22.1684 
 186   0.0000       0.816296        22.2125 
 187   0.0000       0.829917        22.5832 
 188   0.0000       0.834250        22.7011 
 189   0.0000       0.837852        22.7991 
 190   0.0000       0.842076        22.9141 
 191   0.0000       0.849958        23.1285 
 192   0.0000       0.858483        23.3605 
 193   0.0000       0.861698        23.4480 
 194   0.0000       0.866377        23.5753 
 195   0.0000       0.881206        23.9788 
 196   0.0000       0.886576        24.1250 
 197   0.0000       0.889945        24.2166 
 198   0.0000       0.898063        24.4375 
 199   0.0000       0.908672        24.7262 
 200   0.0000       0.916030        24.9264 
 201   0.0000       0.931667        25.3520 
 202   0.0000       0.937748        25.5174 
 203   0.0000       0.941550        25.6209 
 204   0.0000       0.951689        25.8968 
 205   0.0000       0.965244        26.2656 
 206   0.0000       0.972033        26.4504 
 207   0.0000       0.978605        26.6292 
 208   0.0000       0.981561        26.7096 
 209   0.0000       0.988693        26.9037 
 210   0.0000       0.990725        26.9590 
 211   0.0000       1.003845        27.3160 
 212   0.0000       1.008323        27.4379 
 213   0.0000       1.009482        27.4694 
 214   0.0000       1.016869        27.6704 
 215   0.0000       1.024946        27.8902 
 216   0.0000       1.027835        27.9688 
 217   0.0000       1.034368        28.1466 
 218   0.0000       1.040252        28.3067 
 219   0.0000       1.044443        28.4207 
 220   0.0000       1.053527        28.6679 
 221   0.0000       1.060541        28.8588 
 222   0.0000       1.067313        29.0431 
 223   0.0000       1.078541        29.3486 
 224   0.0000       1.088170        29.6106 
 225   0.0000       1.095960        29.8226 
 226   0.0000       1.107815        30.1452 
 227   0.0000       1.113972        30.3127 
 228   0.0000       1.120665        30.4948 
 229   0.0000       1.127555        30.6823 
 230   0.0000       1.130817        30.7711 
 231   0.0000       1.133765        30.8513 
 232   0.0000       1.145670        31.1753 
 233   0.0000       1.146020        31.1848 
 234   0.0000       1.154916        31.4269 
 235   0.0000       1.164693        31.6929 
 236   0.0000       1.177618        32.0446 
 237   0.0000       1.182117        32.1670 
 238   0.0000       1.188970        32.3535 
 239   0.0000       1.194905        32.5150 
 240   0.0000       1.209062        32.9002 
 241   0.0000       1.211464        32.9656 
 242   0.0000       1.220673        33.2162 
 243   0.0000       1.223142        33.2834 
 244   0.0000       1.230483        33.4831 
 245   0.0000       1.236757        33.6539 
 246   0.0000       1.244537        33.8656 
 247   0.0000       1.251674        34.0598 
 248   0.0000       1.258406        34.2430 
 249   0.0000       1.260758        34.3070 
 250   0.0000       1.263680        34.3865 
 251   0.0000       1.280299        34.8387 
 252   0.0000       1.282426        34.8966 
 253   0.0000       1.290720        35.1223 
 254   0.0000       1.294456        35.2239 
 255   0.0000       1.303712        35.4758 
 256   0.0000       1.311064        35.6759 
 257   0.0000       1.312812        35.7234 
 258   0.0000       1.321273        35.9537 
 259   0.0000       1.329274        36.1714 
 260   0.0000       1.335784        36.3485 
 261   0.0000       1.345106        36.6022 
 262   0.0000       1.351328        36.7715 
 263   0.0000       1.371976        37.3334 
 264   0.0000       1.384479        37.6736 
 265   0.0000       1.387735        37.7622 
 266   0.0000       1.395267        37.9671 
 267   0.0000       1.404440        38.2167 
 268   0.0000       1.407565        38.3018 
 269   0.0000       1.416915        38.5562 
 270   0.0000       1.430348        38.9218 
 271   0.0000       1.434607        39.0376 
 272   0.0000       1.445471        39.3333 
 273   0.0000       1.451445        39.4958 
 274   0.0000       1.459534        39.7159 
 275   0.0000       1.465080        39.8668 
 276   0.0000       1.470001        40.0007 
 277   0.0000       1.471266        40.0352 
 278   0.0000       1.483004        40.3546 
 279   0.0000       1.487423        40.4748 
 280   0.0000       1.498214        40.7685 
 281   0.0000       1.502847        40.8946 
 282   0.0000       1.508978        41.0614 
 283   0.0000       1.516316        41.2611 
 284   0.0000       1.522991        41.4427 
 285   0.0000       1.526996        41.5517 
 286   0.0000       1.532487        41.7011 
 287   0.0000       1.540123        41.9089 
 288   0.0000       1.543052        41.9886 
 289   0.0000       1.546598        42.0851 
 290   0.0000       1.557851        42.3913 
 291   0.0000       1.561319        42.4856 
 292   0.0000       1.568244        42.6741 
 293   0.0000       1.576378        42.8954 
 294   0.0000       1.581965        43.0475 
 295   0.0000       1.596049        43.4307 
 296   0.0000       1.601481        43.5785 
 297   0.0000       1.610466        43.8230 
 298   0.0000       1.619735        44.0752 
 299   0.0000       1.621122        44.1130 
 300   0.0000       1.633454        44.4485 
 301   0.0000       1.640336        44.6358 
 302   0.0000       1.648822        44.8667 
 303   0.0000       1.654545        45.0225 
 304   0.0000       1.675906        45.6037 
 305   0.0000       1.682254        45.7765 
 306   0.0000       1.696096        46.1531 
 307   0.0000       1.699784        46.2535 
 308   0.0000       1.706333        46.4317 
 309   0.0000       1.710285        46.5392 
 310   0.0000       1.722544        46.8728 
 311   0.0000       1.724897        46.9368 
 312   0.0000       1.729574        47.0641 
 313   0.0000       1.740900        47.3723 
 314   0.0000       1.747698        47.5573 
 315   0.0000       1.764188        48.0060 
 316   0.0000       1.769766        48.1578 
 317   0.0000       1.780503        48.4499 
 318   0.0000       1.792394        48.7735 
 319   0.0000       1.798920        48.9511 
 320   0.0000       1.812870        49.3307 
 321   0.0000       1.816084        49.4182 
 322   0.0000       1.828227        49.7486 
 323   0.0000       1.835796        49.9546 
 324   0.0000       1.849988        50.3407 
 325   0.0000       1.865229        50.7555 
 326   0.0000       1.872352        50.9493 
 327   0.0000       1.896719        51.6123 
 328   0.0000       1.902179        51.7609 
 329   0.0000       1.914146        52.0866 
 330   0.0000       1.936460        52.6938 
 331   0.0000       1.938679        52.7541 
 332   0.0000       1.944238        52.9054 
 333   0.0000       1.957784        53.2740 
 334   0.0000       1.965033        53.4713 
 335   0.0000       1.979978        53.8780 
 336   0.0000       1.984304        53.9956 
 337   0.0000       1.993940        54.2579 
 338   0.0000       2.005499        54.5724 
 339   0.0000       2.006888        54.6102 
 340   0.0000       2.022708        55.0407 
 341   0.0000       2.036524        55.4166 
 342   0.0000       2.066554        56.2338 
 343   0.0000       2.071871        56.3785 
 344   0.0000       2.086179        56.7678 
 345   0.0000       2.094738        57.0007 
 346   0.0000       2.121442        57.7274 
 347   0.0000       2.140939        58.2579 
 348   0.0000       2.149698        58.4963 
 349   0.0000       2.163511        58.8721 
 350   0.0000       2.168759        59.0149 
 351   0.0000       2.182753        59.3957 
 352   0.0000       2.218559        60.3701 
 353   0.0000       2.224913        60.5430 
 354   0.0000       2.236762        60.8654 
 355   0.0000       2.259716        61.4900 
 356   0.0000       2.280717        62.0615 
 357   0.0000       2.288301        62.2678 
 358   0.0000       2.297875        62.5283 
 359   0.0000       2.301391        62.6240 
 360   0.0000       2.308117        62.8071 
 361   0.0000       2.325981        63.2932 
 362   0.0000       2.332400        63.4678 
 363   0.0000       2.338882        63.6442 
 364   0.0000       2.367228        64.4156 
 365   0.0000       2.369624        64.4807 
 366   0.0000       2.388944        65.0065 
 367   0.0000       2.396478        65.2115 
 368   0.0000       2.412030        65.6347 
 369   0.0000       2.433472        66.2181 
 370   0.0000       2.446307        66.5674 
 371   0.0000       2.457194        66.8636 
 372   0.0000       2.460975        66.9665 
 373   0.0000       2.471157        67.2436 
 374   0.0000       2.482359        67.5484 
 375   0.0000       2.505689        68.1833 
 376   0.0000       2.521671        68.6181 
 377   0.0000       2.533312        68.9349 
 378   0.0000       2.538597        69.0787 
 379   0.0000       2.557236        69.5859 
 380   0.0000       2.571716        69.9800 
 381   0.0000       2.576076        70.0986 
 382   0.0000       2.592279        70.5395 
 383   0.0000       2.607989        70.9670 
 384   0.0000       2.612541        71.0909 
 385   0.0000       2.629890        71.5629 
 386   0.0000       2.637608        71.7730 
 387   0.0000       2.645411        71.9853 
 388   0.0000       2.650152        72.1143 
 389   0.0000       2.662963        72.4629 
 390   0.0000       2.672464        72.7214 
 391   0.0000       2.701253        73.5048 
 392   0.0000       2.713345        73.8339 
 393   0.0000       2.716973        73.9326 
 394   0.0000       2.721500        74.0558 
 395   0.0000       2.723680        74.1151 
 396   0.0000       2.740599        74.5755 
 397   0.0000       2.744373        74.6782 
 398   0.0000       2.753468        74.9257 
 399   0.0000       2.770810        75.3976 
 400   0.0000       2.780709        75.6669 
 401   0.0000       2.788498        75.8789 
 402   0.0000       2.796279        76.0906 
 403   0.0000       2.799267        76.1719 
 404   0.0000       2.819311        76.7173 
 405   0.0000       2.823569        76.8332 
 406   0.0000       2.831599        77.0517 
 407   0.0000       2.836016        77.1719 
 408   0.0000       2.847747        77.4911 
 409   0.0000       2.872082        78.1533 
 410   0.0000       2.894981        78.7764 
 411   0.0000       2.904766        79.0427 
 412   0.0000       2.908970        79.1571 
 413   0.0000       2.915521        79.3353 
 414   0.0000       2.928330        79.6839 
 415   0.0000       2.933186        79.8161 
 416   0.0000       2.941993        80.0557 
 417   0.0000       2.944138        80.1141 
 418   0.0000       2.960375        80.5559 
 419   0.0000       2.963877        80.6512 
 420   0.0000       2.974907        80.9513 
 421   0.0000       2.983376        81.1818 
 422   0.0000       2.993694        81.4625 
 423   0.0000       3.002458        81.7010 
 424   0.0000       3.009066        81.8808 
 425   0.0000       3.013820        82.0102 
 426   0.0000       3.020084        82.1807 
 427   0.0000       3.021077        82.2077 
 428   0.0000       3.032372        82.5150 
 429   0.0000       3.045401        82.8696 
 430   0.0000       3.053657        83.0942 
 431   0.0000       3.056253        83.1649 
 432   0.0000       3.059931        83.2650 
 433   0.0000       3.075130        83.6785 
 434   0.0000       3.081672        83.8566 
 435   0.0000       3.085872        83.9709 
 436   0.0000       3.088585        84.0447 
 437   0.0000       3.094998        84.2192 
 438   0.0000       3.099840        84.3509 
 439   0.0000       3.106508        84.5324 
 440   0.0000       3.114352        84.7458 
 441   0.0000       3.121968        84.9531 
 442   0.0000       3.126613        85.0795 
 443   0.0000       3.132720        85.2456 
 444   0.0000       3.140984        85.4705 
 445   0.0000       3.151198        85.7485 
 446   0.0000       3.160017        85.9884 
 447   0.0000       3.164699        86.1158 
 448   0.0000       3.169901        86.2574 
 449   0.0000       3.180960        86.5583 
 450   0.0000       3.197350        87.0043 
 451   0.0000       3.201438        87.1156 
 452   0.0000       3.207674        87.2852 
 453   0.0000       3.222736        87.6951 
 454   0.0000       3.227294        87.8191 
 455   0.0000       3.233466        87.9871 
 456   0.0000       3.241579        88.2079 
 457   0.0000       3.250773        88.4580 
 458   0.0000       3.256238        88.6067 
 459   0.0000       3.257910        88.6522 
 460   0.0000       3.261529        88.7507 
 461   0.0000       3.273920        89.0879 
 462   0.0000       3.279556        89.2412 
 463   0.0000       3.286649        89.4343 
 464   0.0000       3.290827        89.5480 
 465   0.0000       3.300921        89.8226 
 466   0.0000       3.306477        89.9738 
 467   0.0000       3.315944        90.2314 
 468   0.0000       3.317217        90.2661 
 469   0.0000       3.327418        90.5437 
 470   0.0000       3.332742        90.6885 
 471   0.0000       3.341587        90.9292 
 472   0.0000       3.347548        91.0914 
 473   0.0000       3.351545        91.2002 
 474   0.0000       3.358819        91.3981 
 475   0.0000       3.364580        91.5549 
 476   0.0000       3.374478        91.8242 
 477   0.0000       3.378798        91.9418 
 478   0.0000       3.386268        92.1450 
 479   0.0000       3.388978        92.2188 
 480   0.0000       3.389846        92.2424 
 481   0.0000       3.395089        92.3851 
 482   0.0000       3.406562        92.6973 
 483   0.0000       3.411891        92.8423 
 484   0.0000       3.414708        92.9189 
 485   0.0000       3.416168        92.9587 
 486   0.0000       3.421367        93.1001 
 487   0.0000       3.436687        93.5170 
 488   0.0000       3.442074        93.6636 
 489   0.0000       3.448610        93.8415 
 490   0.0000       3.458509        94.1108 
 491   0.0000       3.464506        94.2740 
 492   0.0000       3.472854        94.5012 
 493   0.0000       3.476455        94.5992 
 494   0.0000       3.479268        94.6757 
 495   0.0000       3.488045        94.9145 
 496   0.0000       3.495971        95.1302 
 497   0.0000       3.500080        95.2420 
 498   0.0000       3.510241        95.5185 
 499   0.0000       3.511104        95.5420 
 500   0.0000       3.523075        95.8677 
 501   0.0000       3.525245        95.9268 
 502   0.0000       3.541467        96.3682 
 503   0.0000       3.544590        96.4532 
 504   0.0000       3.553240        96.6886 
 505   0.0000       3.570757        97.1652 
 506   0.0000       3.574863        97.2770 
 507   0.0000       3.578652        97.3801 
 508   0.0000       3.590049        97.6902 
 509   0.0000       3.594233        97.8041 
 510   0.0000       3.603702        98.0617 
 511   0.0000       3.608852        98.2019 
 512   0.0000       3.614984        98.3687 
 513   0.0000       3.618942        98.4764 
 514   0.0000       3.632449        98.8440 
 515   0.0000       3.633802        98.8808 
 516   0.0000       3.643746        99.1514 
 517   0.0000       3.647875        99.2637 
 518   0.0000       3.657293        99.5200 
 519   0.0000       3.662035        99.6490 
 520   0.0000       3.665038        99.7307 
 521   0.0000       3.672299        99.9283 
 522   0.0000       3.676203       100.0346 
 523   0.0000       3.682539       100.2070 
 524   0.0000       3.687872       100.3521 
 525   0.0000       3.689873       100.4066 
 526   0.0000       3.696981       100.6000 
 527   0.0000       3.708081       100.9020 
 528   0.0000       3.711751       101.0019 
 529   0.0000       3.716428       101.1292 
 530   0.0000       3.723738       101.3281 
 531   0.0000       3.729751       101.4917 
 532   0.0000       3.730622       101.5154 
 533   0.0000       3.734091       101.6098 
 534   0.0000       3.741916       101.8227 
 535   0.0000       3.748611       102.0049 
 536   0.0000       3.759377       102.2979 
 537   0.0000       3.766771       102.4990 
 538   0.0000       3.776330       102.7592 
 539   0.0000       3.781586       102.9022 
 540   0.0000       3.791284       103.1661 
 541   0.0000       3.794871       103.2637 
 542   0.0000       3.799502       103.3897 
 543   0.0000       3.807604       103.6102 
 544   0.0000       3.820157       103.9518 
 545   0.0000       3.823929       104.0544 
 546   0.0000       3.827106       104.1408 
 547   0.0000       3.838461       104.4498 
 548   0.0000       3.849007       104.7368 
 549   0.0000       3.849842       104.7595 
 550   0.0000       3.857107       104.9572 
 551   0.0000       3.870215       105.3139 
 552   0.0000       3.880616       105.5969 
 553   0.0000       3.891550       105.8944 
 554   0.0000       3.905549       106.2754 
 555   0.0000       3.915613       106.5493 
 556   0.0000       3.921316       106.7044 
 557   0.0000       3.931591       106.9840 
 558   0.0000       3.933488       107.0356 
 559   0.0000       3.947084       107.4056 
 560   0.0000       3.949169       107.4624 
 561   0.0000       3.967578       107.9633 
 562   0.0000       3.968706       107.9940 
 563   0.0000       3.981400       108.3394 
 564   0.0000       3.984747       108.4305 
 565   0.0000       3.991802       108.6225 
 566   0.0000       3.999984       108.8451 
 567   0.0000       4.007821       109.0584 
 568   0.0000       4.020337       109.3989 
 569   0.0000       4.025766       109.5466 
 570   0.0000       4.032039       109.7173 
 571   0.0000       4.035453       109.8103 
 572   0.0000       4.048429       110.1634 
 573   0.0000       4.054549       110.3299 
 574   0.0000       4.063022       110.5605 
 575   0.0000       4.072349       110.8143 
 576   0.0000       4.078635       110.9853 
 577   0.0000       4.083636       111.1214 
 578   0.0000       4.096072       111.4598 
 579   0.0000       4.104763       111.6963 
 580   0.0000       4.110585       111.8547 
 581   0.0000       4.116080       112.0042 
 582   0.0000       4.117408       112.0404 
 583   0.0000       4.125935       112.2724 
 584   0.0000       4.133426       112.4762 
 585   0.0000       4.145341       112.8005 
 586   0.0000       4.149021       112.9006 
 587   0.0000       4.168032       113.4179 
 588   0.0000       4.174368       113.5903 
 589   0.0000       4.175003       113.6076 
 590   0.0000       4.184302       113.8607 
 591   0.0000       4.195637       114.1691 
 592   0.0000       4.198334       114.2425 
 593   0.0000       4.204355       114.4063 
 594   0.0000       4.213101       114.6443 
 595   0.0000       4.221479       114.8723 
 596   0.0000       4.227785       115.0439 
 597   0.0000       4.236302       115.2756 
 598   0.0000       4.249668       115.6393 
 599   0.0000       4.254264       115.7644 
 600   0.0000       4.262600       115.9913 
 601   0.0000       4.264038       116.0304 
 602   0.0000       4.279108       116.4405 
 603   0.0000       4.286422       116.6395 
 604   0.0000       4.296899       116.9246 
 605   0.0000       4.307819       117.2217 
 606   0.0000       4.311131       117.3118 
 607   0.0000       4.314604       117.4063 
 608   0.0000       4.325139       117.6930 
 609   0.0000       4.328453       117.7832 
 610   0.0000       4.337512       118.0297 
 611   0.0000       4.341452       118.1369 
 612   0.0000       4.350013       118.3699 
 613   0.0000       4.355315       118.5141 
 614   0.0000       4.361741       118.6890 
 615   0.0000       4.387197       119.3817 
 616   0.0000       4.391520       119.4993 
 617   0.0000       4.393647       119.5572 
 618   0.0000       4.399649       119.7205 
 619   0.0000       4.404739       119.8591 
 620   0.0000       4.411323       120.0382 
 621   0.0000       4.415993       120.1653 
 622   0.0000       4.424602       120.3995 
 623   0.0000       4.440771       120.8395 
 624   0.0000       4.448282       121.0439 
 625   0.0000       4.449478       121.0765 
 626   0.0000       4.458766       121.3292 
 627   0.0000       4.473560       121.7318 
 628   0.0000       4.486553       122.0853 
 629   0.0000       4.492694       122.2524 
 630   0.0000       4.499015       122.4244 
 631   0.0000       4.511339       122.7598 
 632   0.0000       4.528223       123.2192 
 633   0.0000       4.536930       123.4561 
 634   0.0000       4.538165       123.4898 
 635   0.0000       4.544916       123.6735 
 636   0.0000       4.548919       123.7824 
 637   0.0000       4.557496       124.0158 
 638   0.0000       4.561849       124.1342 
 639   0.0000       4.575704       124.5112 
 640   0.0000       4.585394       124.7749 
 641   0.0000       4.594678       125.0275 
 642   0.0000       4.601901       125.2241 
 643   0.0000       4.609008       125.4175 
 644   0.0000       4.617073       125.6370 
 645   0.0000       4.620872       125.7403 
 646   0.0000       4.637672       126.1975 
 647   0.0000       4.645104       126.3997 
 648   0.0000       4.651731       126.5800 
 649   0.0000       4.663956       126.9127 
 650   0.0000       4.674408       127.1971 
 651   0.0000       4.679680       127.3406 
 652   0.0000       4.688989       127.5939 
 653   0.0000       4.695906       127.7821 
 654   0.0000       4.698017       127.8395 
 655   0.0000       4.714028       128.2752 
 656   0.0000       4.718007       128.3835 
 657   0.0000       4.732961       128.7904 
 658   0.0000       4.744477       129.1038 
 659   0.0000       4.759042       129.5001 
 660   0.0000       4.770690       129.8171 
 661   0.0000       4.790127       130.3460 
 662   0.0000       4.804104       130.7263 
 663   0.0000       4.813698       130.9874 
 664   0.0000       4.817851       131.1004 
 665   0.0000       4.829918       131.4287 
 666   0.0000       4.845929       131.8644 
 667   0.0000       4.873962       132.6272 
 668   0.0000       4.882924       132.8711 
 669   0.0000       4.895892       133.2240 
 670   0.0000       4.916757       133.7918 
 671   0.0000       4.938181       134.3747 
 672   0.0000       4.952616       134.7675 
 673   0.0000       4.979856       135.5088 
 674   0.0000       4.982440       135.5791 
 675   0.0000       4.997295       135.9833 
 676   0.0000       5.011963       136.3825 
 677   0.0000       5.025495       136.7507 
 678   0.0000       5.036503       137.0502 
 679   0.0000       5.041217       137.1785 
 680   0.0000       5.047008       137.3361 
 681   0.0000       5.061775       137.7379 
 682   0.0000       5.078297       138.1875 
 683   0.0000       5.089915       138.5036 
 684   0.0000       5.098569       138.7391 
 685   0.0000       5.116505       139.2272 
 686   0.0000       5.118108       139.2708 
 687   0.0000       5.143280       139.9558 
 688   0.0000       5.155105       140.2776 
 689   0.0000       5.159063       140.3852 
 690   0.0000       5.168618       140.6452 
 691   0.0000       5.181290       140.9901 
 692   0.0000       5.198255       141.4517 
 693   0.0000       5.217311       141.9702 
 694   0.0000       5.218253       141.9959 
 695   0.0000       5.230248       142.3223 
 696   0.0000       5.238292       142.5412 
 697   0.0000       5.252230       142.9205 
 698   0.0000       5.254640       142.9860 
 699   0.0000       5.263697       143.2325 
 700   0.0000       5.293588       144.0459 
 701   0.0000       5.303534       144.3165 
 702   0.0000       5.313939       144.5996 
 703   0.0000       5.317768       144.7038 
 704   0.0000       5.331216       145.0698 
 705   0.0000       5.347058       145.5009 
 706   0.0000       5.358329       145.8075 
 707   0.0000       5.373278       146.2143 
 708   0.0000       5.384209       146.5118 
 709   0.0000       5.401317       146.9773 
 710   0.0000       5.409525       147.2007 
 711   0.0000       5.425492       147.6351 
 712   0.0000       5.455904       148.4627 
 713   0.0000       5.457880       148.5165 
 714   0.0000       5.472072       148.9026 
 715   0.0000       5.477244       149.0434 
 716   0.0000       5.487190       149.3140 
 717   0.0000       5.510387       149.9452 
 718   0.0000       5.518953       150.1783 
 719   0.0000       5.528460       150.4371 
 720   0.0000       5.537047       150.6707 
 721   0.0000       5.544819       150.8822 
 722   0.0000       5.553561       151.1201 
 723   0.0000       5.555452       151.1715 
 724   0.0000       5.566897       151.4830 
 725   0.0000       5.579278       151.8199 
 726   0.0000       5.601299       152.4191 
 727   0.0000       5.610355       152.6655 
 728   0.0000       5.612301       152.7185 
 729   0.0000       5.618205       152.8791 
 730   0.0000       5.627161       153.1228 
 731   0.0000       5.641258       153.5064 
 732   0.0000       5.648905       153.7145 
 733   0.0000       5.676784       154.4732 
 734   0.0000       5.678637       154.5236 
 735   0.0000       5.694002       154.9417 
 736   0.0000       5.703590       155.2026 
 737   0.0000       5.724093       155.7605 
 738   0.0000       5.731873       155.9722 
 739   0.0000       5.749349       156.4477 
 740   0.0000       5.755922       156.6266 
 741   0.0000       5.788370       157.5096 
 742   0.0000       5.796994       157.7442 
 743   0.0000       5.825226       158.5124 
 744   0.0000       5.830824       158.6648 
 745   0.0000       5.841908       158.9664 
 746   0.0000       5.880342       160.0122 
 747   0.0000       5.894785       160.4053 
 748   0.0000       5.923939       161.1986 
 749   0.0000       5.933777       161.4663 
 750   0.0000       5.940170       161.6402 
 751   0.0000       5.956784       162.0923 
 752   0.0000       5.984746       162.8532 
 753   0.0000       5.997498       163.2002 
 754   0.0000       6.013320       163.6308 
 755   0.0000       6.033814       164.1884 
 756   0.0000       6.061874       164.9520 
 757   0.0000       6.075883       165.3332 
 758   0.0000       6.098672       165.9533 
 759   0.0000       6.108989       166.2340 
 760   0.0000       6.147813       167.2905 
 761   0.0000       6.186048       168.3309 
 762   0.0000       6.197907       168.6536 
 763   0.0000       6.205175       168.8514 
 764   0.0000       6.223021       169.3370 
 765   0.0000       6.237782       169.7387 
 766   0.0000       6.297839       171.3729 
 767   0.0000       6.299240       171.4110 
 768   0.0000       6.311301       171.7392 
 769   0.0000       6.338891       172.4900 
 770   0.0000       6.358345       173.0194 
 771   0.0000       6.372239       173.3974 
 772   0.0000       6.387693       173.8180 
 773   0.0000       6.438021       175.1875 
 774   0.0000       6.453708       175.6143 
 775   0.0000       6.504130       176.9864 
 776   0.0000       6.565711       178.6621 
 777   0.0000       6.583798       179.1543 
 778   0.0000       6.603458       179.6892 
 779   0.0000       6.649520       180.9426 
 780   0.0000       6.674296       181.6168 
 781   0.0000       6.733344       183.2236 
 782   0.0000       6.797677       184.9742 
 783   0.0000       6.845427       186.2735 
 784   0.0000       6.869575       186.9306 
 785   0.0000       6.880119       187.2176 
 786   0.0000       6.912740       188.1052 
 787   0.0000       6.920441       188.3148 
 788   0.0000       6.950673       189.1374 
 789   0.0000       7.009252       190.7314 
 790   0.0000       7.034068       191.4067 
 791   0.0000       7.085149       192.7967 
 792   0.0000       7.093267       193.0176 
 793   0.0000       7.121897       193.7967 
 794   0.0000       7.145824       194.4477 
 795   0.0000       7.204329       196.0398 
 796   0.0000       7.242342       197.0742 
 797   0.0000       7.283153       198.1847 
 798   0.0000       7.342833       199.8087 
 799   0.0000       7.365776       200.4330 
 800   0.0000       7.416840       201.8225 
 801   0.0000       7.540969       205.2002 
 802   0.0000       7.591479       206.5746 
 803   0.0000       7.599131       206.7829 
 804   0.0000       7.654094       208.2785 
 805   0.0000       7.826923       212.9814 
 806   0.0000       7.933294       215.8759 
 807   0.0000       7.958949       216.5740 
 808   0.0000       8.093967       220.2480 
 809   0.0000       9.505500       258.6578 
 810   0.0000       9.921073       269.9661 
 811   0.0000      10.919766       297.1419 
 812   0.0000      11.518126       313.4242 
 813   0.0000      12.109601       329.5190 
 814   0.0000      12.585161       342.4596 
 815   0.0000      12.715251       345.9996 
 816   0.0000      12.871684       350.2563 
 817   0.0000      13.071992       355.7070 
 818   0.0000      13.314916       362.3173 
 819   0.0000      13.488149       367.0312 
 820   0.0000      13.629930       370.8892 
 821   0.0000      13.800190       375.5222 
 822   0.0000      13.861611       377.1936 
 823   0.0000      14.158648       385.2764 
 824   0.0000      14.249474       387.7479 
 825   0.0000      14.436880       392.8475 
 826   0.0000      14.663764       399.0213 
 827   0.0000      15.871553       431.8869 

                    ********************************
                    * MULLIKEN POPULATION ANALYSIS *
                    ********************************

-----------------------
MULLIKEN ATOMIC CHARGES
-----------------------
   0 C :   -0.284047
   1 C :    0.036142
   2 O :   -0.308516
   3 C :    0.382930
   4 O :   -0.408550
   5 C :   -0.051298
   6 C :    0.113664
   7 C :   -0.309614
   8 N :   -0.149412
   9 C :    0.196659
  10 S :   -0.436515
  11 N :   -0.191094
  12 C :    0.040815
  13 C :    0.059103
  14 C :   -0.245095
  15 C :   -0.124768
  16 C :   -0.288629
  17 C :    0.310683
  18 O :   -0.355117
  19 C :   -0.238856
  20 H :    0.097883
  21 H :    0.097647
  22 H :    0.109825
  23 H :    0.081018
  24 H :    0.107590
  25 H :    0.117913
  26 H :    0.115606
  27 H :    0.128377
  28 H :    0.189314
  29 H :    0.179044
  30 H :    0.190501
  31 H :    0.138082
  32 H :    0.160767
  33 H :    0.130682
  34 H :    0.240970
  35 H :    0.166298
Sum of atomic charges:   -0.0000000

--------------------------------
MULLIKEN REDUCED ORBITAL CHARGES
--------------------------------
  0 C s       :     3.265742  s :     3.265742
      pz      :     0.910101  p :     2.939182
      px      :     0.995428
      py      :     1.033652
      dz2     :     0.019042  d :     0.074379
      dxz     :     0.012830
      dyz     :     0.017319
      dx2y2   :     0.019163
      dxy     :     0.006026
      f0      :     0.000872  f :     0.004744
      f+1     :     0.001250
      f-1     :     0.000939
      f+2     :     0.000252
      f-2     :     0.000277
      f+3     :     0.000732
      f-3     :     0.000422
  1 C s       :     3.179737  s :     3.179737
      pz      :     0.955569  p :     2.621917
      px      :     0.747226
      py      :     0.919121
      dz2     :     0.025639  d :     0.150022
      dxz     :     0.029005
      dyz     :     0.032723
      dx2y2   :     0.029424
      dxy     :     0.033231
      f0      :     0.002187  f :     0.012182
      f+1     :     0.001446
      f-1     :     0.001435
      f+2     :     0.000751
      f-2     :     0.001678
      f+3     :     0.002428
      f-3     :     0.002257
  2 O s       :     3.705144  s :     3.705144
      pz      :     1.714650  p :     4.565028
      px      :     1.214402
      py      :     1.635976
      dz2     :     0.004440  d :     0.035725
      dxz     :     0.009722
      dyz     :     0.003372
      dx2y2   :     0.008175
      dxy     :     0.010016
      f0      :     0.000260  f :     0.002619
      f+1     :     0.000415
      f-1     :     0.000103
      f+2     :     0.000388
      f-2     :     0.000269
      f+3     :     0.000577
      f-3     :     0.000607
  3 C s       :     3.094664  s :     3.094664
      pz      :     0.727597  p :     2.204037
      px      :     0.682927
      py      :     0.793513
      dz2     :     0.075212  d :     0.290661
      dxz     :     0.058211
      dyz     :     0.040530
      dx2y2   :     0.063408
      dxy     :     0.053299
      f0      :     0.002999  f :     0.027707
      f+1     :     0.004532
      f-1     :     0.003081
      f+2     :     0.006286
      f-2     :     0.003515
      f+3     :     0.003293
      f-3     :     0.004001
  4 O s       :     3.773767  s :     3.773767
      pz      :     1.394424  p :     4.597436
      px      :     1.652498
      py      :     1.550513
      dz2     :     0.010470  d :     0.035054
      dxz     :     0.007601
      dyz     :     0.007646
      dx2y2   :     0.003228
      dxy     :     0.006109
      f0      :     0.000341  f :     0.002294
      f+1     :     0.000395
      f-1     :     0.000383
      f+2     :     0.000263
      f-2     :     0.000567
      f+3     :     0.000185
      f-3     :     0.000161
  5 C s       :     3.136178  s :     3.136178
      pz      :     1.003059  p :     2.790583
      px      :     0.902008
      py      :     0.885516
      dz2     :     0.013798  d :     0.112065
      dxz     :     0.014801
      dyz     :     0.029226
      dx2y2   :     0.032025
      dxy     :     0.022215
      f0      :     0.001196  f :     0.012473
      f+1     :     0.001336
      f-1     :     0.001365
      f+2     :     0.002159
      f-2     :     0.001944
      f+3     :     0.001620
      f-3     :     0.002854
  6 C s       :     3.191178  s :     3.191178
      pz      :     0.850463  p :     2.516908
      px      :     0.894673
      py      :     0.771772
      dz2     :     0.031377  d :     0.164355
      dxz     :     0.019367
      dyz     :     0.046688
      dx2y2   :     0.032328
      dxy     :     0.034595
      f0      :     0.001637  f :     0.013895
      f+1     :     0.001514
      f-1     :     0.002360
      f+2     :     0.001934
      f-2     :     0.002697
      f+3     :     0.001697
      f-3     :     0.002056
  7 C s       :     3.293099  s :     3.293099
      pz      :     0.932641  p :     2.936225
      px      :     0.971920
      py      :     1.031664
      dz2     :     0.013410  d :     0.075575
      dxz     :     0.014016
      dyz     :     0.020517
      dx2y2   :     0.015378
      dxy     :     0.012253
      f0      :     0.000292  f :     0.004715
      f+1     :     0.000859
      f-1     :     0.000646
      f+2     :     0.001205
      f-2     :     0.001002
      f+3     :     0.000373
      f-3     :     0.000338
  8 N s       :     3.348826  s :     3.348826
      pz      :     1.354408  p :     3.736432
      px      :     1.214738
      py      :     1.167285
      dz2     :     0.012546  d :     0.059237
      dxz     :     0.010495
      dyz     :     0.010282
      dx2y2   :     0.010519
      dxy     :     0.015395
      f0      :     0.000586  f :     0.004917
      f+1     :     0.000939
      f-1     :     0.000524
      f+2     :     0.001016
      f-2     :     0.000966
      f+3     :     0.000532
      f-3     :     0.000353
  9 C s       :     3.168828  s :     3.168828
      pz      :     0.765425  p :     2.354612
      px      :     0.726993
      py      :     0.862194
      dz2     :     0.060717  d :     0.262318
      dxz     :     0.045958
      dyz     :     0.039405
      dx2y2   :     0.063085
      dxy     :     0.053153
      f0      :     0.002262  f :     0.017583
      f+1     :     0.002909
      f-1     :     0.001799
      f+2     :     0.002198
      f-2     :     0.002925
      f+3     :     0.002445
      f-3     :     0.003045
 10 S s       :     5.860500  s :     5.860500
      pz      :     3.288699  p :    10.482203
      px      :     3.784952
      py      :     3.408553
      dz2     :     0.017410  d :     0.083647
      dxz     :     0.005778
      dyz     :     0.039805
      dx2y2   :     0.011400
      dxy     :     0.009254
      f0      :     0.001090  f :     0.010164
      f+1     :     0.000293
      f-1     :     0.003484
      f+2     :     0.002638
      f-2     :     0.001423
      f+3     :     0.000696
      f-3     :     0.000540
 11 N s       :     3.363987  s :     3.363987
      pz      :     1.323116  p :     3.763648
      px      :     1.352586
      py      :     1.087945
      dz2     :     0.008101  d :     0.059018
      dxz     :     0.009197
      dyz     :     0.013881
      dx2y2   :     0.013676
      dxy     :     0.014162
      f0      :     0.000379  f :     0.004442
      f+1     :     0.000556
      f-1     :     0.000583
      f+2     :     0.000594
      f-2     :     0.000772
      f+3     :     0.000831
      f-3     :     0.000727
 12 C s       :     3.133819  s :     3.133819
      pz      :     0.885153  p :     2.637232
      px      :     0.910265
      py      :     0.841815
      dz2     :     0.031934  d :     0.176917
      dxz     :     0.026966
      dyz     :     0.043674
      dx2y2   :     0.028523
      dxy     :     0.045820
      f0      :     0.001029  f :     0.011217
      f+1     :     0.001229
      f-1     :     0.002024
      f+2     :     0.002183
      f-2     :     0.002083
      f+3     :     0.001561
      f-3     :     0.001110
 13 C s       :     3.130780  s :     3.130780
      pz      :     0.860558  p :     2.690219
      px      :     0.903151
      py      :     0.926510
      dz2     :     0.022677  d :     0.108978
      dxz     :     0.009888
      dyz     :     0.029226
      dx2y2   :     0.021982
      dxy     :     0.025205
      f0      :     0.001024  f :     0.010920
      f+1     :     0.001867
      f-1     :     0.001216
[...]
      f-2     :     0.005447
      f+3     :     0.007325
      f-3     :     0.008788
 15 C s       :     2.702933  s :     2.702933
      pz      :     0.894730  p :     2.793854
      px      :     0.924021
      py      :     0.975103
      dz2     :     0.094458  d :     0.426609
      dxz     :     0.066661
      dyz     :     0.063133
      dx2y2   :     0.117786
      dxy     :     0.084571
      f0      :     0.003201  f :     0.042580
      f+1     :     0.005064
      f-1     :     0.006575
      f+2     :     0.006783
      f-2     :     0.007143
      f+3     :     0.006528
      f-3     :     0.007286
 16 C s       :     2.699714  s :     2.699714
      pz      :     0.942351  p :     2.872945
      px      :     0.957754
      py      :     0.972839
      dz2     :     0.047492  d :     0.393308
      dxz     :     0.053094
      dyz     :     0.091938
      dx2y2   :     0.091176
      dxy     :     0.109607
      f0      :     0.004965  f :     0.040913
      f+1     :     0.004307
      f-1     :     0.003593
      f+2     :     0.006472
      f-2     :     0.005851
      f+3     :     0.008677
      f-3     :     0.007049
 17 C s       :     2.703278  s :     2.703278
      pz      :     0.827550  p :     2.676980
      px      :     0.819145
      py      :     1.030286
      dz2     :     0.128725  d :     0.708228
      dxz     :     0.106300
      dyz     :     0.142767
      dx2y2   :     0.162922
      dxy     :     0.167514
      f0      :     0.009955  f :     0.099658
      f+1     :     0.015836
      f-1     :     0.009647
      f+2     :     0.015610
      f-2     :     0.015619
      f+3     :     0.016131
      f-3     :     0.016859
 18 O s       :     3.176710  s :     3.176710
      pz      :     1.456934  p :     4.344239
      px      :     1.414502
      py      :     1.472804
      dz2     :     0.009364  d :     0.076148
      dxz     :     0.017630
      dyz     :     0.015898
      dx2y2   :     0.016804
      dxy     :     0.016452
      f0      :     0.000584  f :     0.005217
      f+1     :     0.000798
      f-1     :     0.000327
      f+2     :     0.000852
      f-2     :     0.000955
      f+3     :     0.000782
      f-3     :     0.000918
 19 C s       :     2.698264  s :     2.698264
      pz      :     0.930166  p :     2.843685
      px      :     0.944747
      py      :     0.968772
      dz2     :     0.069033  d :     0.381334
      dxz     :     0.063740
      dyz     :     0.062102
      dx2y2   :     0.096179
      dxy     :     0.090281
      f0      :     0.003189  f :     0.039939
      f+1     :     0.004998
      f-1     :     0.005444
      f+2     :     0.006661
      f-2     :     0.007185
      f+3     :     0.006657
      f-3     :     0.005805
 20 H s       :     0.846739  s :     0.846739
      pz      :     0.036231  p :     0.146707
      px      :     0.071334
      py      :     0.039142
      dz2     :     0.002472  d :     0.027075
      dxz     :     0.008650
      dyz     :     0.000185
      dx2y2   :     0.007197
      dxy     :     0.008570
 21 H s       :     0.844659  s :     0.844659
      pz      :     0.044081  p :     0.154092
      px      :     0.039072
      py      :     0.070939
      dz2     :     0.002912  d :     0.027476
      dxz     :     0.000388
      dyz     :     0.008994
      dx2y2   :     0.007237
      dxy     :     0.007946
 22 H s       :     0.846256  s :     0.846256
      pz      :     0.052533  p :     0.146628
      px      :     0.044633
      py      :     0.049462
      dz2     :     0.007172  d :     0.026691
      dxz     :     0.004746
      dyz     :     0.005461
      dx2y2   :     0.005532
      dxy     :     0.003780
 23 H s       :     0.840317  s :     0.840317
      pz      :     0.052891  p :     0.159704
      px      :     0.053212
      py      :     0.053601
      dz2     :     0.004431  d :     0.030563
      dxz     :     0.005310
      dyz     :     0.005594
      dx2y2   :     0.007565
      dxy     :     0.007663
 24 H s       :     0.854334  s :     0.854334
      pz      :     0.053977  p :     0.140602
      px      :     0.026411
      py      :     0.060213
      dz2     :     0.006869  d :     0.025687
      dxz     :     0.002470
      dyz     :     0.007492
      dx2y2   :     0.004407
      dxy     :     0.004450
 25 H s       :     0.840890  s :     0.840890
      pz      :     0.039872  p :     0.151821
      px      :     0.069089
      py      :     0.042859
      dz2     :     0.003045  d :     0.027263
      dxz     :     0.007379
      dyz     :     0.001911
      dx2y2   :     0.006962
      dxy     :     0.007965
 26 H s       :     0.833837  s :     0.833837
      pz      :     0.054734  p :     0.148332
      px      :     0.038226
      py      :     0.055371
      dz2     :     0.007191  d :     0.027300
      dxz     :     0.004869
      dyz     :     0.006960
      dx2y2   :     0.003747
      dxy     :     0.004534
 27 H s       :     0.830497  s :     0.830497
      pz      :     0.043853  p :     0.148203
      px      :     0.042869
      py      :     0.061480
      dz2     :     0.004119  d :     0.027067
      dxz     :     0.003303
      dyz     :     0.006928
      dx2y2   :     0.007078
      dxy     :     0.005639
 28 H s       :     0.744770  s :     0.744770
      pz      :     0.067772  p :     0.253525
      px      :     0.077671
      py      :     0.108082
      dz2     :     0.005479  d :     0.061050
      dxz     :     0.006065
      dyz     :     0.014607
      dx2y2   :     0.018784
      dxy     :     0.016115
 29 H s       :     0.750412  s :     0.750412
      pz      :     0.111505  p :     0.255848
      px      :     0.097051
      py      :     0.047292
      dz2     :     0.019846  d :     0.062313
      dxz     :     0.015585
      dyz     :     0.010325
      dx2y2   :     0.009839
      dxy     :     0.006718
 30 H s       :     0.799404  s :     0.799404
      pz      :     0.051034  p :     0.180004
      px      :     0.053603
      py      :     0.075368
      dz2     :     0.003890  d :     0.032548
      dxz     :     0.006151
      dyz     :     0.005849
      dx2y2   :     0.008176
      dxy     :     0.008482
 31 H s       :     0.840876  s :     0.840876
      pz      :     0.060089  p :     0.160682
      px      :     0.062441
      py      :     0.038152
      dz2     :     0.006187  d :     0.027762
      dxz     :     0.006488
      dyz     :     0.004662
      dx2y2   :     0.005084
      dxy     :     0.005342
 32 H s       :     0.841927  s :     0.841927
      pz      :     0.036612  p :     0.149481
      px      :     0.037707
      py      :     0.075162
      dz2     :     0.002635  d :     0.026211
      dxz     :     0.000565
      dyz     :     0.007372
      dx2y2   :     0.007799
      dxy     :     0.007839
 33 H s       :     0.848546  s :     0.848546
      pz      :     0.054805  p :     0.160586
      px      :     0.051334
      py      :     0.054447
      dz2     :     0.005398  d :     0.028081
      dxz     :     0.004323
      dyz     :     0.005916
      dx2y2   :     0.006549
      dxy     :     0.005895
 34 H s       :     0.705732  s :     0.705732
      pz      :     0.103213  p :     0.349130
      px      :     0.087706
      py      :     0.158211
      dz2     :     0.018449  d :     0.100257
      dxz     :     0.008660
      dyz     :     0.025542
      dx2y2   :     0.024119
      dxy     :     0.023487
 35 H s       :     0.837801  s :     0.837801
      pz      :     0.040854  p :     0.159233
      px      :     0.041342
      py      :     0.077036
      dz2     :     0.002650  d :     0.028232
      dxz     :     0.000926
      dyz     :     0.008059
      dx2y2   :     0.008137
      dxy     :     0.008459


                      *****************************
                      * MAYER POPULATION ANALYSIS *
                      *****************************

  NA   - Mulliken gross atomic population
  ZA   - Total nuclear charge
  QA   - Mulliken gross atomic charge
  VA   - Mayer's total valence
  BVA  - Mayer's bonded valence
  FA   - Mayer's free valence

  ATOM       NA         ZA         QA         VA         BVA        FA
  0 C      6.2840     6.0000    -0.2840     3.8650     3.8650    -0.0000
  1 C      5.9639     6.0000     0.0361     3.8325     3.8325     0.0000
  2 O      8.3085     8.0000    -0.3085     1.9927     1.9927     0.0000
  3 C      5.6171     6.0000     0.3829     4.2669     4.2669    -0.0000
  4 O      8.4086     8.0000    -0.4086     2.1292     2.1292     0.0000
  5 C      6.0513     6.0000    -0.0513     3.5906     3.5906     0.0000
  6 C      5.8863     6.0000     0.1137     3.7937     3.7937    -0.0000
  7 C      6.3096     6.0000    -0.3096     3.9082     3.9082     0.0000
  8 N      7.1494     7.0000    -0.1494     3.2570     3.2570     0.0000
  9 C      5.8033     6.0000     0.1967     4.1426     4.1426     0.0000
 10 S     16.4365    16.0000    -0.4365     1.7359     1.7359    -0.0000
 11 N      7.1911     7.0000    -0.1911     3.2688     3.2688     0.0000
 12 C      5.9592     6.0000     0.0408     3.9539     3.9539     0.0000
 13 C      5.9409     6.0000     0.0591     3.6701     3.6701    -0.0000
 14 C      6.2451     6.0000    -0.2451     3.8618     3.8618    -0.0000
 15 C      6.1248     6.0000    -0.1248     3.8035     3.8035    -0.0000
 16 C      6.2886     6.0000    -0.2886     3.7797     3.7797    -0.0000
 17 C      5.6893     6.0000     0.3107     3.8761     3.8761    -0.0000
 18 O      8.3551     8.0000    -0.3551     2.1183     2.1183    -0.0000
 19 C      6.2389     6.0000    -0.2389     3.8380     3.8380    -0.0000
 20 H      0.9021     1.0000     0.0979     0.9781     0.9781    -0.0000
 21 H      0.9024     1.0000     0.0976     0.9853     0.9853    -0.0000
 22 H      0.8902     1.0000     0.1098     0.9873     0.9873     0.0000
 23 H      0.9190     1.0000     0.0810     0.9660     0.9660    -0.0000
 24 H      0.8924     1.0000     0.1076     0.9783     0.9783    -0.0000
 25 H      0.8821     1.0000     0.1179     0.9730     0.9730     0.0000
 26 H      0.8844     1.0000     0.1156     0.9847     0.9847     0.0000
 27 H      0.8716     1.0000     0.1284     0.9775     0.9775     0.0000
 28 H      0.8107     1.0000     0.1893     1.0238     1.0238     0.0000
 29 H      0.8210     1.0000     0.1790     1.0305     1.0305    -0.0000
 30 H      0.8095     1.0000     0.1905     0.9877     0.9877     0.0000
 31 H      0.8619     1.0000     0.1381     0.9911     0.9911    -0.0000
 32 H      0.8392     1.0000     0.1608     0.9772     0.9772    -0.0000
 33 H      0.8693     1.0000     0.1307     0.9910     0.9910    -0.0000
 34 H      0.7590     1.0000     0.2410     1.0105     1.0105    -0.0000
 35 H      0.8337     1.0000     0.1663     0.9926     0.9926    -0.0000

  Mayer bond orders larger than 0.100000
B(  0-C ,  1-C ) :   0.9318 B(  0-C , 20-H ) :   0.9831 B(  0-C , 21-H ) :   0.9838 
B(  0-C , 22-H ) :   0.9769 B(  1-C ,  2-O ) :   0.9072 B(  1-C , 23-H ) :   0.9938 
B(  1-C , 24-H ) :   0.9765 B(  2-O ,  3-C ) :   1.1562 B(  2-O ,  5-C ) :  -0.1079 
B(  3-C ,  4-O ) :   2.0700 B(  3-C ,  5-C ) :   0.9667 B(  5-C ,  6-C ) :   1.7201 
B(  5-C , 12-C ) :   0.9777 B(  6-C ,  7-C ) :   0.9433 B(  6-C ,  8-N ) :   1.0759 
B(  7-C , 25-H ) :   0.9694 B(  7-C , 26-H ) :   0.9819 B(  7-C , 27-H ) :   0.9694 
B(  8-N ,  9-C ) :   1.2108 B(  8-N , 28-H ) :   0.9555 B(  9-C , 10-S ) :   1.5926 
B(  9-C , 11-N ) :   1.2824 B( 11-N , 12-C ) :   1.0204 B( 11-N , 29-H ) :   0.9583 
B( 12-C , 13-C ) :   0.8758 B( 12-C , 30-H ) :   0.9878 B( 13-C , 14-C ) :   1.3669 
B( 13-C , 19-C ) :   1.3722 B( 14-C , 15-C ) :   1.3831 B( 14-C , 31-H ) :   0.9765 
B( 15-C , 16-C ) :   1.3650 B( 15-C , 32-H ) :   0.9709 B( 16-C , 17-C ) :   1.3160 
B( 16-C , 33-H ) :   0.9869 B( 17-C , 18-O ) :   1.1088 B( 17-C , 19-C ) :   1.3834 
B( 18-O , 34-H ) :   0.9799 B( 19-C , 35-H ) :   0.9525 

-------
TIMINGS
-------

Total SCF time: 0 days 1 hours 42 min 18 sec 

Total time                  ....    6138.304 sec
Sum of individual times     ....    6132.685 sec  ( 99.9%)

Fock matrix formation       ....    6119.525 sec  ( 99.7%)
Diagonalization             ....       1.283 sec  (  0.0%)
Density matrix formation    ....       0.214 sec  (  0.0%)
Population analysis         ....       0.179 sec  (  0.0%)
Initial guess               ....       5.601 sec  (  0.1%)
Orbital Transformation      ....       0.000 sec  (  0.0%)
Orbital Orthonormalization  ....       0.000 sec  (  0.0%)
DIIS solution               ....       2.671 sec  (  0.0%)
SOSCF solution              ....       1.893 sec  (  0.0%)

------------------------------------------------------------------------------
                                ORCA  MP2 
------------------------------------------------------------------------------

Freezing NCore=48 chemical core electrons

-------------
RI-MP2 ENERGY
-------------
Dimension of the basis                    ...  828
Memory devoted to MP2                     ...  256 MB   
Data format for buffers                   ... DOUBLE
Compression type for matrix containers    ... UNCOMPRESSED
Overall scaling of the MP2 energy         ...   1.000e+00
Calculating two index integrals           ... done (    0.040 sec)
Cholesky decomposition of V**-1           ... done (    0.328 sec)

-----------------
RI-TRANSFORMATION (AUX index driven)
-----------------

Dimension of the orbital-basis         ... 828
Dimension of the aux-basis             ... 2141
Transformation of internal/external MOs...   24-  76 to   77- 827
Number Format for Storage              ... Double (8 Byte)
Integral mode                          ... Direct

First Phase: integral generation and transformation of MO indices
  Aux angular momentum 0               ... done (    4.950 sec)
  Aux angular momentum 1               ... done (    8.125 sec)
  Aux angular momentum 2               ... done (   11.305 sec)
  Aux angular momentum 3               ... done (    8.887 sec)
  Aux angular momentum 4               ... done (    3.085 sec)
Closing buffer VIA ( 0.63 GB; CompressionRatio= 1.00)
  Phase 1 completed in    36.503 sec
Second Phase: sorting and transformation of aux index

IA-Transformation
Memory available                       ... 167 MB 
Max. # MO pairs treated in a batch     ... 12    
# of internal orbitals                 ... 53
# batches for internal orbitals        ... 5
Closing buffer IAV ( 0.63 GB; CompressionRatio= 1.00)
(ia|v) transformation done in    25.811 sec

  Phase 2 completed in    25.815 sec
RI-Integral transformation completed in    62.327 sec
Opening buffers                              ... done

Starting loop over batches of integrals:

Operator 0  - window                       ... ( 24- 76)x( 77-827)
Operator 0  - Memory available             ...   256 MB
Operator 0  - Memory needed per MO         ...  12.3 MB
Operator 0  - Number of orbitals per batch ... 13
Operator 0  - Number of batches            ... 5

OPERATOR  0   PASS   0:  MOs    24 ...   36
  Reading integrals       ... ok
  Internal MO  26
  Internal MO  29
  Internal MO  32
  Internal MO  35
OPERATOR  0   PASS   1:  MOs    37 ...   49
  Reading integrals       ... ok
  Internal MO  38
  Internal MO  41
  Internal MO  44
  Internal MO  47
OPERATOR  0   PASS   2:  MOs    50 ...   62
  Reading integrals       ... ok
  Internal MO  50
  Internal MO  53
  Internal MO  56
  Internal MO  59
  Internal MO  62
OPERATOR  0   PASS   3:  MOs    63 ...   75
  Reading integrals       ... ok
  Internal MO  65
  Internal MO  68
  Internal MO  71
  Internal MO  74
OPERATOR  0   PASS   4:  MOs    76 ...   76
  Reading integrals       ... ok
Time spent in pair loops =    91.322 sec
Deleting buffer (Ka|jb)[aa] ...done

-----------------------------------------------
 RI-MP2 CORRELATION ENERGY:     -3.558360194 Eh
-----------------------------------------------


-------
TIMINGS
-------

Total time                :  154.118 sec
Integral trafo            :   62.342 sec ( 40.5%)
I/O of integrals          :    5.419 sec (  3.5%)
K(i,j) Operators          :   51.798 sec ( 33.6%)
T(i,j) pair energies      :    9.017 sec (  5.9%)
V-calculation             :    0.040 sec (  0.0%)
V**(-1/2)                 :    0.328 sec (  0.2%)
Gamma(ia|P)               :    0.000 sec (  0.0%)
Gamma-Trafo               :    0.000 sec (  0.0%)
D(virtual)                :    0.000 sec (  0.0%)
D(internal)               :    0.000 sec (  0.0%)
W(virtual)                :    0.000 sec (  0.0%)
W(internal)               :    0.000 sec (  0.0%)
L(virtual)                :    0.000 sec (  0.0%)
L(internal)               :    0.000 sec (  0.0%)
G(D)                      :    0.000 sec (  0.0%)
G(Z)                      :    0.000 sec (  0.0%)
Z-Vector Solution         :    0.000 sec (  0.0%)
3-Index Derivative        :    0.000 sec (  0.0%)
2-Index Derivative        :    0.000 sec (  0.0%)
Separable Gradient        :    0.000 sec (  0.0%)


---------------------------------------
MP2 TOTAL ENERGY:    -1274.242647201 Eh
---------------------------------------

-------------------------   --------------------
FINAL SINGLE POINT ENERGY     -1274.242647200632
-------------------------   --------------------


                            ***************************************
                            *     ORCA property calculations      *
                            ***************************************


  WARNING: The energy has been calculated at the MP2 level but the densities
           used in the property calculations are still SCF densities
           MP2 response densities have not been calculated 
           use %mp2 Density relaxed end
           or  %mp2 Density unrelaxed end

                                    ---------------------
                                    Active property flags
                                    ---------------------
   (+) Dipole Moment


------------------------------------------------------------------------------
                       ORCA ELECTRIC PROPERTIES CALCULATION
------------------------------------------------------------------------------

Dipole Moment Calculation                       ... on
Quadrupole Moment Calculation                   ... off
Polarizability Calculation                      ... off
GBWName                                         ... G2_CONFS/Conf89.orca.gbw
Electron density file                           ... G2_CONFS/Conf89.orca.scfp
The origin for moment calculation is the CENTER OF MASS  = (32.955028, 31.452860 35.429171)

-------------
DIPOLE MOMENT
-------------
                                X             Y             Z
Electronic contribution:     12.22521       8.71683       9.40866
Nuclear contribution   :    -13.93202     -10.31918     -10.02702
                        -----------------------------------------
Total Dipole Moment    :     -1.70681      -1.60235      -0.61836
                        -----------------------------------------
Magnitude (a.u.)       :      2.42138
Magnitude (Debye)      :      6.15466



--------------------
Rotational spectrum 
--------------------
 
Rotational constants in cm-1:     0.012375     0.009438     0.006931 
Rotational constants in MHz :   370.995591   282.930908   207.779509 

 Dipole components along the rotational axes: 
x,y,z [a.u.] :    -2.288945    -0.014003     0.789701 
x,y,z [Debye]:    -5.818036    -0.035593     2.007260 

 

Timings for individual modules:

Sum of individual times         ...     6294.040 sec (= 104.901 min)
GTO integral calculation        ...        1.280 sec (=   0.021 min)   0.0 %
SCF iterations                  ...     6138.347 sec (= 102.306 min)  97.5 %
MP2 module                      ...      154.413 sec (=   2.574 min)   2.5 %
                             ****ORCA TERMINATED NORMALLY****
TOTAL RUN TIME: 0 days 1 hours 44 minutes 54 seconds 828 msec
