
                                 *****************
                                 * O   R   C   A *
                                 *****************

           --- An Ab Initio, DFT and Semiempirical electronic structure package ---

                  #######################################################
                  #                        -***-                        #
                  #          Department of theory and spectroscopy      #
                  #               Directorship: Frank Neese             #
                  #        Max Planck Institute fuer Kohlenforschung    #
                  #                Kaiser Wilhelm Platz 1               #
                  #                 D-45470 Muelheim/Ruhr               #
                  #                      Germany                        #
                  #                                                     #
                  #                  All rights reserved                #
                  #                        -***-                        #
                  #######################################################


                         Program Version 4.2.0 -  RELEASE  -


 With contributions from (in alphabetic order):
   Daniel Aravena         : Magnetic Suceptibility
   Michael Atanasov       : Ab Initio Ligand Field Theory (pilot matlab implementation)
   Alexander A. Auer      : GIAO ZORA, VPT2
   Ute Becker             : Parallelization
   Giovanni Bistoni       : ED, misc. LED, open-shell LED, HFLED
   Martin Brehm           : Molecular dynamics
   Dmytro Bykov           : SCF Hessian
   Vijay G. Chilkuri      : MRCI spin determinant printing, contributions to CSF-ICE
   Dipayan Datta          : RHF DLPNO-CCSD density
   Achintya Kumar Dutta   : EOM-CC, STEOM-CC
   Dmitry Ganyushin       : Spin-Orbit,Spin-Spin,Magnetic field MRCI
   Miquel Garcia          : C-PCM Hessian, Gaussian charge scheme
   Yang Guo               : DLPNO-NEVPT2, CIM, IAO-localization
   Andreas Hansen         : Spin unrestricted coupled pair/coupled cluster methods
   Benjamin Helmich-Paris : CASSCF linear response (MC-RPA)
   Lee Huntington         : MR-EOM, pCC
   Robert Izsak           : Overlap fitted RIJCOSX, COSX-SCS-MP3, EOM
   Christian Kollmar      : KDIIS, OOCD, Brueckner-CCSD(T), CCSD density
   Simone Kossmann        : Meta GGA functionals, TD-DFT gradient, OOMP2, MP2 Hessian
   Martin Krupicka        : AUTO-CI
   Lucas Lang             : DCDCAS
   Dagmar Lenk            : GEPOL surface, SMD
   Dimitrios Liakos       : Extrapolation schemes; Compound Job, initial MDCI parallelization
   Dimitrios Manganas     : Further ROCIS development; embedding schemes
   Dimitrios Pantazis     : SARC Basis sets
   Taras Petrenko         : DFT Hessian,TD-DFT gradient, ASA, ECA, R-Raman, ABS, FL, XAS/XES, NRVS
   Peter Pinski           : DLPNO-MP2, DLPNO-MP2 Gradient
   Christoph Reimann      : Effective Core Potentials
   Marius Retegan         : Local ZFS, SOC
   Christoph Riplinger    : Optimizer, TS searches, QM/MM, DLPNO-CCSD(T), (RO)-DLPNO pert. Triples
   Tobias Risthaus        : Range-separated hybrids, TD-DFT gradient, RPA, STAB
   Michael Roemelt        : Original ROCIS implementation
   Masaaki Saitow         : Open-shell DLPNO-CCSD energy and density
   Barbara Sandhoefer     : DKH picture change effects
   Avijit Sen             : IP-ROCIS
   Kantharuban Sivalingam : CASSCF convergence, NEVPT2, FIC-MRCI
   Bernardo de Souza      : ESD, SOC TD-DFT
   Georgi Stoychev        : AutoAux, RI-MP2 NMR
   Willem Van den Heuvel  : Paramagnetic NMR
   Boris Wezisla          : Elementary symmetry handling
   Frank Wennmohs         : Technical directorship


 We gratefully acknowledge several colleagues who have allowed us to
 interface, adapt or use parts of their codes:
   Stefan Grimme, W. Hujo, H. Kruse,             : VdW corrections, initial TS optimization,
                  C. Bannwarth                     DFT functionals, gCP, sTDA/sTD-DF
   Ed Valeev, F. Pavosevic, A. Kumar             : LibInt (2-el integral package), F12 methods
   Garnet Chan, S. Sharma, J. Yang, R. Olivares  : DMRG
   Ulf Ekstrom                                   : XCFun DFT Library
   Mihaly Kallay                                 : mrcc  (arbitrary order and MRCC methods)
   Andreas Klamt, Michael Diedenhofen            : otool_cosmo (COSMO solvation model)
   Jiri Pittner, Ondrej Demel                    : Mk-CCSD
   Frank Weinhold                                : gennbo (NPA and NBO analysis)
   Christopher J. Cramer and Donald G. Truhlar   : smd solvation model
   Lars Goerigk                                  : TD-DFT with DH, B97 family of functionals
   V. Asgeirsson, H. Jonsson                     : NEB implementation
   FAccTs GmbH                                   : IRC, NEB, NEB-TS, Multilevel, MM, QM/MM, CI optimization
   S Lehtola, MJT Oliveira, MAL Marques          : LibXC Library


 Your calculation uses the libint2 library for the computation of 2-el integrals
 For citations please refer to: http://libint.valeyev.net

 Your ORCA version has been built with support for libXC version: 4.2.3
 For citations please refer to: https://tddft.org/programs/libxc/

 This ORCA versions uses:
   CBLAS   interface :  Fast vector & matrix operations
   LAPACKE interface :  Fast linear algebra routines
   SCALAPACK package :  Parallel linear algebra routines


----- Orbital basis set information -----
Your calculation utilizes the basis: cc-pVTZ 
       H, B-Ne : Obtained from the ccRepo (grant-hill.group.shef.ac.uk/ccrepo) Feb. 2017
                 T. H. Dunning, Jr., J. Chem. Phys. 90, 1007 (1989)
            He : Obtained from the ccRepo (grant-hill.group.shef.ac.uk/ccrepo) Feb. 2017
                 D. E. Woon, T. H. Dunning, Jr., J. Chem. Phys. 100, 2975 (1994)
  Li-Be, Na-Mg : Obtained from the ccRepo (grant-hill.group.shef.ac.uk/ccrepo) Feb. 2017
                 B. P. Prascher, D. E. Woon, K. A. Peterson, T. H. Dunning, Jr., A. K. Wilson, Theor. Chem. Acc. 128, 69 (2011)
         Al-Ar : Obtained from the ccRepo (grant-hill.group.shef.ac.uk/ccrepo) Feb. 2017
                 D. E. Woon, T. H. Dunning, Jr., J. Chem. Phys. 98, 1358 (1993)
            Ca : Obtained from the Peterson Research Group Website (tyr0.chem.wsu.edu/~kipeters) Feb. 2017
                 J. Koput, K. A. Peterson, J. Phys. Chem. 106, 9595 (2002)
         Sc-Zn : Obtained from the ccRepo (grant-hill.group.shef.ac.uk/ccrepo) Feb. 2017
                 N. B. Balabanov, K. A. Peterson, J. Chem. Phys. 123, 064107 (2005)
                 N. B. Balabanov, K. A. Peterson, J. Chem. Phys. 125, 074110 (2006)
         Ga-Kr : Obtained from the ccRepo (grant-hill.group.shef.ac.uk/ccrepo) Feb. 2017
                 A. K. Wilson, D. E. Woon, K. A. Peterson, T. H. Dunning, Jr., J. Chem. Phys. 110, 7667 (1999)
             Y : Obtained from the ccRepo (grant-hill.group.shef.ac.uk/ccrepo) Feb. 2017
                 K. A. Peterson, D. Figgen, M. Dolg, H. Stoll, J. Chem. Phys. 126, 124101 (2007)
        Ag, Au : Obtained from the Peterson Research Group Website (tyr0.chem.wsu.edu/~kipeters) Feb. 2017
                 K. A. Peterson, C. Puzzarini, Theor. Chem. Acc. 114, 283 (2005)

----- AuxC basis set information -----
Your calculation utilizes the auxiliary basis: cc-pVTZ/C 
  Obtained from the EMSL Basis Set Exchange (bse.pnl.gov) Feb. 2017
  H-He, B-F, Al-Ar, Ga-Kr : F. Weigend, A. Kohn, C. Hattig, J. Chem. Phys. 116, 3175 (2002)
             Li-Be, Na-Mg : C. Haettig, Phys. Chem. Chem. Phys. 7, 59 (2005)
                       Ne : C. Haettig, Phys. Chem. Chem. Phys. 7, 59 (2005)
                            F. Weigend, A. Kohn, C. Hattig, J. Chem. Phys. 116, 3175 (2002)
                    Sc-Zn : J. G. Hill, J. A. Platts, J. Chem. Phys. 128, 044104 (2008)

================================================================================
                                        WARNINGS
                       Please study these warnings very carefully!
================================================================================


WARNING: No MP2 level density has been requested!
         To caclulate MP2 level properties use
         %mp2 Density relaxed end
         or
         %mp2 Density unrelaxed end

WARNING: Post HF methods need fully converged wavefunctions
  ===> : Setting SCFConvForced true
         You can overwrite this default with %scf ConvForced false 


INFO   : the flag for use of LIBINT has been found!

================================================================================
                                       INPUT FILE
================================================================================
NAME = G2_CONFS/Conf169.orca
|  1> ! ri-mp2 cc-pvtz cc-pvtz/c TightSCF  NoKeepInts
|  2> 
|  3> %scf
|  4>   MaxCore 4096
|  5> end
|  6> *xyz  0  1
|  7>     C       15.6005507   13.1424988   16.6754967
|  8>     C       15.9214649   14.3539707   15.7717515
|  9>     O       16.6500515   15.2833852   16.5940462
| 10>     C       16.3064893   16.6073124   16.6405914
| 11>     O       15.3399940   17.0551954   16.0500049
| 12>     C       17.1947227   17.3992184   17.5589865
| 13>     C       17.1679496   18.7670843   17.5705042
| 14>     C       16.1417418   19.6707208   16.9191348
| 15>     N       18.1112790   19.4831556   18.3175459
| 16>     C       19.2114451   18.9376146   18.9229545
| 17>     S       20.3259086   19.8643782   19.7167580
| 18>     N       19.3380999   17.5794165   18.8568695
| 19>     C       18.4225791   16.7071622   18.1663586
| 20>     C       17.7861937   15.7836464   19.3188212
| 21>     C       18.0147253   14.3809714   19.3210023
| 22>     C       17.4717156   13.5480430   20.3175890
| 23>     C       16.6789739   14.1090175   21.3327338
| 24>     C       16.4352503   15.4892126   21.3458273
| 25>     O       15.6704079   16.0344227   22.3256423
| 26>     C       16.9774389   16.3138005   20.3513470
| 27>     H       16.5333697   12.6699424   17.0192611
| 28>     H       15.0242182   12.3899105   16.1235080
| 29>     H       15.0246433   13.4426355   17.5578415
| 30>     H       16.4963001   14.0493827   14.9026116
| 31>     H       14.9600900   14.7803866   15.4340214
| 32>     H       16.1711442   19.5623798   15.8284706
| 33>     H       16.2919387   20.7315335   17.1516718
| 34>     H       15.1289063   19.4012652   17.2478145
| 35>     H       18.0273000   20.4838180   18.3986892
| 36>     H       20.1483808   17.1954553   19.3176461
| 37>     H       18.8384086   15.9500247   17.5290354
| 38>     H       18.6213184   13.9385088   18.5338561
| 39>     H       17.6654135   12.4763137   20.3007192
| 40>     H       16.2574094   13.4732896   22.1045081
| 41>     H       15.4109284   15.3188569   22.9250267
| 42>     H       16.7802484   17.3780656   20.3853548
| 43> *
| 44> 
| 45>                          ****END OF INPUT****
================================================================================

                       ****************************
                       * Single Point Calculation *
                       ****************************

---------------------------------
CARTESIAN COORDINATES (ANGSTROEM)
---------------------------------
  C     15.600551   13.142499   16.675497
  C     15.921465   14.353971   15.771751
  O     16.650052   15.283385   16.594046
  C     16.306489   16.607312   16.640591
  O     15.339994   17.055195   16.050005
  C     17.194723   17.399218   17.558986
  C     17.167950   18.767084   17.570504
  C     16.141742   19.670721   16.919135
  N     18.111279   19.483156   18.317546
  C     19.211445   18.937615   18.922954
  S     20.325909   19.864378   19.716758
  N     19.338100   17.579417   18.856869
  C     18.422579   16.707162   18.166359
  C     17.786194   15.783646   19.318821
  C     18.014725   14.380971   19.321002
  C     17.471716   13.548043   20.317589
  C     16.678974   14.109018   21.332734
  C     16.435250   15.489213   21.345827
  O     15.670408   16.034423   22.325642
  C     16.977439   16.313800   20.351347
  H     16.533370   12.669942   17.019261
  H     15.024218   12.389910   16.123508
  H     15.024643   13.442635   17.557841
  H     16.496300   14.049383   14.902612
  H     14.960090   14.780387   15.434021
  H     16.171144   19.562380   15.828471
  H     16.291939   20.731534   17.151672
  H     15.128906   19.401265   17.247815
  H     18.027300   20.483818   18.398689
  H     20.148381   17.195455   19.317646
  H     18.838409   15.950025   17.529035
  H     18.621318   13.938509   18.533856
  H     17.665413   12.476314   20.300719
  H     16.257409   13.473290   22.104508
  H     15.410928   15.318857   22.925027
  H     16.780248   17.378066   20.385355

----------------------------
CARTESIAN COORDINATES (A.U.)
----------------------------
  NO LB      ZA    FRAG     MASS         X           Y           Z
   0 C     6.0000    0    12.011   29.480768   24.835723   31.512122
   1 C     6.0000    0    12.011   30.087208   27.125074   29.804291
   2 O     8.0000    0    15.999   31.464037   28.881412   31.358203
   3 C     6.0000    0    12.011   30.814799   31.383272   31.446160
   4 O     8.0000    0    15.999   28.988388   32.229648   30.330114
   5 C     6.0000    0    12.011   32.493317   32.879758   33.181676
   6 C     6.0000    0    12.011   32.442723   35.464650   33.203441
   7 C     6.0000    0    12.011   30.503471   37.172275   31.972531
   8 N     7.0000    0    14.007   34.225357   36.817828   34.615145
   9 C     6.0000    0    12.011   36.304370   35.786905   35.759202
  10 S    16.0000    0    32.060   38.410401   37.538235   37.259273
  11 N     7.0000    0    14.007   36.543713   33.220283   35.634319
  12 C     6.0000    0    12.011   34.813629   31.571961   34.329443
  13 C     6.0000    0    12.011   33.611035   29.826769   36.507281
  14 C     6.0000    0    12.011   34.042897   27.176097   36.511403
  15 C     6.0000    0    12.011   33.016758   25.602091   38.394679
  16 C     6.0000    0    12.011   31.518693   26.662179   40.313025
  17 C     6.0000    0    12.011   31.058122   29.270370   40.337768
  18 O     8.0000    0    15.999   29.612779   30.300668   42.189350
  19 C     6.0000    0    12.011   32.082710   30.828615   38.458472
  20 H     1.0000    0     1.008   31.243541   23.942721   32.161742
  21 H     1.0000    0     1.008   28.391658   23.413538   30.469014
  22 H     1.0000    0     1.008   28.392461   25.402900   33.179512
  23 H     1.0000    0     1.008   31.173489   26.549486   28.161855
  24 H     1.0000    0     1.008   28.270473   27.930883   29.166074
  25 H     1.0000    0     1.008   30.559034   36.967540   29.911475
  26 H     1.0000    0     1.008   30.787302   39.176921   32.411962
  27 H     1.0000    0     1.008   28.589490   36.663078   32.593646
  28 H     1.0000    0     1.008   34.066660   38.708806   34.768484
  29 H     1.0000    0     1.008   38.074922   32.494701   36.505061
  30 H     1.0000    0     1.008   35.599433   30.141179   33.125076
  31 H     1.0000    0     1.008   35.189192   26.339964   35.023912
  32 H     1.0000    0     1.008   33.382794   23.576816   38.362800
  33 H     1.0000    0     1.008   30.722051   25.460827   41.771467
  34 H     1.0000    0     1.008   29.122434   28.948444   43.322022
  35 H     1.0000    0     1.008   31.710074   32.839785   38.522738

--------------------------------
INTERNAL COORDINATES (ANGSTROEM)
--------------------------------
 C      0   0   0     0.000000000000     0.00000000     0.00000000
 C      1   0   0     1.545123126089     0.00000000     0.00000000
 O      2   1   0     1.439033814807   106.10063390     0.00000000
 C      3   2   1     1.368570302108   121.13961335   228.67239360
 O      4   3   2     1.217992102024   122.57738047     3.65847492
 C      4   3   2     1.503171063258   112.46246731   179.99999681
 C      6   4   3     1.368176368996   121.35132151   168.57762066
 C      7   6   4     1.514576993147   127.31014177    12.08969939
 N      7   6   4     1.400249893814   120.17086364   187.51031001
 C      9   7   6     1.369123808581   124.99365140     9.46551537
 S     10   9   7     1.652586959809   122.06241743   176.45861850
 N     10   9   7     1.365690574190   116.70511802   355.56994606
 C     12  10   9     1.440767573941   124.49598439     1.96396570
 C     13  12  10     1.608116244113   104.81352807   243.54534354
 C     14  13  12     1.421171560728   120.28315947   244.02198078
 C     15  14  13     1.407769265341   121.53538571   179.93463889
 C     16  15  14     1.404866811316   119.53377831     0.32605896
 C     17  16  15     1.401610197952   119.87301183     0.00000000
 O     18  17  16     1.357304455236   120.01842554   180.03776715
 C     18  17  16     1.401037026593   120.37376470     0.02770055
 H      1   2   3     1.100742840381   110.07556259   298.12886164
 H      1   2   3     1.096922889168   110.65439884   178.91550296
 H      1   2   3     1.095574606382   111.43497572    58.11894466
 H      2   1   3     1.085639683631   110.99307624   121.59435931
 H      2   1   3     1.104596685931   107.50239359   240.62639590
 H      8   7   6     1.096426317893   110.52907770   295.46416814
 H      8   7   6     1.096337607500   113.15693436   174.66867934
 H      8   7   6     1.098395382193   110.47026920    54.12426714
 H      9   7   6     1.007453198094   119.65355527   186.35453531
 H     12  10   9     1.008115278685   115.54402379   180.69972620
 H     13  12  10     1.073476701300   117.73580695   133.54183864
 H     15  14  13     1.087808568426   119.34136386   359.79910297
 H     16  15  14     1.089223190671   120.17248725   180.32108134
 H     17  16  15     1.085127716280   119.94781938   180.02656296
 H     19  18  17     0.968826962885   107.50854253     1.51798693
 H     20  18  17     1.082913120628   119.05579087   180.35350458

---------------------------
INTERNAL COORDINATES (A.U.)
---------------------------
 C      0   0   0     0.000000000000     0.00000000     0.00000000
 C      1   0   0     2.919859551496     0.00000000     0.00000000
 O      2   1   0     2.719379807437   106.10063390     0.00000000
 C      3   2   1     2.586223066002   121.13961335   228.67239360
 O      4   3   2     2.301671506105   122.57738047     3.65847492
 C      4   3   2     2.840581641992   112.46246731   179.99999681
 C      6   4   3     2.585478640306   121.35132151   168.57762066
 C      7   6   4     2.862135725785   127.31014177    12.08969939
 N      7   6   4     2.646088818361   120.17086364   187.51031001
 C      9   7   6     2.587269041650   124.99365140     9.46551537
 S     10   9   7     3.122936766528   122.06241743   176.45861850
 N     10   9   7     2.580781168897   116.70511802   355.56994606
 C     12  10   9     2.722656137383   124.49598439     1.96396570
 C     13  12  10     3.038899292884   104.81352807   243.54534354
 C     14  13  12     2.685625039092   120.28315947   244.02198078
 C     15  14  13     2.660298371245   121.53538571   179.93463889
 C     16  15  14     2.654813528022   119.53377831     0.32605896
 C     17  16  15     2.648659420641   119.87301183     0.00000000
 O     18  17  16     2.564933700748   120.01842554   180.03776715
 C     18  17  16     2.647576283744   120.37376470     0.02770055
 H      1   2   3     2.080102512194   110.07556259   298.12886164
 H      1   2   3     2.072883850557   110.65439884   178.91550296
 H      1   2   3     2.070335965340   111.43497572    58.11894466
 H      2   1   3     2.051561682180   110.99307624   121.59435931
 H      2   1   3     2.087385224846   107.50239359   240.62639590
 H      8   7   6     2.071945466841   110.52907770   295.46416814
 H      8   7   6     2.071777828494   113.15693436   174.66867934
 H      8   7   6     2.075666459109   110.47026920    54.12426714
 H      9   7   6     1.903810637141   119.65355527   186.35453531
 H     12  10   9     1.905061788136   115.54402379   180.69972620
 H     13  12  10     2.028576976603   117.73580695   133.54183864
 H     15  14  13     2.055660280458   119.34136386   359.79910297
 H     16  15  14     2.058333529084   120.17248725   180.32108134
 H     17  16  15     2.050594204097   119.94781938   180.02656296
 H     19  18  17     1.830817631012   107.50854253     1.51798693
 H     20  18  17     2.046409224818   119.05579087   180.35350458

---------------------
BASIS SET INFORMATION
---------------------
There are 5 groups of distinct atoms

 Group   1 Type C   : 18s5p2d1f contracted to 4s3p2d1f pattern {8811/311/11/1}
 Group   2 Type O   : 18s5p2d1f contracted to 4s3p2d1f pattern {8811/311/11/1}
 Group   3 Type N   : 18s5p2d1f contracted to 4s3p2d1f pattern {8811/311/11/1}
 Group   4 Type S   : 41s16p2d1f contracted to 5s4p2d1f pattern {13131311/7711/11/1}
 Group   5 Type H   : 5s2p1d contracted to 3s2p1d pattern {311/11/1}

Atom   0C    basis set group =>   1
Atom   1C    basis set group =>   1
Atom   2O    basis set group =>   2
Atom   3C    basis set group =>   1
Atom   4O    basis set group =>   2
Atom   5C    basis set group =>   1
Atom   6C    basis set group =>   1
Atom   7C    basis set group =>   1
Atom   8N    basis set group =>   3
Atom   9C    basis set group =>   1
Atom  10S    basis set group =>   4
Atom  11N    basis set group =>   3
Atom  12C    basis set group =>   1
Atom  13C    basis set group =>   1
Atom  14C    basis set group =>   1
Atom  15C    basis set group =>   1
Atom  16C    basis set group =>   1
Atom  17C    basis set group =>   1
Atom  18O    basis set group =>   2
Atom  19C    basis set group =>   1
Atom  20H    basis set group =>   5
Atom  21H    basis set group =>   5
Atom  22H    basis set group =>   5
Atom  23H    basis set group =>   5
Atom  24H    basis set group =>   5
Atom  25H    basis set group =>   5
Atom  26H    basis set group =>   5
Atom  27H    basis set group =>   5
Atom  28H    basis set group =>   5
Atom  29H    basis set group =>   5
Atom  30H    basis set group =>   5
Atom  31H    basis set group =>   5
Atom  32H    basis set group =>   5
Atom  33H    basis set group =>   5
Atom  34H    basis set group =>   5
Atom  35H    basis set group =>   5
---------------------------------
AUXILIARY/C BASIS SET INFORMATION
---------------------------------
There are 5 groups of distinct atoms

 Group   1 Type C   : 8s6p5d3f1g contracted to 8s6p5d3f1g pattern {11111111/111111/11111/111/1}
 Group   2 Type O   : 8s6p5d3f1g contracted to 8s6p5d3f1g pattern {11111111/111111/11111/111/1}
 Group   3 Type N   : 8s6p5d3f1g contracted to 8s6p5d3f1g pattern {11111111/111111/11111/111/1}
 Group   4 Type S   : 10s8p7d5f2g contracted to 10s8p7d5f2g pattern {1111111111/11111111/1111111/11111/11}
 Group   5 Type H   : 4s3p2d1f contracted to 4s3p2d1f pattern {1111/111/11/1}

Atom   0C    basis set group =>   1
Atom   1C    basis set group =>   1
Atom   2O    basis set group =>   2
Atom   3C    basis set group =>   1
Atom   4O    basis set group =>   2
Atom   5C    basis set group =>   1
Atom   6C    basis set group =>   1
Atom   7C    basis set group =>   1
Atom   8N    basis set group =>   3
Atom   9C    basis set group =>   1
Atom  10S    basis set group =>   4
Atom  11N    basis set group =>   3
Atom  12C    basis set group =>   1
Atom  13C    basis set group =>   1
Atom  14C    basis set group =>   1
Atom  15C    basis set group =>   1
Atom  16C    basis set group =>   1
Atom  17C    basis set group =>   1
Atom  18O    basis set group =>   2
Atom  19C    basis set group =>   1
Atom  20H    basis set group =>   5
Atom  21H    basis set group =>   5
Atom  22H    basis set group =>   5
Atom  23H    basis set group =>   5
Atom  24H    basis set group =>   5
Atom  25H    basis set group =>   5
Atom  26H    basis set group =>   5
Atom  27H    basis set group =>   5
Atom  28H    basis set group =>   5
Atom  29H    basis set group =>   5
Atom  30H    basis set group =>   5
Atom  31H    basis set group =>   5
Atom  32H    basis set group =>   5
Atom  33H    basis set group =>   5
Atom  34H    basis set group =>   5
Atom  35H    basis set group =>   5
------------------------------------------------------------------------------
                           ORCA GTO INTEGRAL CALCULATION
------------------------------------------------------------------------------

                         BASIS SET STATISTICS AND STARTUP INFO

 # of primitive gaussian shells          ...  682
 # of primitive gaussian functions       ... 1312
 # of contracted shells                  ...  298
 # of contracted basis functions         ...  828
 Highest angular momentum                ...    3
 Maximum contraction depth               ...   13
 Integral package used                   ... LIBINT
 Integral threshhold            Thresh   ...  2.500e-11
 Primitive cut-off              TCut     ...  2.500e-12


------------------------------ INTEGRAL EVALUATION ----------------------------


 * One electron integrals 
 Pre-screening matrix                    ... done
 Shell pair data                         ... done (   0.014 sec)

-------------------------------------------------------------------------------
                                 ORCA SCF
-------------------------------------------------------------------------------

------------
SCF SETTINGS
------------
Hamiltonian:
 Ab initio Hamiltonian  Method          .... Hartree-Fock(GTOs)


General Settings:
 Integral files         IntName         .... G2_CONFS/Conf169.orca
 Hartree-Fock type      HFTyp           .... RHF
 Total Charge           Charge          ....    0
 Multiplicity           Mult            ....    1
 Number of Electrons    NEL             ....  154
 Basis Dimension        Dim             ....  828
 Nuclear Repulsion      ENuc            ....   1700.1749613995 Eh

Convergence Acceleration:
 DIIS                   CNVDIIS         .... on
   Start iteration      DIISMaxIt       ....    12
   Startup error        DIISStart       ....  0.200000
   # of expansion vecs  DIISMaxEq       ....     5
   Bias factor          DIISBfac        ....   1.050
   Max. coefficient     DIISMaxC        ....  10.000
 Newton-Raphson         CNVNR           .... off
 SOSCF                  CNVSOSCF        .... on
   Start iteration      SOSCFMaxIt      ....   150
   Startup grad/error   SOSCFStart      ....  0.003300
 Level Shifting         CNVShift        .... on
   Level shift para.    LevelShift      ....    0.2500
   Turn off err/grad.   ShiftErr        ....    0.0010
 Zerner damping         CNVZerner       .... off
 Static damping         CNVDamp         .... on
   Fraction old density DampFac         ....    0.7000
   Max. Damping (<1)    DampMax         ....    0.9800
   Min. Damping (>=0)   DampMin         ....    0.0000
   Turn off err/grad.   DampErr         ....    0.1000
 Fernandez-Rico         CNVRico         .... off

SCF Procedure:
 Maximum # iterations   MaxIter         ....   125
 SCF integral mode      SCFMode         .... Direct
   Integral package                     .... LIBINT
 Reset frequency        DirectResetFreq ....    20
 Integral Threshold     Thresh          ....  2.500e-11 Eh
 Primitive CutOff       TCut            ....  2.500e-12 Eh

Convergence Tolerance:
 Convergence Check Mode ConvCheckMode   .... Total+1el-Energy
 Convergence forced     ConvForced      .... 1
 Energy Change          TolE            ....  1.000e-08 Eh
 1-El. energy change                    ....  1.000e-05 Eh
 Orbital Gradient       TolG            ....  1.000e-05
 Orbital Rotation angle TolX            ....  1.000e-05
 DIIS Error             TolErr          ....  5.000e-07


Diagonalization of the overlap matrix:
Smallest eigenvalue                        ... 3.425e-05
Time for diagonalization                   ...    0.111 sec
Threshold for overlap eigenvalues          ... 1.000e-08
Number of eigenvalues below threshold      ... 0
Time for construction of square roots      ...    0.064 sec
Total time needed                          ...    0.177 sec

-------------------
DFT GRID GENERATION
-------------------

General Integration Accuracy     IntAcc      ...  4.340
Radial Grid Type                 RadialGrid  ... Gauss-Chebyshev
Angular Grid (max. acc.)         AngularGrid ... Lebedev-110
Angular grid pruning method      GridPruning ... 3 (G Style)
Weight generation scheme         WeightScheme... Becke
Basis function cutoff            BFCut       ...    1.0000e-11
Integration weight cutoff        WCut        ...    1.0000e-14
Grids for H and He will be reduced by one unit

# of grid points (after initial pruning)     ...  46246 (   0.0 sec)
# of grid points (after weights+screening)   ...  41341 (   0.3 sec)
nearest neighbour list constructed           ...    0.0 sec
Grid point re-assignment to atoms done       ...    0.0 sec
Grid point division into batches done        ...    0.0 sec
Reduced shell lists constructed in    0.9 sec

Total number of grid points                  ...    41341
Total number of batches                      ...      667
Average number of points per batch           ...       61
Average number of grid points per atom       ...     1148
Average number of shells per batch           ...   147.79 (49.59%)
Average number of basis functions per batch  ...   375.48 (45.35%)
Average number of large shells per batch     ...    94.40 (63.87%)
Average number of large basis fcns per batch ...   242.82 (64.67%)
Maximum spatial batch extension              ...  20.26, 20.14, 18.99 au
Average spatial batch extension              ...   3.54,  3.37,  3.47 au

Time for grid setup =    1.279 sec

------------------------------
INITIAL GUESS: MODEL POTENTIAL
------------------------------
Loading Hartree-Fock densities                     ... done
Calculating cut-offs                               ... done
Setting up the integral package                    ... done
Initializing the effective Hamiltonian             ... done
Starting the Coulomb interaction                   ... 