
                                        *****************
                                        * O   R   C   A *
                                        *****************

                                            #,                                       
                                            ###                                      
                                            ####                                     
                                            #####                                    
                                            ######                                   
                                           ########,                                 
                                     ,,################,,,,,                         
                               ,,#################################,,                 
                          ,,##########################################,,             
                       ,#########################################, ''#####,          
                    ,#############################################,,   '####,        
                  ,##################################################,,,,####,       
                ,###########''''           ''''###############################       
              ,#####''   ,,,,##########,,,,          '''####'''          '####       
            ,##' ,,,,###########################,,,                        '##       
           ' ,,###''''                  '''############,,,                           
         ,,##''                                '''############,,,,        ,,,,,,###''
      ,#''                                            '''#######################'''  
     '                                                          ''''####''''         
             ,#######,   #######,   ,#######,      ##                                
            ,#'     '#,  ##    ##  ,#'     '#,    #''#        ######   ,####,        
            ##       ##  ##   ,#'  ##            #'  '#       #        #'  '#        
            ##       ##  #######   ##           ,######,      #####,   #    #        
            '#,     ,#'  ##    ##  '#,     ,#' ,#      #,         ##   #,  ,#        
             '#######'   ##     ##  '#######'  #'      '#     #####' # '####'        



                  #######################################################
                  #                        -***-                        #
                  #          Department of theory and spectroscopy      #
                  #    Directorship and core code : Frank Neese         #
                  #        Max Planck Institute fuer Kohlenforschung    #
                  #                Kaiser Wilhelm Platz 1               #
                  #                 D-45470 Muelheim/Ruhr               #
                  #                      Germany                        #
                  #                                                     #
                  #                  All rights reserved                #
                  #                        -***-                        #
                  #######################################################


                         Program Version 5.0.0 -  RELEASE  -
                                (SVN: $Rev: 19529$)
                ($Date: 2021-06-28 11:36:33 +0200 (Mo, 28 Jun 2021) $)


 With contributions from (in alphabetic order):
   Daniel Aravena         : Magnetic Suceptibility
   Michael Atanasov       : Ab Initio Ligand Field Theory (pilot matlab implementation)
   Alexander A. Auer      : GIAO ZORA, VPT2 properties, NMR spectrum
   Ute Becker             : Parallelization
   Giovanni Bistoni       : ED, misc. LED, open-shell LED, HFLD
   Martin Brehm           : Molecular dynamics
   Dmytro Bykov           : SCF Hessian
   Vijay G. Chilkuri      : MRCI spin determinant printing, contributions to CSF-ICE
   Dipayan Datta          : RHF DLPNO-CCSD density
   Achintya Kumar Dutta   : EOM-CC, STEOM-CC
   Dmitry Ganyushin       : Spin-Orbit,Spin-Spin,Magnetic field MRCI
   Miquel Garcia          : C-PCM Hessian, Gaussian charge scheme
   Yang Guo               : DLPNO-NEVPT2, F12-NEVPT2, CIM, IAO-localization
   Andreas Hansen         : Spin unrestricted coupled pair/coupled cluster methods
   Benjamin Helmich-Paris : MC-RPA, TRAH-SCF, COSX integrals
   Lee Huntington         : MR-EOM, pCC
   Robert Izsak           : Overlap fitted RIJCOSX, COSX-SCS-MP3, EOM
   Marcus Kettner         : VPT2
   Christian Kollmar      : KDIIS, OOCD, Brueckner-CCSD(T), CCSD density, CASPT2, CASPT2-K
   Simone Kossmann        : Meta GGA functionals, TD-DFT gradient, OOMP2, MP2 Hessian
   Martin Krupicka        : Initial AUTO-CI
   Lucas Lang             : DCDCAS
   Marvin Lechner         : AUTO-CI (C++ implementation), FIC-MRCC
   Dagmar Lenk            : GEPOL surface, SMD
   Dimitrios Liakos       : Extrapolation schemes; Compound Job, initial MDCI parallelization
   Dimitrios Manganas     : Further ROCIS development; embedding schemes
   Dimitrios Pantazis     : SARC Basis sets
   Anastasios Papadopoulos: AUTO-CI, single reference methods and gradients
   Taras Petrenko         : DFT Hessian,TD-DFT gradient, ASA, ECA, R-Raman, ABS, FL, XAS/XES, NRVS
   Peter Pinski           : DLPNO-MP2, DLPNO-MP2 Gradient
   Christoph Reimann      : Effective Core Potentials
   Marius Retegan         : Local ZFS, SOC
   Christoph Riplinger    : Optimizer, TS searches, QM/MM, DLPNO-CCSD(T), (RO)-DLPNO pert. Triples
   Tobias Risthaus        : Range-separated hybrids, TD-DFT gradient, RPA, STAB
   Michael Roemelt        : Original ROCIS implementation
   Masaaki Saitow         : Open-shell DLPNO-CCSD energy and density
   Barbara Sandhoefer     : DKH picture change effects
   Avijit Sen             : IP-ROCIS
   Kantharuban Sivalingam : CASSCF convergence, NEVPT2, FIC-MRCI
   Bernardo de Souza      : ESD, SOC TD-DFT
   Georgi Stoychev        : AutoAux, RI-MP2 NMR
   Willem Van den Heuvel  : Paramagnetic NMR
   Boris Wezisla          : Elementary symmetry handling
   Frank Wennmohs         : Technical directorship


 We gratefully acknowledge several colleagues who have allowed us to
 interface, adapt or use parts of their codes:
   Stefan Grimme, W. Hujo, H. Kruse, P. Pracht,  : VdW corrections, initial TS optimization,
                  C. Bannwarth, S. Ehlert          DFT functionals, gCP, sTDA/sTD-DF
   Ed Valeev, F. Pavosevic, A. Kumar             : LibInt (2-el integral package), F12 methods
   Garnet Chan, S. Sharma, J. Yang, R. Olivares  : DMRG
   Ulf Ekstrom                                   : XCFun DFT Library
   Mihaly Kallay                                 : mrcc  (arbitrary order and MRCC methods)
   Jiri Pittner, Ondrej Demel                    : Mk-CCSD
   Frank Weinhold                                : gennbo (NPA and NBO analysis)
   Christopher J. Cramer and Donald G. Truhlar   : smd solvation model
   Lars Goerigk                                  : TD-DFT with DH, B97 family of functionals
   V. Asgeirsson, H. Jonsson                     : NEB implementation
   FAccTs GmbH                                   : IRC, NEB, NEB-TS, DLPNO-Multilevel, CI-OPT
                                                   MM, QMMM, 2- and 3-layer-ONIOM, Crystal-QMMM,
                                                   LR-CPCM, SF, NACMEs, symmetry and pop. for TD-DFT,
                                                   nearIR, NL-DFT gradient (VV10), updates on ESD,
                                                   ML-optimized integration grids
   S Lehtola, MJT Oliveira, MAL Marques          : LibXC Library
   Liviu Ungur et al                             : ANISO software


 Your calculation uses the libint2 library for the computation of 2-el integrals
 For citations please refer to: http://libint.valeyev.net

 Your ORCA version has been built with support for libXC version: 5.1.0
 For citations please refer to: https://tddft.org/programs/libxc/

 This ORCA versions uses:
   CBLAS   interface :  Fast vector & matrix operations
   LAPACKE interface :  Fast linear algebra routines
   SCALAPACK package :  Parallel linear algebra routines
   Shared memory     :  Shared parallel matrices
   BLAS/LAPACK       :  OpenBLAS 0.3.15  USE64BITINT DYNAMIC_ARCH NO_AFFINITY SkylakeX SINGLE_THREADED
        Core in use  :  SkylakeX
   Copyright (c) 2011-2014, The OpenBLAS Project


================================================================================

----- Orbital basis set information -----
Your calculation utilizes the basis: cc-pVTZ 
       H, B-Ne : Obtained from the ccRepo (grant-hill.group.shef.ac.uk/ccrepo) Feb. 2017
                 T. H. Dunning, Jr., J. Chem. Phys. 90, 1007 (1989)
            He : Obtained from the ccRepo (grant-hill.group.shef.ac.uk/ccrepo) Feb. 2017
                 D. E. Woon, T. H. Dunning, Jr., J. Chem. Phys. 100, 2975 (1994)
  Li-Be, Na-Mg : Obtained from the ccRepo (grant-hill.group.shef.ac.uk/ccrepo) Feb. 2017
                 B. P. Prascher, D. E. Woon, K. A. Peterson, T. H. Dunning, Jr., A. K. Wilson, Theor. Chem. Acc. 128, 69 (2011)
         Al-Ar : Obtained from the ccRepo (grant-hill.group.shef.ac.uk/ccrepo) Feb. 2017
                 D. E. Woon, T. H. Dunning, Jr., J. Chem. Phys. 98, 1358 (1993)
            Ca : Obtained from the Peterson Research Group Website (tyr0.chem.wsu.edu/~kipeters) Feb. 2017
                 J. Koput, K. A. Peterson, J. Phys. Chem. 106, 9595 (2002)
         Sc-Zn : Obtained from the ccRepo (grant-hill.group.shef.ac.uk/ccrepo) Feb. 2017
                 N. B. Balabanov, K. A. Peterson, J. Chem. Phys. 123, 064107 (2005)
                 N. B. Balabanov, K. A. Peterson, J. Chem. Phys. 125, 074110 (2006)
         Ga-Kr : Obtained from the ccRepo (grant-hill.group.shef.ac.uk/ccrepo) Feb. 2017
                 A. K. Wilson, D. E. Woon, K. A. Peterson, T. H. Dunning, Jr., J. Chem. Phys. 110, 7667 (1999)
             Y : Obtained from the ccRepo (grant-hill.group.shef.ac.uk/ccrepo) Feb. 2017
                 K. A. Peterson, D. Figgen, M. Dolg, H. Stoll, J. Chem. Phys. 126, 124101 (2007)
        Ag, Au : Obtained from the Peterson Research Group Website (tyr0.chem.wsu.edu/~kipeters) Feb. 2017
                 K. A. Peterson, C. Puzzarini, Theor. Chem. Acc. 114, 283 (2005)

----- AuxC basis set information -----
Your calculation utilizes the auxiliary basis: cc-pVTZ/C 
  Obtained from the EMSL Basis Set Exchange (bse.pnl.gov) Feb. 2017
  H-He, B-F, Al-Ar, Ga-Kr : F. Weigend, A. Kohn, C. Hattig, J. Chem. Phys. 116, 3175 (2002)
             Li-Be, Na-Mg : C. Haettig, Phys. Chem. Chem. Phys. 7, 59 (2005)
                       Ne : C. Haettig, Phys. Chem. Chem. Phys. 7, 59 (2005)
                            F. Weigend, A. Kohn, C. Hattig, J. Chem. Phys. 116, 3175 (2002)
                    Sc-Zn : J. G. Hill, J. A. Platts, J. Chem. Phys. 128, 044104 (2008)

================================================================================
                                        WARNINGS
                       Please study these warnings very carefully!
================================================================================


WARNING: No MP2 level density has been requested!
         To caclulate MP2 level properties use
         %mp2 Density relaxed end
         or
         %mp2 Density unrelaxed end

WARNING: Post HF methods need fully converged wavefunctions
  ===> : Setting SCFConvForced true
         You can overwrite this default with %scf ConvForced false 


INFO   : the flag for use of the SHARK integral package has been found!

================================================================================
                                       INPUT FILE
================================================================================
NAME = qm_input.solv
|  1> ! RI-MP2 cc-pVTZ cc-pVTZ/c TightSCF KeepDens NoKeepInts
|  2> 
|  3> %pointcharges "srfp_output"
|  4> 
|  5> *xyz  0  1
|  6>     C     6.2356043   -9.2236611    6.8377042
|  7>     C     7.5770311   -9.8269564    7.2021081
|  8>     O     8.6220577   -8.8493207    7.2111798
|  9>     C     9.9066454   -9.2480268    7.0644096
| 10>     O    10.1597829  -10.3245560    6.5510154
| 11>     C    10.9247487   -8.2182253    7.2795071
| 12>     C    10.6982229   -6.9515707    7.6852817
| 13>     C     9.3855095   -6.3169874    7.9757284
| 14>     N    11.7644577   -6.1022565    7.9836061
| 15>     C    13.0102239   -6.3799151    7.7464307
| 16>     S    14.2315003   -5.3468029    7.9280740
| 17>     N    13.2887839   -7.6051984    7.3142982
| 18>     C    12.2797218   -8.7520482    7.1001760
| 19>     C    12.6894293   -9.8013000    8.0836914
| 20>     C    12.1865422   -9.8328288    9.3719887
| 21>     C    12.6945818  -10.6414170   10.3950007
| 22>     C    13.8129867  -11.4576635   10.1104388
| 23>     C    14.3644134  -11.4461077    8.8394407
| 24>     O    15.5380018  -12.1132241    8.6731687
| 25>     C    13.7961511  -10.6361539    7.8011311
| 26>     H     5.5161800  -10.0167666    6.5997708
| 27>     H     6.3576655   -8.4790077    6.0415995
| 28>     H     5.7601106   -8.7025426    7.6776630
| 29>     H     7.5963878  -10.2670146    8.2066795
| 30>     H     7.7553458  -10.6515305    6.5010575
| 31>     H     8.7889744   -6.0817802    7.0857780
| 32>     H     9.4214851   -5.2854458    8.3469659
| 33>     H     8.7743959   -6.8601029    8.7069989
| 34>     H    11.5441853   -5.1734789    8.3224549
| 35>     H    14.2694128   -7.8584127    7.3289930
| 36>     H    12.4127920   -9.1066303    6.0707327
| 37>     H    11.4190184   -9.0906266    9.5705816
| 38>     H    12.1775651  -10.6442706   11.3500350
| 39>     H    14.2547692  -12.1208680   10.8482627
| 40>     H    15.6875788  -12.5972104    9.5038992
| 41>     H    14.3203226  -10.5964117    6.8508360
| 42> *
| 43> 
| 44>                          ****END OF INPUT****
================================================================================

                       ****************************
                       * Single Point Calculation *
                       ****************************

---------------------------------
CARTESIAN COORDINATES (ANGSTROEM)
---------------------------------
  C      6.235604   -9.223661    6.837704
  C      7.577031   -9.826956    7.202108
  O      8.622058   -8.849321    7.211180
  C      9.906645   -9.248027    7.064410
  O     10.159783  -10.324556    6.551015
  C     10.924749   -8.218225    7.279507
  C     10.698223   -6.951571    7.685282
  C      9.385509   -6.316987    7.975728
  N     11.764458   -6.102257    7.983606
  C     13.010224   -6.379915    7.746431
  S     14.231500   -5.346803    7.928074
  N     13.288784   -7.605198    7.314298
  C     12.279722   -8.752048    7.100176
  C     12.689429   -9.801300    8.083691
  C     12.186542   -9.832829    9.371989
  C     12.694582  -10.641417   10.395001
  C     13.812987  -11.457663   10.110439
  C     14.364413  -11.446108    8.839441
  O     15.538002  -12.113224    8.673169
  C     13.796151  -10.636154    7.801131
  H      5.516180  -10.016767    6.599771
  H      6.357666   -8.479008    6.041600
  H      5.760111   -8.702543    7.677663
  H      7.596388  -10.267015    8.206679
  H      7.755346  -10.651530    6.501057
  H      8.788974   -6.081780    7.085778
  H      9.421485   -5.285446    8.346966
  H      8.774396   -6.860103    8.706999
  H     11.544185   -5.173479    8.322455
  H     14.269413   -7.858413    7.328993
  H     12.412792   -9.106630    6.070733
  H     11.419018   -9.090627    9.570582
  H     12.177565  -10.644271   11.350035
  H     14.254769  -12.120868   10.848263
  H     15.687579  -12.597210    9.503899
  H     14.320323  -10.596412    6.850836

----------------------------
CARTESIAN COORDINATES (A.U.)
----------------------------
  NO LB      ZA    FRAG     MASS         X           Y           Z
   0 C     6.0000    0    12.011   11.783584  -17.430193   12.921388
   1 C     6.0000    0    12.011   14.318514  -18.570256   13.610012
   2 O     8.0000    0    15.999   16.293328  -16.722793   13.627155
   3 C     6.0000    0    12.011   18.720847  -17.476238   13.349799
   4 O     8.0000    0    15.999   19.199207  -19.510583   12.379625
   5 C     6.0000    0    12.011   20.644783  -15.530195   13.756275
   6 C     6.0000    0    12.011   20.216711  -13.136565   14.523078
   7 C     6.0000    0    12.011   17.736043  -11.937376   15.071942
   8 N     7.0000    0    14.007   22.231603  -11.531594   15.086829
   9 C     6.0000    0    12.011   24.585760  -12.056292   14.638633
  10 S    16.0000    0    32.060   26.893638  -10.103993   14.981889
  11 N     7.0000    0    14.007   25.112162  -14.371742   13.822020
  12 C     6.0000    0    12.011   23.205311  -16.538974   13.417388
  13 C     6.0000    0    12.011   23.979546  -18.521773   15.275963
  14 C     6.0000    0    12.011   23.029227  -18.581354   17.710492
  15 C     6.0000    0    12.011   23.989283  -20.109364   19.643704
  16 C     6.0000    0    12.011   26.102762  -21.651846   19.105960
  17 C     6.0000    0    12.011   27.144807  -21.630009   16.704122
  18 O     8.0000    0    15.999   29.362568  -22.890676   16.389914
  19 C     6.0000    0    12.011   26.070947  -20.099418   14.742001
  20 H     1.0000    0     1.008   10.424070  -18.928946   12.471759
  21 H     1.0000    0     1.008   12.014247  -16.023002   11.416968
  22 H     1.0000    0     1.008   10.885032  -16.445422   14.508680
  23 H     1.0000    0     1.008   14.355093  -19.401846   15.508377
  24 H     1.0000    0     1.008   14.655480  -20.128476   12.285218
  25 H     1.0000    0     1.008   16.608755  -11.492899   13.390180
  26 H     1.0000    0     1.008   17.804027   -9.988045   15.773480
  27 H     1.0000    0     1.008   16.581205  -12.963716   16.453843
  28 H     1.0000    0     1.008   21.815349   -9.776458   15.727161
  29 H     1.0000    0     1.008   26.965282  -14.850248   13.849790
  30 H     1.0000    0     1.008   23.456777  -17.209037   11.472022
  31 H     1.0000    0     1.008   21.578817  -17.178795   18.085778
  32 H     1.0000    0     1.008   23.012263  -20.114756   21.448458
  33 H     1.0000    0     1.008   26.937610  -22.905121   20.500246
  34 H     1.0000    0     1.008   29.645228  -23.805278   17.959767
  35 H     1.0000    0     1.008   27.061488  -20.024316   12.946204

--------------------------------
INTERNAL COORDINATES (ANGSTROEM)
--------------------------------
 C      0   0   0     0.000000000000     0.00000000     0.00000000
 C      1   0   0     1.515315571456     0.00000000     0.00000000
 O      2   1   0     1.431060604015   112.08528451     0.00000000
 C      3   2   1     1.353023874430   119.42685825   202.25061811
 O      4   3   2     1.219248669039   120.19714062    21.30107749
 C      4   3   2     1.463998768230   115.91469270   188.60350519
 C      6   4   3     1.349214897550   126.00125647     4.34770246
 C      7   6   4     1.486698261491   127.42506270   358.73489251
 N      7   6   4     1.395417036835   120.49149456   173.51254364
 C      9   7   6     1.298183305077   124.33344018     8.88012260
 S     10   9   7     1.609916504487   124.75723334   172.61267806
 N     10   9   7     1.328778889212   117.24590631   353.07353950
 C      6   4   3     1.467337259704   111.61146090   179.86243774
 C     13   6   4     1.495356852860   115.33399476   295.66933874
 C     14  13   6     1.383329112599   121.93241043   330.48997042
 C     15  14  13     1.399454416725   124.19321016   191.27392470
 C     16  15  14     1.413528685255   118.27580613     1.56779015
 C     17  16  15     1.385511137519   119.65379230   359.45079122
 O     18  17  16     1.360147198559   116.83720219   171.62686503
 C     14  13   6     1.414798395559   119.80279353   162.68773710
 H      1   2   3     1.096904718012   110.17584557   166.18052249
 H      1   2   3     1.096900321834   110.26156951    39.51277903
 H      1   2   3     1.096899966031   112.87612259   280.73450090
 H      2   1   3     1.096899994949   113.30242308   118.34929830
 H      2   1   3     1.096900415893   106.82801395   235.07830984
 H      8   7   6     1.096899387785   114.40700249   286.26209145
 H      8   7   6     1.096899994408   116.01252125   176.85014003
 H      8   7   6     1.096900552746   114.25678818    54.49817268
 H      9   7   6     1.012899930756   117.60996767   182.57992655
 H     12  10   9     1.012900023885   115.38872305   192.68622540
 H     13   6   4     1.096900019001   110.14071163    62.15234577
 H     15  14  13     1.086000013435   114.30868875     4.86988595
 H     16  15  14     1.086004109241   118.13436082   184.54783562
 H     17  16  15     1.086000043065   122.52961341   180.82096074
 H     19  18  17     0.973000093087   105.79765007     8.53218588
 H     20  14  13     1.085999991233   122.05468066   355.08377019

---------------------------
INTERNAL COORDINATES (A.U.)
---------------------------
 C      0   0   0     0.000000000000     0.00000000     0.00000000
 C      1   0   0     2.863531436517     0.00000000     0.00000000
 O      2   1   0     2.704312622632   112.08528451     0.00000000
 C      3   2   1     2.556844575329   119.42685825   202.25061811
 O      4   3   2     2.304046073631   120.19714062    21.30107749
 C      4   3   2     2.766556732353   115.91469270   188.60350519
 C      6   4   3     2.549646652177   126.00125647     4.34770246
 C      7   6   4     2.809452557994   127.42506270   358.73489251
 N      7   6   4     2.636956042225   120.49149456   173.51254364
 C      9   7   6     2.453210918225   124.33344018     8.88012260
 S     10   9   7     3.042301291961   124.75723334   172.61267806
 N     10   9   7     2.511028193147   117.24590631   353.07353950
 C      6   4   3     2.772865566939   111.61146090   179.86243774
 C     13   6   4     2.825814924389   115.33399476   295.66933874
 C     14  13   6     2.614113175892   121.93241043   330.48997042
 C     15  14  13     2.644585584517   124.19321016   191.27392470
 C     16  15  14     2.671182097573   118.27580613     1.56779015
 C     17  16  15     2.618236605409   119.65379230   359.45079122
 O     18  17  16     2.570305707096   116.83720219   171.62686503
 C     14  13   6     2.673581502318   119.80279353   162.68773710
 H      1   2   3     2.072849512048   110.17584557   166.18052249
 H      1   2   3     2.072841204476   110.26156951    39.51277903
 H      1   2   3     2.072840532107   112.87612259   280.73450090
 H      2   1   3     2.072840586754   113.30242308   118.34929830
 H      2   1   3     2.072841382223   106.82801395   235.07830984
 H      8   7   6     2.072839439380   114.40700249   286.26209145
 H      8   7   6     2.072840585731   116.01252125   176.85014003
 H      8   7   6     2.072841640838   114.25678818    54.49817268
 H      9   7   6     1.914103470196   117.60996767   182.57992655
 H     12  10   9     1.914103646185   115.38872305   192.68622540
 H     13   6   4     2.072840632204   110.14071163    62.15234577
 H     15  14  13     2.052242606828   114.30868875     4.86988595
 H     16  15  14     2.052250346779   118.13436082   184.54783562
 H     17  16  15     2.052242662820   122.52961341   180.82096074
 H     19  18  17     1.838703704214   105.79765007     8.53218588
 H     20  14  13     2.052242564870   122.05468066   355.08377019

---------------------
BASIS SET INFORMATION
---------------------
There are 5 groups of distinct atoms

 Group   1 Type C   : 18s5p2d1f contracted to 4s3p2d1f pattern {8811/311/11/1}
 Group   2 Type O   : 18s5p2d1f contracted to 4s3p2d1f pattern {8811/311/11/1}
 Group   3 Type N   : 18s5p2d1f contracted to 4s3p2d1f pattern {8811/311/11/1}
 Group   4 Type S   : 41s16p2d1f contracted to 5s4p2d1f pattern {13131311/7711/11/1}
 Group   5 Type H   : 5s2p1d contracted to 3s2p1d pattern {311/11/1}

Atom   0C    basis set group =>   1
Atom   1C    basis set group =>   1
Atom   2O    basis set group =>   2
Atom   3C    basis set group =>   1
Atom   4O    basis set group =>   2
Atom   5C    basis set group =>   1
Atom   6C    basis set group =>   1
Atom   7C    basis set group =>   1
Atom   8N    basis set group =>   3
Atom   9C    basis set group =>   1
Atom  10S    basis set group =>   4
Atom  11N    basis set group =>   3
Atom  12C    basis set group =>   1
Atom  13C    basis set group =>   1
Atom  14C    basis set group =>   1
Atom  15C    basis set group =>   1
Atom  16C    basis set group =>   1
Atom  17C    basis set group =>   1
Atom  18O    basis set group =>   2
Atom  19C    basis set group =>   1
Atom  20H    basis set group =>   5
Atom  21H    basis set group =>   5
Atom  22H    basis set group =>   5
Atom  23H    basis set group =>   5
Atom  24H    basis set group =>   5
Atom  25H    basis set group =>   5
Atom  26H    basis set group =>   5
Atom  27H    basis set group =>   5
Atom  28H    basis set group =>   5
Atom  29H    basis set group =>   5
Atom  30H    basis set group =>   5
Atom  31H    basis set group =>   5
Atom  32H    basis set group =>   5
Atom  33H    basis set group =>   5
Atom  34H    basis set group =>   5
Atom  35H    basis set group =>   5
---------------------------------
AUXILIARY/C BASIS SET INFORMATION
---------------------------------
There are 5 groups of distinct atoms

 Group   1 Type C   : 8s6p5d3f1g contracted to 8s6p5d3f1g pattern {11111111/111111/11111/111/1}
 Group   2 Type O   : 8s6p5d3f1g contracted to 8s6p5d3f1g pattern {11111111/111111/11111/111/1}
 Group   3 Type N   : 8s6p5d3f1g contracted to 8s6p5d3f1g pattern {11111111/111111/11111/111/1}
 Group   4 Type S   : 10s8p7d5f2g contracted to 10s8p7d5f2g pattern {1111111111/11111111/1111111/11111/11}
 Group   5 Type H   : 4s3p2d1f contracted to 4s3p2d1f pattern {1111/111/11/1}

Atom   0C    basis set group =>   1
Atom   1C    basis set group =>   1
Atom   2O    basis set group =>   2
Atom   3C    basis set group =>   1
Atom   4O    basis set group =>   2
Atom   5C    basis set group =>   1
Atom   6C    basis set group =>   1
Atom   7C    basis set group =>   1
Atom   8N    basis set group =>   3
Atom   9C    basis set group =>   1
Atom  10S    basis set group =>   4
Atom  11N    basis set group =>   3
Atom  12C    basis set group =>   1
Atom  13C    basis set group =>   1
Atom  14C    basis set group =>   1
Atom  15C    basis set group =>   1
Atom  16C    basis set group =>   1
Atom  17C    basis set group =>   1
Atom  18O    basis set group =>   2
Atom  19C    basis set group =>   1
Atom  20H    basis set group =>   5
Atom  21H    basis set group =>   5
Atom  22H    basis set group =>   5
Atom  23H    basis set group =>   5
Atom  24H    basis set group =>   5
Atom  25H    basis set group =>   5
Atom  26H    basis set group =>   5
Atom  27H    basis set group =>   5
Atom  28H    basis set group =>   5
Atom  29H    basis set group =>   5
Atom  30H    basis set group =>   5
Atom  31H    basis set group =>   5
Atom  32H    basis set group =>   5
Atom  33H    basis set group =>   5
Atom  34H    basis set group =>   5
Atom  35H    basis set group =>   5
------------------------------------------------------------------------------
                           ORCA GTO INTEGRAL CALCULATION
------------------------------------------------------------------------------
------------------------------------------------------------------------------
                   ___                                                        
                  /   \      - P O W E R E D   B Y -                         
                 /     \                                                     
                 |  |  |   _    _      __       _____    __    __             
                 |  |  |  | |  | |    /  \     |  _  \  |  |  /  |          
                  \  \/   | |  | |   /    \    | | | |  |  | /  /          
                 / \  \   | |__| |  /  /\  \   | |_| |  |  |/  /          
                |  |  |   |  __  | /  /__\  \  |    /   |      \           
                |  |  |   | |  | | |   __   |  |    \   |  |\   \          
                \     /   | |  | | |  |  |  |  | |\  \  |  | \   \       
                 \___/    |_|  |_| |__|  |__|  |_| \__\ |__|  \__/        
                                                                              
                      - O R C A' S   B I G   F R I E N D -                    
                                      &                                       
                       - I N T E G R A L  F E E D E R -                       
                                                                              
 v1 FN, 2020, v2 2021                                                         
------------------------------------------------------------------------------


Reading SHARK input file qm_input.solv.SHARKINP.tmp ... ok
----------------------
SHARK INTEGRAL PACKAGE
----------------------

Number of atoms                             ...     36
Number of basis functions                   ...    828
Number of shells                            ...    298
Maximum angular momentum                    ...      3
Integral batch strategy                     ... SHARK/LIBINT Hybrid
RI-J (if used) integral strategy            ... SPLIT-RIJ (Revised 2003 algorithm where possible)
Printlevel                                  ...      1
Contraction scheme used                     ... SEGMENTED contraction
Coulomb Range Separation                    ... NOT USED
Exchange Range Separation                   ... NOT USED
Finite Nucleus Model                        ... NOT USED
Auxiliary Coulomb fitting basis             ... NOT available
Auxiliary J/K fitting basis                 ... NOT available
Auxiliary Correlation fitting basis         ... AVAILABLE
   # of basis functions in Aux-C            ...   2141
   # of shells in Aux-C                     ...    629
   Maximum angular momentum in Aux-C        ...      4
Auxiliary 'external' fitting basis          ... NOT available
Integral threshold                          ...     2.500000e-11
Primitive cut-off                           ...     2.500000e-12
Primitive pair pre-selection threshold      ...     2.500000e-12

Calculating pre-screening integrals         ... done (  0.6 sec) Dimension = 298
Organizing shell pair data                  ... done (  0.4 sec)
Shell pair information
Total number of shell pairs                 ...     44551
Shell pairs after pre-screening             ...     31841
Total number of primitive shell pairs       ...    234348
Primitive shell pairs kept                  ...     92723
          la=0 lb=0:   6351 shell pairs
          la=1 lb=0:   8849 shell pairs
          la=1 lb=1:   3139 shell pairs
          la=2 lb=0:   5068 shell pairs
          la=2 lb=1:   3492 shell pairs
          la=2 lb=2:    982 shell pairs
          la=3 lb=0:   1842 shell pairs
          la=3 lb=1:   1264 shell pairs
          la=3 lb=2:    712 shell pairs
          la=3 lb=3:    142 shell pairs

Reading point charge file                   ... ok (45304 point charges)
Calculating one electron integrals          ... done (225.2 sec)
Calculating RI/C V-Matrix + Cholesky decomp.... done (  0.3 sec)
Calculating Nuclear repulsion               ... (+Point charges) done (  0.0 sec) ENN=   1752.352341780407 Eh

SHARK setup successfully completed in 226.7 seconds

Maximum memory used throughout the entire GTOINT-calculation: 476.4 MB
ENUC WAS=  0.000000000
ENUC IS =  0.000000000
-------------------------------------------------------------------------------
                                 ORCA SCF
-------------------------------------------------------------------------------

------------
SCF SETTINGS
------------
Hamiltonian:
 Ab initio Hamiltonian  Method          .... Hartree-Fock(GTOs)


General Settings:
 Integral files         IntName         .... qm_input.solv
 Hartree-Fock type      HFTyp           .... RHF
 Total Charge           Charge          ....    0
 Multiplicity           Mult            ....    1
 Number of Electrons    NEL             ....  154
 Basis Dimension        Dim             ....  828
 Nuclear Repulsion      ENuc            ....   1752.3523417804 Eh

Convergence Acceleration:
 DIIS                   CNVDIIS         .... on
   Start iteration      DIISMaxIt       ....    12
   Startup error        DIISStart       ....  0.200000
   # of expansion vecs  DIISMaxEq       ....     5
   Bias factor          DIISBfac        ....   1.050
   Max. coefficient     DIISMaxC        ....  10.000
 Trust-Rad. Augm. Hess. CNVTRAH         .... auto
   Auto Start mean grad. ratio tolernc. ....  1.125000
   Auto Start start iteration           ....    20
   Auto Start num. interpolation iter.  ....    10
   Max. Number of Micro iterations      ....    16
   Max. Number of Macro iterations      .... Maxiter - #DIIS iter
   Number of Davidson start vectors     ....     2
   Converg. threshold I  (grad. norm)   ....   1.000e-05
   Converg. threshold II (energy diff.) ....   1.000e-08
   Grad. Scal. Fac. for Micro threshold ....   0.100
   Minimum threshold for Micro iter.    ....   0.010
   NR start threshold (gradient norm)   ....   0.001
   Initial trust radius                 ....   0.400
   Minimum AH scaling param. (alpha)    ....   1.000
   Maximum AH scaling param. (alpha)    .... 1000.000
   Orbital update algorithm             .... Taylor
   White noise on init. David. guess    .... on
   Maximum white noise                  ....   0.010
   Quad. conv. algorithm                .... NR
 SOSCF                  CNVSOSCF        .... on
   Start iteration      SOSCFMaxIt      ....   150
   Startup grad/error   SOSCFStart      ....  0.003300
 Level Shifting         CNVShift        .... on
   Level shift para.    LevelShift      ....    0.2500
   Turn off err/grad.   ShiftErr        ....    0.0010
 Zerner damping         CNVZerner       .... off
 Static damping         CNVDamp         .... on
   Fraction old density DampFac         ....    0.7000
   Max. Damping (<1)    DampMax         ....    0.9800
   Min. Damping (>=0)   DampMin         ....    0.0000
   Turn off err/grad.   DampErr         ....    0.1000
 Fernandez-Rico         CNVRico         .... off

SCF Procedure:
 Maximum # iterations   MaxIter         ....   125
 SCF integral mode      SCFMode         .... Direct
   Integral package                     .... SHARK and LIBINT hybrid scheme
 Reset frequency        DirectResetFreq ....    20
 Integral Threshold     Thresh          ....  2.500e-11 Eh
 Primitive CutOff       TCut            ....  2.500e-12 Eh

Convergence Tolerance:
 Convergence Check Mode ConvCheckMode   .... Total+1el-Energy
 Convergence forced     ConvForced      .... 1
 Energy Change          TolE            ....  1.000e-08 Eh
 1-El. energy change                    ....  1.000e-05 Eh
 Orbital Gradient       TolG            ....  1.000e-05
 Orbital Rotation angle TolX            ....  1.000e-05
 DIIS Error             TolErr          ....  5.000e-07


Diagonalization of the overlap matrix:
Smallest eigenvalue                        ... 3.669e-05
Time for diagonalization                   ...    0.130 sec
Threshold for overlap eigenvalues          ... 1.000e-08
Number of eigenvalues below threshold      ... 0
Time for construction of square roots      ...    0.074 sec
Total time needed                          ...    0.206 sec

Time for model grid setup =    1.489 sec

------------------------------
INITIAL GUESS: MODEL POTENTIAL
------------------------------
Loading Hartree-Fock densities                     ... done
Calculating cut-offs                               ... done
Initializing the effective Hamiltonian             ... done
Setting up the integral package (SHARK)            ... done
Starting the Coulomb interaction                   ... done (   3.9 sec)
Reading the grid                                   ... done
Mapping shells                                     ... done
Starting the XC term evaluation                    ... done (   1.4 sec)
Transforming the Hamiltonian                       ... done (   0.1 sec)
Diagonalizing the Hamiltonian                      ... done (   0.1 sec)
Back transforming the eigenvectors                 ... done (   0.0 sec)
Now organizing SCF variables                       ... done
                      ------------------
                      INITIAL GUESS DONE (   7.1 sec)
                      ------------------
--------------
SCF ITERATIONS
--------------
ITER       Energy         Delta-E        Max-DP      RMS-DP      [F,P]     Damp
               ***  Starting incremental Fock matrix formation  ***
  0  -1270.0528438079   0.000000000000 0.04808063  0.00050289  0.3834875 0.7000
  1  -1270.3485239780  -0.295680170145 0.03577530  0.00040974  0.2230257 0.7000
                               ***Turning on DIIS***
  2  -1270.5316065042  -0.183082526231 0.02600721  0.00026662  0.1183816 0.7000
  3  -1272.7072144473  -2.175607943060 0.06502439  0.00054752  0.0845734 0.0000
  4  -1270.8780267160   1.829187731292 0.00974286  0.00011202  0.0084509 0.0000
  5  -1270.9321238498  -0.054097133809 0.00645924  0.00006107  0.0056069 0.0000
  6  -1270.9108763266   0.021247523160 0.00359983  0.00002996  0.0038915 0.0000
                      *** Initiating the SOSCF procedure ***
                           *** Shutting down DIIS ***
                      *** Re-Reading the Fockian *** 
                      *** Removing any level shift *** 
ITER      Energy       Delta-E        Grad      Rot      Max-DP    RMS-DP
  7  -1270.92680798  -0.0159316557  0.001027  0.001027  0.002063  0.000017
               *** Restarting incremental Fock matrix formation ***
  8  -1270.92769380  -0.0008858195  0.000456  0.001097  0.000824  0.000008
  9  -1270.92770748  -0.0000136786  0.000218  0.001260  0.000989  0.000010
 10  -1270.92771266  -0.0000051798  0.000085  0.000115  0.000185  0.000002
 11  -1270.92771319  -0.0000005342  0.000034  0.000067  0.000084  0.000001
 12  -1270.92771328  -0.0000000888  0.000013  0.000056  0.000033  0.000000
 13  -1270.92771330  -0.0000000199  0.000008  0.000039  0.000015  0.000000
 14  -1270.92771331  -0.0000000055  0.000003  0.000006  0.000006  0.000000
                  ***Gradient check signals convergence***
              ***Rediagonalizing the Fockian in SOSCF/NRSCF***

               *****************************************************
               *                     SUCCESS                       *
               *           SCF CONVERGED AFTER  15 CYCLES          *
               *****************************************************


----------------
TOTAL SCF ENERGY
----------------

Total Energy       :        -1270.92771331 Eh          -34583.70128 eV

Components:
Nuclear Repulsion  :         1752.35234178 Eh           47683.93142 eV
Electronic Energy  :        -3023.28005509 Eh          -82267.63270 eV
One Electron Energy:        -5162.14388570 Eh         -140469.07644 eV
Two Electron Energy:         2138.86383061 Eh           58201.44374 eV

Virial components:
Potential Energy   :        -2540.71882252 Eh          -69136.47399 eV
Kinetic Energy     :         1269.79110921 Eh           34552.77271 eV
Virial Ratio       :            2.00089511


---------------
SCF CONVERGENCE
---------------

  Last Energy change         ...   -1.1337e-09  Tolerance :   1.0000e-08
  Last MAX-Density change    ...    3.6098e-06  Tolerance :   1.0000e-07
  Last RMS-Density change    ...    2.6176e-08  Tolerance :   5.0000e-09
  Last Orbital Gradient      ...    6.9802e-07  Tolerance :   1.0000e-05
  Last Orbital Rotation      ...    1.7946e-06  Tolerance :   1.0000e-05

             **** THE GBW FILE WAS UPDATED (qm_input.solv.gbw) ****
             **** DENSITY qm_input.solv.scfp WAS UPDATED ****
             **** ENERGY FILE WAS UPDATED (qm_input.solv.en.tmp) ****
             **** THE GBW FILE WAS UPDATED (qm_input.solv.gbw) ****
             **** DENSITY qm_input.solv.scfp WAS UPDATED ****
----------------
ORBITAL ENERGIES
----------------

  NO   OCC          E(Eh)            E(eV) 
   0   2.0000     -92.326609     -2512.3348 
   1   2.0000     -21.012689      -571.7843 
   2   2.0000     -20.997245      -571.3641 
   3   2.0000     -20.972920      -570.7022 
   4   2.0000     -16.041582      -436.5136 
   5   2.0000     -16.019569      -435.9146 
   6   2.0000     -11.818647      -321.6017 
   7   2.0000     -11.798297      -321.0480 
   8   2.0000     -11.750635      -319.7510 
   9   2.0000     -11.720228      -318.9236 
  10   2.0000     -11.717117      -318.8390 
  11   2.0000     -11.690805      -318.1230 
  12   2.0000     -11.665726      -317.4406 
  13   2.0000     -11.665646      -317.4384 
  14   2.0000     -11.660755      -317.3053 
  15   2.0000     -11.652160      -317.0714 
  16   2.0000     -11.645477      -316.8896 
  17   2.0000     -11.644883      -316.8734 
  18   2.0000     -11.638791      -316.7076 
  19   2.0000     -11.621691      -316.2423 
  20   2.0000      -9.335994      -254.0453 
  21   2.0000      -7.018341      -190.9788 
  22   2.0000      -7.015939      -190.9134 
  23   2.0000      -7.015581      -190.9037 
  24   2.0000      -1.880387       -51.1679 
  25   2.0000      -1.817156       -49.4473 
  26   2.0000      -1.783973       -48.5444 
  27   2.0000      -1.781836       -48.4862 
  28   2.0000      -1.655396       -45.0456 
  29   2.0000      -1.579161       -42.9712 
  30   2.0000      -1.545271       -42.0490 
  31   2.0000      -1.461083       -39.7581 
  32   2.0000      -1.448871       -39.4258 
  33   2.0000      -1.422071       -38.6965 
  34   2.0000      -1.416821       -38.5536 
  35   2.0000      -1.410109       -38.3710 
  36   2.0000      -1.340661       -36.4813 
  37   2.0000      -1.301600       -35.4183 
  38   2.0000      -1.276330       -34.7307 
  39   2.0000      -1.252637       -34.0860 
  40   2.0000      -1.237630       -33.6776 
  41   2.0000      -1.223644       -33.2970 
  42   2.0000      -1.177229       -32.0340 
  43   2.0000      -1.167855       -31.7790 
  44   2.0000      -1.134564       -30.8731 
  45   2.0000      -1.109453       -30.1898 
  46   2.0000      -1.102974       -30.0135 
  47   2.0000      -1.097367       -29.8609 
  48   2.0000      -1.091866       -29.7112 
  49   2.0000      -1.075875       -29.2760 
  50   2.0000      -1.065859       -29.0035 
  51   2.0000      -1.053113       -28.6567 
  52   2.0000      -1.050487       -28.5852 
  53   2.0000      -1.025635       -27.9089 
  54   2.0000      -1.007616       -27.4186 
  55   2.0000      -1.007586       -27.4178 
  56   2.0000      -0.998688       -27.1757 
  57   2.0000      -0.995344       -27.0847 
  58   2.0000      -0.986252       -26.8373 
  59   2.0000      -0.976748       -26.5787 
  60   2.0000      -0.966676       -26.3046 
  61   2.0000      -0.960673       -26.1412 
  62   2.0000      -0.951458       -25.8905 
  63   2.0000      -0.936760       -25.4905 
  64   2.0000      -0.923231       -25.1224 
  65   2.0000      -0.920784       -25.0558 
  66   2.0000      -0.914050       -24.8726 
  67   2.0000      -0.901670       -24.5357 
  68   2.0000      -0.893775       -24.3209 
  69   2.0000      -0.888407       -24.1748 
  70   2.0000      -0.876289       -23.8450 
  71   2.0000      -0.861848       -23.4521 
  72   2.0000      -0.785920       -21.3860 
  73   2.0000      -0.779592       -21.2138 
  74   2.0000      -0.761824       -20.7303 
  75   2.0000      -0.750509       -20.4224 
  76   2.0000      -0.728217       -19.8158 
  77   0.0000      -0.345866        -9.4115 
  78   0.0000      -0.300753        -8.1839 
  79   0.0000      -0.281233        -7.6527 
  80   0.0000      -0.266404        -7.2492 
  81   0.0000      -0.249209        -6.7813 
  82   0.0000      -0.239464        -6.5161 
  83   0.0000      -0.236836        -6.4446 
  84   0.0000      -0.230994        -6.2857 
  85   0.0000      -0.228546        -6.2190 
  86   0.0000      -0.217590        -5.9209 
  87   0.0000      -0.205622        -5.5953 
  88   0.0000      -0.199001        -5.4151 
  89   0.0000      -0.196887        -5.3576 
  90   0.0000      -0.190997        -5.1973 
  91   0.0000      -0.182459        -4.9650 
  92   0.0000      -0.180679        -4.9165 
  93   0.0000      -0.167682        -4.5628 
  94   0.0000      -0.160625        -4.3708 
  95   0.0000      -0.153788        -4.1848 
  96   0.0000      -0.142658        -3.8819 
  97   0.0000      -0.139944        -3.8081 
  98   0.0000      -0.132806        -3.6138 
  99   0.0000      -0.121796        -3.3142 
 100   0.0000      -0.114956        -3.1281 
 101   0.0000      -0.097274        -2.6470 
 102   0.0000      -0.087703        -2.3865 
 103   0.0000      -0.081207        -2.2097 
 104   0.0000      -0.074693        -2.0325 
 105   0.0000      -0.072961        -1.9854 
 106   0.0000      -0.061890        -1.6841 
 107   0.0000      -0.051842        -1.4107 
 108   0.0000      -0.049687        -1.3520 
 109   0.0000      -0.041193        -1.1209 
 110   0.0000      -0.024024        -0.6537 
 111   0.0000      -0.015885        -0.4322 
 112   0.0000      -0.007515        -0.2045 
 113   0.0000      -0.000152        -0.0041 
 114   0.0000       0.000970         0.0264 
 115   0.0000       0.005528         0.1504 
 116   0.0000       0.006659         0.1812 
 117   0.0000       0.007541         0.2052 
 118   0.0000       0.014709         0.4002 
 119   0.0000       0.020191         0.5494 
 120   0.0000       0.025258         0.6873 
 121   0.0000       0.033596         0.9142 
 122   0.0000       0.042757         1.1635 
 123   0.0000       0.046753         1.2722 
 124   0.0000       0.055992         1.5236 
 125   0.0000       0.061702         1.6790 
 126   0.0000       0.063855         1.7376 
 127   0.0000       0.067727         1.8429 
 128   0.0000       0.075321         2.0496 
 129   0.0000       0.085829         2.3355 
 130   0.0000       0.087934         2.3928 
 131   0.0000       0.092560         2.5187 
 132   0.0000       0.098078         2.6688 
 133   0.0000       0.107308         2.9200 
 134   0.0000       0.112357         3.0574 
 135   0.0000       0.116295         3.1646 
 136   0.0000       0.125256         3.4084 
 137   0.0000       0.126121         3.4319 
 138   0.0000       0.142543         3.8788 
 139   0.0000       0.144366         3.9284 
 140   0.0000       0.148763         4.0480 
 141   0.0000       0.154240         4.1971 
 142   0.0000       0.158863         4.3229 
 143   0.0000       0.164756         4.4832 
 144   0.0000       0.165502         4.5035 
 145   0.0000       0.170243         4.6326 
 146   0.0000       0.177621         4.8333 
 147   0.0000       0.180654         4.9158 
 148   0.0000       0.185977         5.0607 
 149   0.0000       0.198609         5.4044 
 150   0.0000       0.202977         5.5233 
 151   0.0000       0.211370         5.7517 
 152   0.0000       0.213997         5.8232 
 153   0.0000       0.215588         5.8664 
 154   0.0000       0.218701         5.9512 
 155   0.0000       0.227595         6.1932 
 156   0.0000       0.235098         6.3973 
 157   0.0000       0.236401         6.4328 
 158   0.0000       0.244042         6.6407 
 159   0.0000       0.253040         6.8856 
 160   0.0000       0.254675         6.9301 
 161   0.0000       0.259627         7.0648 
 162   0.0000       0.264673         7.2021 
 163   0.0000       0.267062         7.2671 
 164   0.0000       0.269097         7.3225 
 165   0.0000       0.272987         7.4284 
 166   0.0000       0.276884         7.5344 
 167   0.0000       0.283157         7.7051 
 168   0.0000       0.288646         7.8544 
 169   0.0000       0.290930         7.9166 
 170   0.0000       0.302277         8.2254 
 171   0.0000       0.303579         8.2608 
 172   0.0000       0.313307         8.5255 
 173   0.0000       0.316344         8.6082 
 174   0.0000       0.320104         8.7105 
 175   0.0000       0.324772         8.8375 
 176   0.0000       0.329659         8.9705 
 177   0.0000       0.333219         9.0674 
 178   0.0000       0.338174         9.2022 
 179   0.0000       0.346270         9.4225 
 180   0.0000       0.351345         9.5606 
 181   0.0000       0.360976         9.8227 
 182   0.0000       0.373960        10.1760 
 183   0.0000       0.384471        10.4620 
 184   0.0000       0.387797        10.5525 
 185   0.0000       0.392606        10.6834 
 186   0.0000       0.411301        11.1921 
 187   0.0000       0.416219        11.3259 
 188   0.0000       0.422201        11.4887 
 189   0.0000       0.437127        11.8948 
 190   0.0000       0.444051        12.0832 
 191   0.0000       0.445051        12.1104 
 192   0.0000       0.451028        12.2731 
 193   0.0000       0.460180        12.5221 
 194   0.0000       0.465191        12.6585 
 195   0.0000       0.470643        12.8069 
 196   0.0000       0.474137        12.9019 
 197   0.0000       0.485286        13.2053 
 198   0.0000       0.496608        13.5134 
 199   0.0000       0.502873        13.6839 
 200   0.0000       0.505745        13.7620 
 201   0.0000       0.509725        13.8703 
 202   0.0000       0.518564        14.1108 
 203   0.0000       0.521699        14.1961 
 204   0.0000       0.529672        14.4131 
 205   0.0000       0.540873        14.7179 
 206   0.0000       0.544316        14.8116 
 207   0.0000       0.548797        14.9335 
 208   0.0000       0.565489        15.3877 
 209   0.0000       0.571714        15.5571 
 210   0.0000       0.574348        15.6288 
 211   0.0000       0.581990        15.8368 
 212   0.0000       0.593811        16.1584 
 213   0.0000       0.599999        16.3268 
 214   0.0000       0.602556        16.3964 
 215   0.0000       0.606192        16.4953 
 216   0.0000       0.613587        16.6966 
 217   0.0000       0.625706        17.0263 
 218   0.0000       0.628998        17.1159 
 219   0.0000       0.642671        17.4880 
 220   0.0000       0.652868        17.7654 
 221   0.0000       0.656415        17.8620 
 222   0.0000       0.659320        17.9410 
 223   0.0000       0.665285        18.1033 
 224   0.0000       0.675031        18.3685 
 225   0.0000       0.680269        18.5111 
 226   0.0000       0.685761        18.6605 
 227   0.0000       0.692070        18.8322 
 228   0.0000       0.696894        18.9634 
 229   0.0000       0.703094        19.1322 
 230   0.0000       0.715421        19.4676 
 231   0.0000       0.719222        19.5710 
 232   0.0000       0.722358        19.6563 
 233   0.0000       0.740236        20.1428 
 234   0.0000       0.743070        20.2200 
 235   0.0000       0.747453        20.3392 
 236   0.0000       0.762795        20.7567 
 237   0.0000       0.771135        20.9836 
 238   0.0000       0.776838        21.1388 
 239   0.0000       0.791808        21.5462 
 240   0.0000       0.798575        21.7303 
 241   0.0000       0.800649        21.7868 
 242   0.0000       0.802138        21.8273 
 243   0.0000       0.814622        22.1670 
 244   0.0000       0.825980        22.4761 
 245   0.0000       0.834546        22.7092 
 246   0.0000       0.840538        22.8722 
 247   0.0000       0.850047        23.1309 
 248   0.0000       0.853080        23.2135 
 249   0.0000       0.855545        23.2806 
 250   0.0000       0.861892        23.4533 
 251   0.0000       0.873594        23.7717 
 252   0.0000       0.879019        23.9193 
 253   0.0000       0.884164        24.0593 
 254   0.0000       0.896942        24.4070 
 255   0.0000       0.899062        24.4647 
 256   0.0000       0.900981        24.5169 
 257   0.0000       0.908268        24.7152 
 258   0.0000       0.915719        24.9180 
 259   0.0000       0.927215        25.2308 
 260   0.0000       0.936409        25.4810 
 261   0.0000       0.939715        25.5709 
 262   0.0000       0.956017        26.0146 
 263   0.0000       0.964625        26.2488 
 264   0.0000       0.973878        26.5006 
 265   0.0000       0.980717        26.6867 
 266   0.0000       0.990990        26.9662 
 267   0.0000       0.993139        27.0247 
 268   0.0000       1.008465        27.4417 
 269   0.0000       1.015078        27.6217 
 270   0.0000       1.029832        28.0232 
 271   0.0000       1.033608        28.1259 
 272   0.0000       1.037321        28.2269 
 273   0.0000       1.048476        28.5305 
 274   0.0000       1.052895        28.6507 
 275   0.0000       1.062580        28.9143 
 276   0.0000       1.068654        29.0796 
 277   0.0000       1.079537        29.3757 
 278   0.0000       1.091037        29.6886 
 279   0.0000       1.095043        29.7976 
 280   0.0000       1.099403        29.9163 
 281   0.0000       1.106614        30.1125 
 282   0.0000       1.112794        30.2807 
 283   0.0000       1.115167        30.3452 
 284   0.0000       1.122798        30.5529 
 285   0.0000       1.132438        30.8152 
 286   0.0000       1.134839        30.8805 
 287   0.0000       1.142687        31.0941 
 288   0.0000       1.147893        31.2358 
 289   0.0000       1.152135        31.3512 
 290   0.0000       1.156406        31.4674 
 291   0.0000       1.160912        31.5900 
 292   0.0000       1.175042        31.9745 
 293   0.0000       1.178096        32.0576 
 294   0.0000       1.188114        32.3302 
 295   0.0000       1.194568        32.5059 
 296   0.0000       1.204782        32.7838 
 297   0.0000       1.207633        32.8614 
 298   0.0000       1.213526        33.0217 
 299   0.0000       1.227423        33.3999 
 300   0.0000       1.230630        33.4871 
 301   0.0000       1.238395        33.6985 
 302   0.0000       1.247588        33.9486 
 303   0.0000       1.250402        34.0252 
 304   0.0000       1.256926        34.2027 
 305   0.0000       1.266574        34.4652 
 306   0.0000       1.274758        34.6879 
 307   0.0000       1.282756        34.9056 
 308   0.0000       1.301730        35.4219 
 309   0.0000       1.311084        35.6764 
 310   0.0000       1.312333        35.7104 
 311   0.0000       1.319808        35.9138 
 312   0.0000       1.327466        36.1222 
 313   0.0000       1.332549        36.2605 
 314   0.0000       1.353709        36.8363 
 315   0.0000       1.362083        37.0642 
 316   0.0000       1.365014        37.1439 
 317   0.0000       1.379632        37.5417 
 318   0.0000       1.382794        37.6277 
 319   0.0000       1.390545        37.8387 
 320   0.0000       1.408967        38.3399 
 321   0.0000       1.415427        38.5157 
 322   0.0000       1.423967        38.7481 
 323   0.0000       1.430924        38.9374 
 324   0.0000       1.444617        39.3100 
 325   0.0000       1.457231        39.6533 
 326   0.0000       1.464589        39.8535 
 327   0.0000       1.487522        40.4775 
 328   0.0000       1.494810        40.6758 
 329   0.0000       1.498384        40.7731 
 330   0.0000       1.515479        41.2383 
 331   0.0000       1.525593        41.5135 
 332   0.0000       1.539619        41.8952 
 333   0.0000       1.551091        42.2073 
 334   0.0000       1.554236        42.2929 
 335   0.0000       1.561049        42.4783 
 336   0.0000       1.573801        42.8253 
 337   0.0000       1.585650        43.1477 
 338   0.0000       1.598162        43.4882 
 339   0.0000       1.601162        43.5698 
 340   0.0000       1.612203        43.8703 
 341   0.0000       1.629864        44.3508 
 342   0.0000       1.635911        44.5154 
 343   0.0000       1.656929        45.0873 
 344   0.0000       1.677379        45.6438 
 345   0.0000       1.699530        46.2466 
 346   0.0000       1.713970        46.6395 
 347   0.0000       1.725081        46.9419 
 348   0.0000       1.745880        47.5078 
 349   0.0000       1.756735        47.8032 
 350   0.0000       1.782318        48.4993 
 351   0.0000       1.794152        48.8214 
 352   0.0000       1.798170        48.9307 
 353   0.0000       1.804461        49.1019 
 354   0.0000       1.829814        49.7918 
 355   0.0000       1.831076        49.8261 
 356   0.0000       1.844949        50.2036 
 357   0.0000       1.866521        50.7906 
 358   0.0000       1.878088        51.1054 
 359   0.0000       1.887530        51.3623 
 360   0.0000       1.898233        51.6535 
 361   0.0000       1.912002        52.0282 
 362   0.0000       1.932218        52.5783 
 363   0.0000       1.942342        52.8538 
 364   0.0000       1.946657        52.9712 
 365   0.0000       1.961841        53.3844 
 366   0.0000       1.974126        53.7187 
 367   0.0000       1.980815        53.9007 
 368   0.0000       1.999356        54.4052 
 369   0.0000       2.021389        55.0048 
 370   0.0000       2.036530        55.4168 
 371   0.0000       2.043657        55.6107 
 372   0.0000       2.067579        56.2617 
 373   0.0000       2.077240        56.5246 
 374   0.0000       2.085946        56.7615 
 375   0.0000       2.105850        57.3031 
 376   0.0000       2.110839        57.4389 
 377   0.0000       2.126954        57.8774 
 378   0.0000       2.135561        58.1116 
 379   0.0000       2.140042        58.2335 
 380   0.0000       2.150073        58.5065 
 381   0.0000       2.167731        58.9870 
 382   0.0000       2.177763        59.2599 
 383   0.0000       2.198370        59.8207 
 384   0.0000       2.203382        59.9571 
 385   0.0000       2.207144        60.0594 
 386   0.0000       2.219564        60.3974 
 387   0.0000       2.226074        60.5746 
 388   0.0000       2.238364        60.9090 
 389   0.0000       2.262908        61.5768 
 390   0.0000       2.267205        61.6938 
 391   0.0000       2.285734        62.1980 
 392   0.0000       2.295549        62.4651 
 393   0.0000       2.303983        62.6946 
 394   0.0000       2.319125        63.1066 
 395   0.0000       2.322711        63.2042 
 396   0.0000       2.330813        63.4247 
 397   0.0000       2.340562        63.6899 
 398   0.0000       2.348726        63.9121 
 399   0.0000       2.360961        64.2450 
 400   0.0000       2.367388        64.4199 
 401   0.0000       2.374742        64.6200 
 402   0.0000       2.385270        64.9065 
 403   0.0000       2.402524        65.3760 
 404   0.0000       2.408833        65.5477 
 405   0.0000       2.412998        65.6610 
 406   0.0000       2.429215        66.1023 
 407   0.0000       2.438120        66.3446 
 408   0.0000       2.442707        66.4694 
 409   0.0000       2.456823        66.8535 
 410   0.0000       2.464089        67.0513 
 411   0.0000       2.474941        67.3466 
 412   0.0000       2.483094        67.5684 
 413   0.0000       2.499729        68.0211 
 414   0.0000       2.513805        68.4041 
 415   0.0000       2.517629        68.5082 
 416   0.0000       2.525477        68.7217 
 417   0.0000       2.531618        68.8888 
 418   0.0000       2.547429        69.3191 
 419   0.0000       2.561904        69.7130 
 420   0.0000       2.573572        70.0305 
 421   0.0000       2.578219        70.1569 
 422   0.0000       2.586323        70.3774 
 423   0.0000       2.592691        70.5507 
 424   0.0000       2.605616        70.9024 
 425   0.0000       2.607491        70.9534 
 426   0.0000       2.614610        71.1472 
 427   0.0000       2.627687        71.5030 
 428   0.0000       2.636300        71.7374 
 429   0.0000       2.644314        71.9554 
 430   0.0000       2.654642        72.2365 
 431   0.0000       2.662641        72.4541 
 432   0.0000       2.672165        72.7133 
 433   0.0000       2.673859        72.7594 
 434   0.0000       2.679644        72.9168 
 435   0.0000       2.681374        72.9639 
 436   0.0000       2.689288        73.1793 
 437   0.0000       2.702710        73.5445 
 438   0.0000       2.711209        73.7757 
 439   0.0000       2.715704        73.8981 
 440   0.0000       2.716411        73.9173 
 441   0.0000       2.729013        74.2602 
 442   0.0000       2.735790        74.4446 
 443   0.0000       2.739220        74.5380 
 444   0.0000       2.746265        74.7297 
 445   0.0000       2.759028        75.0770 
 446   0.0000       2.765716        75.2590 
 447   0.0000       2.772268        75.4372 
 448   0.0000       2.784633        75.7737 
 449   0.0000       2.793503        76.0151 
 450   0.0000       2.798360        76.1473 
 451   0.0000       2.805145        76.3319 
 452   0.0000       2.810262        76.4711 
 453   0.0000       2.820523        76.7503 
 454   0.0000       2.823261        76.8248 
 455   0.0000       2.834500        77.1307 
 456   0.0000       2.838145        77.2299 
 457   0.0000       2.842548        77.3497 
 458   0.0000       2.846581        77.4594 
 459   0.0000       2.849204        77.5308 
 460   0.0000       2.861098        77.8544 
 461   0.0000       2.871448        78.1361 
 462   0.0000       2.881835        78.4187 
 463   0.0000       2.885992        78.5318 
 464   0.0000       2.891952        78.6940 
 465   0.0000       2.898997        78.8857 
 466   0.0000       2.911810        79.2344 
 467   0.0000       2.916944        79.3741 
 468   0.0000       2.924032        79.5670 
 469   0.0000       2.925887        79.6174 
 470   0.0000       2.933265        79.8182 
 471   0.0000       2.933980        79.8377 
 472   0.0000       2.940243        80.0081 
 473   0.0000       2.948456        80.2316 
 474   0.0000       2.950906        80.2982 
 475   0.0000       2.955737        80.4297 
 476   0.0000       2.961757        80.5935 
 477   0.0000       2.967041        80.7373 
 478   0.0000       2.974071        80.9286 
 479   0.0000       2.984882        81.2228 
 480   0.0000       2.985473        81.2389 
 481   0.0000       2.994357        81.4806 
 482   0.0000       2.999851        81.6301 
 483   0.0000       3.001721        81.6810 
 484   0.0000       3.010284        81.9140 
 485   0.0000       3.017690        82.1155 
 486   0.0000       3.020985        82.2052 
 487   0.0000       3.028372        82.4062 
 488   0.0000       3.032178        82.5098 
 489   0.0000       3.035752        82.6070 
 490   0.0000       3.041757        82.7704 
 491   0.0000       3.046698        82.9049 
 492   0.0000       3.049962        82.9937 
 493   0.0000       3.056664        83.1760 
 494   0.0000       3.067620        83.4742 
 495   0.0000       3.073822        83.6430 
 496   0.0000       3.084750        83.9403 
 497   0.0000       3.089167        84.0605 
 498   0.0000       3.095443        84.2313 
 499   0.0000       3.101048        84.3838 
 500   0.0000       3.113536        84.7236 
 501   0.0000       3.120636        84.9168 
 502   0.0000       3.131195        85.2041 
 503   0.0000       3.136344        85.3443 
 504   0.0000       3.142431        85.5099 
 505   0.0000       3.155508        85.8657 
 506   0.0000       3.162503        86.0561 
 507   0.0000       3.172590        86.3306 
 508   0.0000       3.174631        86.3861 
 509   0.0000       3.183729        86.6337 
 510   0.0000       3.184555        86.6561 
 511   0.0000       3.185908        86.6930 
 512   0.0000       3.208587        87.3101 
 513   0.0000       3.213505        87.4439 
 514   0.0000       3.224597        87.7458 
 515   0.0000       3.225339        87.7659 
 516   0.0000       3.236833        88.0787 
 517   0.0000       3.245180        88.3058 
 518   0.0000       3.248695        88.4015 
 519   0.0000       3.251218        88.4701 
 520   0.0000       3.260509        88.7230 
 521   0.0000       3.262931        88.7889 
 522   0.0000       3.270186        88.9863 
 523   0.0000       3.273489        89.0762 
 524   0.0000       3.278133        89.2025 
 525   0.0000       3.285292        89.3973 
 526   0.0000       3.296398        89.6996 
 527   0.0000       3.303483        89.8923 
 528   0.0000       3.304039        89.9075 
 529   0.0000       3.310289        90.0775 
 530   0.0000       3.320211        90.3475 
 531   0.0000       3.324894        90.4750 
 532   0.0000       3.330585        90.6298 
 533   0.0000       3.340186        90.8911 
 534   0.0000       3.345556        91.0372 
 535   0.0000       3.350699        91.1772 
 536   0.0000       3.359379        91.4133 
 537   0.0000       3.367167        91.6253 
 538   0.0000       3.371730        91.7494 
 539   0.0000       3.381128        92.0052 
 540   0.0000       3.387259        92.1720 
 541   0.0000       3.393026        92.3289 
 542   0.0000       3.403250        92.6072 
 543   0.0000       3.406949        92.7078 
 544   0.0000       3.415028        92.9276 
 545   0.0000       3.419978        93.0623 
 546   0.0000       3.431798        93.3840 
 547   0.0000       3.436519        93.5124 
 548   0.0000       3.445951        93.7691 
 549   0.0000       3.455888        94.0395 
 550   0.0000       3.459845        94.1472 
 551   0.0000       3.475531        94.5740 
 552   0.0000       3.481874        94.7466 
 553   0.0000       3.494517        95.0906 
 554   0.0000       3.501547        95.2819 
 555   0.0000       3.503153        95.3257 
 556   0.0000       3.512413        95.5776 
 557   0.0000       3.519506        95.7706 
 558   0.0000       3.528307        96.0101 
 559   0.0000       3.535199        96.1977 
 560   0.0000       3.544592        96.4533 
 561   0.0000       3.550975        96.6269 
 562   0.0000       3.567828        97.0855 
 563   0.0000       3.571728        97.1917 
 564   0.0000       3.576082        97.3101 
 565   0.0000       3.585970        97.5792 
 566   0.0000       3.593575        97.7861 
 567   0.0000       3.606482        98.1374 
 568   0.0000       3.613494        98.3282 
 569   0.0000       3.624700        98.6331 
 570   0.0000       3.633635        98.8762 
 571   0.0000       3.643351        99.1406 
 572   0.0000       3.656447        99.4970 
 573   0.0000       3.658508        99.5531 
 574   0.0000       3.672466        99.9329 
 575   0.0000       3.676602       100.0454 
 576   0.0000       3.687248       100.3351 
 577   0.0000       3.693257       100.4986 
 578   0.0000       3.704767       100.8118 
 579   0.0000       3.711853       101.0047 
 580   0.0000       3.722197       101.2861 
 581   0.0000       3.727086       101.4192 
 582   0.0000       3.732329       101.5618 
 583   0.0000       3.746016       101.9343 
 584   0.0000       3.758075       102.2624 
 585   0.0000       3.760395       102.3256 
 586   0.0000       3.763405       102.4075 
 587   0.0000       3.773284       102.6763 
 588   0.0000       3.781504       102.9000 
 589   0.0000       3.784352       102.9775 
 590   0.0000       3.790257       103.1381 
 591   0.0000       3.798819       103.3711 
 592   0.0000       3.800292       103.4112 
 593   0.0000       3.811504       103.7163 
 594   0.0000       3.819110       103.9233 
 595   0.0000       3.821989       104.0016 
 596   0.0000       3.825409       104.0947 
 597   0.0000       3.828726       104.1849 
 598   0.0000       3.843615       104.5901 
 599   0.0000       3.852015       104.8187 
 600   0.0000       3.858784       105.0029 
 601   0.0000       3.870996       105.3352 
 602   0.0000       3.880441       105.5922 
 603   0.0000       3.887959       105.7967 
 604   0.0000       3.892349       105.9162 
 605   0.0000       3.897573       106.0584 
 606   0.0000       3.913767       106.4990 
 607   0.0000       3.917696       106.6059 
 608   0.0000       3.923427       106.7619 
 609   0.0000       3.939315       107.1942 
 610   0.0000       3.950599       107.5013 
 611   0.0000       3.961798       107.8060 
 612   0.0000       3.977469       108.2324 
 613   0.0000       3.978658       108.2648 
 614   0.0000       3.981891       108.3528 
 615   0.0000       3.987028       108.4925 
 616   0.0000       3.993818       108.6773 
 617   0.0000       4.003773       108.9482 
 618   0.0000       4.010738       109.1377 
 619   0.0000       4.018013       109.3357 
 620   0.0000       4.021837       109.4397 
 621   0.0000       4.029587       109.6506 
 622   0.0000       4.040005       109.9341 
 623   0.0000       4.047976       110.1510 
 624   0.0000       4.053779       110.3089 
 625   0.0000       4.070997       110.7775 
 626   0.0000       4.074254       110.8661 
 627   0.0000       4.085605       111.1750 
 628   0.0000       4.091342       111.3311 
 629   0.0000       4.100245       111.5733 
 630   0.0000       4.104901       111.7000 
 631   0.0000       4.117831       112.0519 
 632   0.0000       4.129235       112.3622 
 633   0.0000       4.137157       112.5778 
 634   0.0000       4.142063       112.7113 
 635   0.0000       4.152924       113.0068 
 636   0.0000       4.158282       113.1526 
 637   0.0000       4.161616       113.2433 
 638   0.0000       4.167971       113.4163 
 639   0.0000       4.178465       113.7018 
 640   0.0000       4.192194       114.0754 
 641   0.0000       4.202613       114.3589 
 642   0.0000       4.208310       114.5139 
 643   0.0000       4.216578       114.7389 
 644   0.0000       4.226076       114.9974 
 645   0.0000       4.227300       115.0307 
 646   0.0000       4.240530       115.3907 
 647   0.0000       4.246168       115.5441 
 648   0.0000       4.254937       115.7827 
 649   0.0000       4.269211       116.1711 
 650   0.0000       4.271958       116.2459 
 651   0.0000       4.278791       116.4318 
 652   0.0000       4.283664       116.5644 
 653   0.0000       4.293386       116.8290 
 654   0.0000       4.301615       117.0529 
 655   0.0000       4.317664       117.4896 
 656   0.0000       4.334822       117.9565 
 657   0.0000       4.337226       118.0219 
 658   0.0000       4.346721       118.2803 
 659   0.0000       4.367556       118.8472 
 660   0.0000       4.376727       119.0968 
 661   0.0000       4.389528       119.4451 
 662   0.0000       4.408822       119.9702 
 663   0.0000       4.421304       120.3098 
 664   0.0000       4.432675       120.6192 
 665   0.0000       4.444519       120.9415 
 666   0.0000       4.474972       121.7702 
 667   0.0000       4.484394       122.0266 
 668   0.0000       4.494310       122.2964 
 669   0.0000       4.509945       122.7219 
 670   0.0000       4.531444       123.3068 
 671   0.0000       4.543106       123.6242 
 672   0.0000       4.567804       124.2963 
 673   0.0000       4.589214       124.8789 
 674   0.0000       4.606102       125.3384 
 675   0.0000       4.612089       125.5013 
 676   0.0000       4.627996       125.9342 
 677   0.0000       4.637606       126.1957 
 678   0.0000       4.643697       126.3614 
 679   0.0000       4.657621       126.7403 
 680   0.0000       4.672290       127.1395 
 681   0.0000       4.685099       127.4880 
 682   0.0000       4.693828       127.7256 
 683   0.0000       4.708759       128.1319 
 684   0.0000       4.713299       128.2554 
 685   0.0000       4.729067       128.6845 
 686   0.0000       4.745484       129.1312 
 687   0.0000       4.751255       129.2882 
 688   0.0000       4.762028       129.5814 
 689   0.0000       4.762776       129.6017 
 690   0.0000       4.771018       129.8260 
 691   0.0000       4.777118       129.9920 
 692   0.0000       4.804081       130.7257 
 693   0.0000       4.806789       130.7994 
 694   0.0000       4.814030       130.9964 
 695   0.0000       4.824093       131.2702 
 696   0.0000       4.829307       131.4121 
 697   0.0000       4.839547       131.6908 
 698   0.0000       4.862180       132.3066 
 699   0.0000       4.873166       132.6056 
 700   0.0000       4.878238       132.7436 
 701   0.0000       4.891090       133.0933 
 702   0.0000       4.900349       133.3453 
 703   0.0000       4.911830       133.6577 
 704   0.0000       4.932305       134.2149 
 705   0.0000       4.951109       134.7265 
 706   0.0000       4.964473       135.0902 
 707   0.0000       4.971225       135.2739 
 708   0.0000       4.992703       135.8584 
 709   0.0000       4.998427       136.0141 
 710   0.0000       5.020346       136.6105 
 711   0.0000       5.049033       137.3912 
 712   0.0000       5.051620       137.4616 
 713   0.0000       5.060791       137.7111 
 714   0.0000       5.079731       138.2265 
 715   0.0000       5.088587       138.4675 
 716   0.0000       5.097117       138.6996 
 717   0.0000       5.109975       139.0495 
 718   0.0000       5.129752       139.5876 
 719   0.0000       5.142235       139.9273 
 720   0.0000       5.149064       140.1132 
 721   0.0000       5.157751       140.3495 
 722   0.0000       5.183594       141.0528 
 723   0.0000       5.189365       141.2098 
 724   0.0000       5.199465       141.4846 
 725   0.0000       5.202900       141.5781 
 726   0.0000       5.221767       142.0915 
 727   0.0000       5.225009       142.1797 
 728   0.0000       5.235709       142.4709 
 729   0.0000       5.246353       142.7605 
 730   0.0000       5.261093       143.1616 
 731   0.0000       5.294183       144.0620 
 732   0.0000       5.330857       145.0600 
 733   0.0000       5.334132       145.1491 
 734   0.0000       5.338077       145.2565 
 735   0.0000       5.342367       145.3732 
 736   0.0000       5.362802       145.9293 
 737   0.0000       5.367767       146.0644 
 738   0.0000       5.383176       146.4837 
 739   0.0000       5.394640       146.7956 
 740   0.0000       5.407438       147.1439 
 741   0.0000       5.410098       147.2162 
 742   0.0000       5.433449       147.8517 
 743   0.0000       5.454564       148.4262 
 744   0.0000       5.478314       149.0725 
 745   0.0000       5.486840       149.3045 
 746   0.0000       5.505166       149.8032 
 747   0.0000       5.521010       150.2343 
 748   0.0000       5.531885       150.5303 
 749   0.0000       5.541988       150.8052 
 750   0.0000       5.572453       151.6342 
 751   0.0000       5.580898       151.8640 
 752   0.0000       5.589338       152.0936 
 753   0.0000       5.600107       152.3867 
 754   0.0000       5.637867       153.4142 
 755   0.0000       5.648391       153.7005 
 756   0.0000       5.660229       154.0227 
 757   0.0000       5.674893       154.4217 
 758   0.0000       5.696173       155.0008 
 759   0.0000       5.714863       155.5093 
 760   0.0000       5.733078       156.0050 
 761   0.0000       5.789312       157.5352 
 762   0.0000       5.805953       157.9880 
 763   0.0000       5.821795       158.4191 
 764   0.0000       5.835590       158.7945 
 765   0.0000       5.843824       159.0185 
 766   0.0000       5.904385       160.6665 
 767   0.0000       5.913791       160.9224 
 768   0.0000       5.940670       161.6538 
 769   0.0000       5.971306       162.4875 
 770   0.0000       5.984991       162.8599 
 771   0.0000       6.017665       163.7490 
 772   0.0000       6.036823       164.2703 
 773   0.0000       6.041502       164.3976 
 774   0.0000       6.079279       165.4256 
 775   0.0000       6.084255       165.5610 
 776   0.0000       6.114980       166.3971 
 777   0.0000       6.155196       167.4914 
 778   0.0000       6.161472       167.6622 
 779   0.0000       6.235046       169.6642 
 780   0.0000       6.249990       170.0709 
 781   0.0000       6.301022       171.4595 
 782   0.0000       6.341986       172.5742 
 783   0.0000       6.373182       173.4231 
 784   0.0000       6.462934       175.8654 
 785   0.0000       6.479049       176.3039 
 786   0.0000       6.506326       177.0461 
 787   0.0000       6.514087       177.2573 
 788   0.0000       6.547155       178.1572 
 789   0.0000       6.565937       178.6682 
 790   0.0000       6.637708       180.6212 
 791   0.0000       6.688784       182.0111 
 792   0.0000       6.733062       183.2159 
 793   0.0000       6.792592       184.8358 
 794   0.0000       6.816626       185.4898 
 795   0.0000       6.824156       185.6947 
 796   0.0000       6.875406       187.0893 
 797   0.0000       6.892458       187.5533 
 798   0.0000       6.916562       188.2092 
 799   0.0000       6.929025       188.5484 
 800   0.0000       7.043467       191.6625 
 801   0.0000       7.133447       194.1110 
 802   0.0000       7.141716       194.3360 
 803   0.0000       7.189907       195.6473 
 804   0.0000       7.276895       198.0144 
 805   0.0000       7.401031       201.3923 
 806   0.0000       7.460098       202.9996 
 807   0.0000       7.503819       204.1893 
 808   0.0000       7.576674       206.1718 
 809   0.0000       9.083240       247.1675 
 810   0.0000       9.606774       261.4136 
 811   0.0000      10.747976       292.4673 
 812   0.0000      11.370024       309.3941 
 813   0.0000      11.768787       320.2450 
 814   0.0000      11.863166       322.8132 
 815   0.0000      12.461590       339.0971 
 816   0.0000      12.548483       341.4616 
 817   0.0000      12.780358       347.7712 
 818   0.0000      13.129325       357.2671 
 819   0.0000      13.301366       361.9486 
 820   0.0000      13.502696       367.4270 
 821   0.0000      13.538089       368.3901 
 822   0.0000      13.624336       370.7370 
 823   0.0000      13.727103       373.5335 
 824   0.0000      13.893642       378.0652 
 825   0.0000      14.687566       399.6690 
 826   0.0000      14.910694       405.7406 
 827   0.0000      15.515886       422.2087 

                    ********************************
                    * MULLIKEN POPULATION ANALYSIS *
                    ********************************

-----------------------
MULLIKEN ATOMIC CHARGES
-----------------------
   0 C :   -0.276175
   1 C :    0.022512
   2 O :   -0.308661
   3 C :    0.516334
   4 O :   -0.592186
   5 C :   -0.171203
   6 C :    0.153666
   7 C :   -0.308965
   8 N :   -0.089985
   9 C :    0.345904
  10 S :   -0.763097
  11 N :   -0.239479
  12 C :    0.104429
  13 C :    0.026599
  14 C :   -0.241791
  15 C :   -0.189237
  16 C :   -0.269996
  17 C :    0.300339
  18 O :   -0.443672
  19 C :   -0.236083
  20 H :    0.113529
  21 H :    0.100941
  22 H :    0.100141
  23 H :    0.103949
  24 H :    0.110085
  25 H :    0.137694
  26 H :    0.126629
  27 H :    0.136087
  28 H :    0.257278
  29 H :    0.244266
  30 H :    0.179697
  31 H :    0.186112
  32 H :    0.195846
  33 H :    0.172709
  34 H :    0.323663
  35 H :    0.172121
Sum of atomic charges:   -0.0000000

--------------------------------
MULLIKEN REDUCED ORBITAL CHARGES
--------------------------------
  0 C s       :     3.262799  s :     3.262799
      pz      :     1.015351  p :     2.935854
      px      :     0.916233
      py      :     1.004271
      dz2     :     0.008992  d :     0.072944
      dxz     :     0.016372
      dyz     :     0.020588
      dx2y2   :     0.008483
      dxy     :     0.018509
      f0      :     0.000320  f :     0.004578
      f+1     :     0.000560
      f-1     :     0.000960
      f+2     :     0.000460
      f-2     :     0.000894
      f+3     :     0.000486
      f-3     :     0.000898
  1 C s       :     3.176201  s :     3.176201
      pz      :     1.017050  p :     2.636583
      px      :     0.777712
      py      :     0.841821
      dz2     :     0.023011  d :     0.152886
      dxz     :     0.024186
      dyz     :     0.031974
      dx2y2   :     0.035025
      dxy     :     0.038691
      f0      :     0.001684  f :     0.011818
      f+1     :     0.001070
      f-1     :     0.001401
      f+2     :     0.000311
      f-2     :     0.002124
      f+3     :     0.002452
      f-3     :     0.002775
  2 O s       :     3.705510  s :     3.705510
      pz      :     1.780132  p :     4.565128
      px      :     1.195651
      py      :     1.589344
      dz2     :     0.004093  d :     0.035673
      dxz     :     0.005336
      dyz     :     0.002971
      dx2y2   :     0.009175
      dxy     :     0.014097
      f0      :     0.000259  f :     0.002351
      f+1     :     0.000523
[...]
 15 C s       :     2.706599  s :     2.706599
      pz      :     0.968386  p :     2.797733
      px      :     0.928362
      py      :     0.900985
      dz2     :     0.092646  d :     0.411486
      dxz     :     0.101801
      dyz     :     0.061410
      dx2y2   :     0.089467
      dxy     :     0.066162
      f0      :     0.006263  f :     0.040756
      f+1     :     0.006394
      f-1     :     0.005721
      f+2     :     0.006288
      f-2     :     0.006734
      f+3     :     0.005353
      f-3     :     0.004003
 16 C s       :     2.702960  s :     2.702960
      pz      :     0.975162  p :     2.859959
      px      :     0.953144
      py      :     0.931653
      dz2     :     0.087540  d :     0.394239
      dxz     :     0.103928
      dyz     :     0.089899
      dx2y2   :     0.054082
      dxy     :     0.058790
      f0      :     0.008487  f :     0.040995
      f+1     :     0.007690
      f-1     :     0.006380
      f+2     :     0.003439
      f-2     :     0.006384
      f+3     :     0.004828
      f-3     :     0.003788
 17 C s       :     2.707498  s :     2.707498
      pz      :     1.027598  p :     2.687251
      px      :     0.829143
      py      :     0.830510
      dz2     :     0.146068  d :     0.698212
      dxz     :     0.166036
      dyz     :     0.121105
      dx2y2   :     0.148397
      dxy     :     0.116606
      f0      :     0.018291  f :     0.097788
      f+1     :     0.012581
      f-1     :     0.011134
      f+2     :     0.009951
      f-2     :     0.014437
      f+3     :     0.019139
      f-3     :     0.012255
 18 O s       :     3.178968  s :     3.178968
      pz      :     1.487655  p :     4.390867
      px      :     1.416027
      py      :     1.487185
      dz2     :     0.013875  d :     0.072833
      dxz     :     0.012659
      dyz     :     0.013150
      dx2y2   :     0.015354
      dxy     :     0.017795
      f0      :     0.000758  f :     0.004970
      f+1     :     0.000762
      f-1     :     0.000599
      f+2     :     0.000487
      f-2     :     0.000685
      f+3     :     0.000871
      f-3     :     0.000810
 19 C s       :     2.704835  s :     2.704835
      pz      :     0.961382  p :     2.838976
      px      :     0.951726
      py      :     0.925867
      dz2     :     0.079922  d :     0.373753
      dxz     :     0.101677
      dyz     :     0.062574
      dx2y2   :     0.068860
      dxy     :     0.060719
      f0      :     0.005412  f :     0.037960
      f+1     :     0.006304
      f-1     :     0.005244
      f+2     :     0.005000
      f-2     :     0.006726
      f+3     :     0.005031
      f-3     :     0.004242
 20 H s       :     0.835681  s :     0.835681
      pz      :     0.042459  p :     0.150034
      px      :     0.052211
      py      :     0.055364
      dz2     :     0.002790  d :     0.027549
      dxz     :     0.003806
      dyz     :     0.005819
      dx2y2   :     0.008293
      dxy     :     0.006841
 21 H s       :     0.844644  s :     0.844644
      pz      :     0.059006  p :     0.150462
      px      :     0.036115
      py      :     0.055341
      dz2     :     0.007782  d :     0.027575
      dxz     :     0.004572
      dyz     :     0.007029
      dx2y2   :     0.003696
      dxy     :     0.004496
 22 H s       :     0.843804  s :     0.843804
      pz      :     0.059408  p :     0.152930
      px      :     0.044993
      py      :     0.048528
      dz2     :     0.007574  d :     0.027732
      dxz     :     0.006016
      dyz     :     0.006693
      dx2y2   :     0.003807
      dxy     :     0.003641
 23 H s       :     0.851086  s :     0.851086
      pz      :     0.073402  p :     0.146223
      px      :     0.031500
      py      :     0.041321
      dz2     :     0.009398  d :     0.027446
      dxz     :     0.006270
      dyz     :     0.008872
      dx2y2   :     0.001054
      dxy     :     0.001852
 24 H s       :     0.849140  s :     0.849140
      pz      :     0.056822  p :     0.151415
      px      :     0.034986
      py      :     0.059607
      dz2     :     0.007692  d :     0.027721
      dxz     :     0.002475
      dyz     :     0.007536
      dx2y2   :     0.004699
      dxy     :     0.005319
 25 H s       :     0.814612  s :     0.814612
      pz      :     0.062735  p :     0.156420
      px      :     0.047988
      py      :     0.045697
      dz2     :     0.007400  d :     0.028689
      dxz     :     0.007129
      dyz     :     0.007856
      dx2y2   :     0.002791
      dxy     :     0.003513
 26 H s       :     0.819205  s :     0.819205
      pz      :     0.050881  p :     0.157047
      px      :     0.035880
      py      :     0.070286
      dz2     :     0.004367  d :     0.028868
      dxz     :     0.001303
      dyz     :     0.008903
      dx2y2   :     0.006464
      dxy     :     0.007830
 27 H s       :     0.823011  s :     0.823011
      pz      :     0.055198  p :     0.151953
      px      :     0.048684
      py      :     0.048070
      dz2     :     0.007731  d :     0.027945
      dxz     :     0.005810
      dyz     :     0.004862
      dx2y2   :     0.004872
      dxy     :     0.004670
 28 H s       :     0.703582  s :     0.703582
      pz      :     0.084619  p :     0.243617
      px      :     0.042085
      py      :     0.116912
      dz2     :     0.009083  d :     0.059840
      dxz     :     0.002764
      dyz     :     0.018822
      dx2y2   :     0.015449
      dxy     :     0.013722
 29 H s       :     0.729403  s :     0.729403
      pz      :     0.082695  p :     0.254465
      px      :     0.124218
      py      :     0.047552
      dz2     :     0.004930  d :     0.061433
      dxz     :     0.021867
      dyz     :     0.001775
      dx2y2   :     0.016765
      dxy     :     0.016096
 30 H s       :     0.818316  s :     0.818316
      pz      :     0.076920  p :     0.146539
      px      :     0.032904
      py      :     0.036715
      dz2     :     0.010463  d :     0.027974
      dxz     :     0.006927
      dyz     :     0.008181
      dx2y2   :     0.000805
      dxy     :     0.001598
 31 H s       :     0.830107  s :     0.830107
      pz      :     0.037088  p :     0.165455
      px      :     0.064849
      py      :     0.063517
      dz2     :     0.003241  d :     0.028320
      dxz     :     0.005021
      dyz     :     0.004645
      dx2y2   :     0.008232
      dxy     :     0.007182
 32 H s       :     0.832962  s :     0.832962
      pz      :     0.070722  p :     0.152339
      px      :     0.045713
      py      :     0.035904
      dz2     :     0.008750  d :     0.026667
      dxz     :     0.008130
      dyz     :     0.006158
      dx2y2   :     0.001796
      dxy     :     0.001832
 33 H s       :     0.831674  s :     0.831674
      pz      :     0.055992  p :     0.157260
      px      :     0.044612
      py      :     0.056657
      dz2     :     0.007026  d :     0.027647
      dxz     :     0.005121
      dyz     :     0.006649
      dx2y2   :     0.004538
      dxy     :     0.004312
 34 H s       :     0.671114  s :     0.671114
      pz      :     0.160701  p :     0.341940
      px      :     0.074538
      py      :     0.106701
      dz2     :     0.032966  d :     0.099405
      dxz     :     0.022056
      dyz     :     0.026816
      dx2y2   :     0.009460
      dxy     :     0.008106
 35 H s       :     0.836154  s :     0.836154
      pz      :     0.071627  p :     0.158536
      px      :     0.047209
      py      :     0.039700
      dz2     :     0.008949  d :     0.027812
      dxz     :     0.008196
      dyz     :     0.006692
      dx2y2   :     0.001960
      dxy     :     0.002016


                      *****************************
                      * MAYER POPULATION ANALYSIS *
                      *****************************

  NA   - Mulliken gross atomic population
  ZA   - Total nuclear charge
  QA   - Mulliken gross atomic charge
  VA   - Mayer's total valence
  BVA  - Mayer's bonded valence
  FA   - Mayer's free valence

  ATOM       NA         ZA         QA         VA         BVA        FA
  0 C      6.2762     6.0000    -0.2762     3.8909     3.8909     0.0000
  1 C      5.9775     6.0000     0.0225     3.8312     3.8312     0.0000
  2 O      8.3087     8.0000    -0.3087     2.1143     2.1143    -0.0000
  3 C      5.4837     6.0000     0.5163     4.2671     4.2671     0.0000
  4 O      8.5922     8.0000    -0.5922     1.9608     1.9608     0.0000
  5 C      6.1712     6.0000    -0.1712     3.5985     3.5985    -0.0000
  6 C      5.8463     6.0000     0.1537     3.8626     3.8626     0.0000
  7 C      6.3090     6.0000    -0.3090     3.8885     3.8885    -0.0000
  8 N      7.0900     7.0000    -0.0900     3.4538     3.4538     0.0000
  9 C      5.6541     6.0000     0.3459     4.0730     4.0730     0.0000
 10 S     16.7631    16.0000    -0.7631     1.4091     1.4091    -0.0000
 11 N      7.2395     7.0000    -0.2395     3.3211     3.3211     0.0000
 12 C      5.8956     6.0000     0.1044     3.9092     3.9092     0.0000
 13 C      5.9734     6.0000     0.0266     3.7124     3.7124    -0.0000
 14 C      6.2418     6.0000    -0.2418     3.7815     3.7815     0.0000
 15 C      6.1892     6.0000    -0.1892     3.7641     3.7641     0.0000
 16 C      6.2700     6.0000    -0.2700     3.7597     3.7597     0.0000
 17 C      5.6997     6.0000     0.3003     3.8607     3.8607    -0.0000
 18 O      8.4437     8.0000    -0.4437     2.0472     2.0472     0.0000
 19 C      6.2361     6.0000    -0.2361     3.8713     3.8713    -0.0000
 20 H      0.8865     1.0000     0.1135     0.9822     0.9822    -0.0000
 21 H      0.8991     1.0000     0.1009     0.9880     0.9880     0.0000
 22 H      0.8999     1.0000     0.1001     0.9778     0.9778    -0.0000
 23 H      0.8961     1.0000     0.1039     0.9754     0.9754     0.0000
 24 H      0.8899     1.0000     0.1101     0.9829     0.9829    -0.0000
 25 H      0.8623     1.0000     0.1377     0.9731     0.9731     0.0000
 26 H      0.8734     1.0000     0.1266     0.9815     0.9815    -0.0000
 27 H      0.8639     1.0000     0.1361     0.9819     0.9819    -0.0000
 28 H      0.7427     1.0000     0.2573     0.9636     0.9636    -0.0000
 29 H      0.7557     1.0000     0.2443     0.9730     0.9730     0.0000
 30 H      0.8203     1.0000     0.1797     0.9885     0.9885    -0.0000
 31 H      0.8139     1.0000     0.1861     0.9685     0.9685    -0.0000
 32 H      0.8042     1.0000     0.1958     0.9671     0.9671    -0.0000
 33 H      0.8273     1.0000     0.1727     0.9770     0.9770     0.0000
 34 H      0.6763     1.0000     0.3237     0.9405     0.9405    -0.0000
 35 H      0.8279     1.0000     0.1721     0.9860     0.9860    -0.0000

  Mayer bond orders larger than 0.100000
B(  0-C ,  1-C ) :   0.9676 B(  0-C , 20-H ) :   0.9766 B(  0-C , 21-H ) :   0.9747 
B(  0-C , 22-H ) :   0.9812 B(  1-C ,  2-O ) :   0.8807 B(  1-C , 23-H ) :   0.9776 
B(  1-C , 24-H ) :   0.9773 B(  2-O ,  3-C ) :   1.2422 B(  3-C ,  4-O ) :   1.8933 
B(  3-C ,  5-C ) :   1.0832 B(  5-C ,  6-C ) :   1.6092 B(  5-C , 12-C ) :   0.9938 
B(  6-C ,  7-C ) :   0.9667 B(  6-C ,  8-N ) :   1.1593 B(  7-C , 25-H ) :   0.9573 
B(  7-C , 26-H ) :   0.9891 B(  7-C , 27-H ) :   0.9600 B(  8-N ,  9-C ) :   1.3245 
B(  8-N , 28-H ) :   0.9178 B(  9-C , 10-S ) :   1.2570 B(  9-C , 11-N ) :   1.4249 
B( 11-N , 12-C ) :   0.9112 B( 11-N , 29-H ) :   0.9296 B( 12-C , 13-C ) :   0.9591 
B( 12-C , 30-H ) :   0.9948 B( 13-C , 14-C ) :   1.3237 B( 13-C , 19-C ) :   1.3962 
B( 14-C , 15-C ) :   1.3928 B( 14-C , 31-H ) :   0.9670 B( 15-C , 16-C ) :   1.3256 
B( 15-C , 32-H ) :   0.9592 B( 16-C , 17-C ) :   1.3578 B( 16-C , 33-H ) :   0.9719 
B( 17-C , 18-O ) :   1.0883 B( 17-C , 19-C ) :   1.3536 B( 18-O , 34-H ) :   0.9181 
B( 19-C , 35-H ) :   0.9538 

-------
TIMINGS
-------

Total SCF time: 0 days 1 hours 48 min 31 sec 

Total time                  ....    6511.900 sec
Sum of individual times     ....    6503.922 sec  ( 99.9%)

Fock matrix formation       ....    6488.834 sec  ( 99.6%)
Diagonalization             ....       1.503 sec  (  0.0%)
Density matrix formation    ....       0.195 sec  (  0.0%)
Population analysis         ....       0.447 sec  (  0.0%)
Initial guess               ....       5.592 sec  (  0.1%)
Orbital Transformation      ....       0.000 sec  (  0.0%)
Orbital Orthonormalization  ....       0.000 sec  (  0.0%)
DIIS solution               ....       3.454 sec  (  0.1%)
SOSCF solution              ....       2.410 sec  (  0.0%)

Maximum memory used throughout the entire SCF-calculation: 718.8 MB

------------------------------------------------------------------------------
                                ORCA  MP2 
------------------------------------------------------------------------------

Freezing NCore=48 chemical core electrons

-------------
RI-MP2 ENERGY
-------------
Dimension of the basis                    ...  828
Memory devoted to MP2                     ...  256 MB   
Data format for buffers                   ... DOUBLE
Compression type for matrix containers    ... UNCOMPRESSED
Overall scaling of the MP2 energy         ...   1.000e+00
Calculating two index integrals           ... done (    0.041 sec)
Cholesky decomposition of V**-1           ... done (    0.652 sec)

-----------------
RI-TRANSFORMATION (AUX index driven)
-----------------

Dimension of the orbital-basis         ... 828
Dimension of the aux-basis             ... 2141
Transformation of internal/external MOs...   24-  76 to   77- 827
Number Format for Storage              ... Double (8 Byte)
Integral mode                          ... Direct

First Phase: integral generation and transformation of MO indices
  Aux angular momentum 0               ... done (    5.005 sec)
  Aux angular momentum 1               ... done (    7.217 sec)
  Aux angular momentum 2               ... done (   10.010 sec)
  Aux angular momentum 3               ... done (    7.693 sec)
  Aux angular momentum 4               ... done (    2.686 sec)
Closing buffer VIA ( 0.63 GB; CompressionRatio= 1.00)
  Phase 1 completed in    33.022 sec
Second Phase: sorting and transformation of aux index

IA-Transformation
Memory available                       ... 158 MB 
Max. # MO pairs treated in a batch     ... 11    
# of internal orbitals                 ... 53
# batches for internal orbitals        ... 5
Closing buffer IAV ( 0.63 GB; CompressionRatio= 1.00)
(ia|v) transformation done in    36.067 sec

  Phase 2 completed in    36.075 sec
RI-Integral transformation completed in    69.203 sec
Opening buffers                              ... done

Starting loop over batches of integrals:

Operator 0  - window                       ... ( 24- 76)x( 77-827)
Operator 0  - Memory available             ...   256 MB
Operator 0  - Memory needed per MO         ...  12.3 MB
Operator 0  - Number of orbitals per batch ... 13
Operator 0  - Number of batches            ... 5

OPERATOR  0   PASS   0:  MOs    24 ...   36
  Reading integrals       ... ok
  Internal MO  26
  Internal MO  29
  Internal MO  32
  Internal MO  35
OPERATOR  0   PASS   1:  MOs    37 ...   49
  Reading integrals       ... ok
  Internal MO  38
  Internal MO  41
  Internal MO  44
  Internal MO  47
OPERATOR  0   PASS   2:  MOs    50 ...   62
  Reading integrals       ... ok
  Internal MO  50
  Internal MO  53
  Internal MO  56
  Internal MO  59
  Internal MO  62
OPERATOR  0   PASS   3:  MOs    63 ...   75
  Reading integrals       ... ok
  Internal MO  65
  Internal MO  68
  Internal MO  71
  Internal MO  74
OPERATOR  0   PASS   4:  MOs    76 ...   76
  Reading integrals       ... ok
Time spent in pair loops =    88.630 sec
Deleting buffer (Ka|jb)[aa] ...done

-----------------------------------------------
 RI-MP2 CORRELATION ENERGY:     -3.519728217 Eh
-----------------------------------------------


-------
TIMINGS
-------

Total time                :  158.634 sec
Integral trafo            :   69.223 sec ( 43.6%)
I/O of integrals          :    5.267 sec (  3.3%)
K(i,j) Operators          :   55.702 sec ( 35.1%)
T(i,j) pair energies      :    7.794 sec (  4.9%)
V-calculation             :    0.041 sec (  0.0%)
V**(-1/2)                 :    0.652 sec (  0.4%)
Gamma(ia|P)               :    0.000 sec (  0.0%)
Gamma-Trafo               :    0.000 sec (  0.0%)
D(virtual)                :    0.000 sec (  0.0%)
D(internal)               :    0.000 sec (  0.0%)
W(virtual)                :    0.000 sec (  0.0%)
W(internal)               :    0.000 sec (  0.0%)
L(virtual)                :    0.000 sec (  0.0%)
L(internal)               :    0.000 sec (  0.0%)
G(D)                      :    0.000 sec (  0.0%)
G(Z)                      :    0.000 sec (  0.0%)
Z-Vector Solution         :    0.000 sec (  0.0%)
3-Index Derivative        :    0.000 sec (  0.0%)
2-Index Derivative        :    0.000 sec (  0.0%)
Separable Gradient        :    0.000 sec (  0.0%)


---------------------------------------
MP2 TOTAL ENERGY:    -1274.447441527 Eh
---------------------------------------

Maximum memory used throughout the entire MP2-calculation: 302.9 MB

-------------------------   --------------------
FINAL SINGLE POINT ENERGY     -1274.447441527032
-------------------------   --------------------


                            ***************************************
                            *     ORCA property calculations      *
                            ***************************************


  WARNING: The energy has been calculated at the MP2 level but the densities
           used in the property calculations are still SCF densities
           MP2 response densities have not been calculated 
           use %mp2 Density relaxed end
           or  %mp2 Density unrelaxed end

                                    ---------------------
                                    Active property flags
                                    ---------------------
   (+) Dipole Moment


------------------------------------------------------------------------------
                       ORCA ELECTRIC PROPERTIES CALCULATION
------------------------------------------------------------------------------

Dipole Moment Calculation                       ... on
Quadrupole Moment Calculation                   ... off
Polarizability Calculation                      ... off
GBWName                                         ... qm_input.solv.gbw
Electron density file                           ... qm_input.solv.scfp
The origin for moment calculation is the CENTER OF MASS  = (22.236599, -16.514310 15.000041)

-------------
DIPOLE MOMENT
-------------
                                X             Y             Z
Electronic contribution:     17.38965       2.80397      -0.41505
Nuclear contribution   :    -20.92136      -3.63132       1.86193
                        -----------------------------------------
Total Dipole Moment    :     -3.53172      -0.82736       1.44688
                        -----------------------------------------
Magnitude (a.u.)       :      3.90525
Magnitude (Debye)      :      9.92636



--------------------
Rotational spectrum 
--------------------
 
Rotational constants in cm-1:     0.011582     0.008048     0.005300 
Rotational constants in MHz :   347.220739   241.264985   158.902359 

 Dipole components along the rotational axes: 
x,y,z [a.u.] :     2.792785    -1.809600     2.043695 
x,y,z [Debye]:     7.098696    -4.599637     5.194661 

 

Timings for individual modules:

Sum of individual times         ...     6899.246 sec (= 114.987 min)
GTO integral calculation        ...      226.825 sec (=   3.780 min)   3.3 %
SCF iterations                  ...     6512.226 sec (= 108.537 min)  94.4 %
MP2 module                      ...      160.195 sec (=   2.670 min)   2.3 %
                             ****ORCA TERMINATED NORMALLY****
TOTAL RUN TIME: 0 days 1 hours 55 minutes 1 seconds 322 msec
