
                                 *****************
                                 * O   R   C   A *
                                 *****************

           --- An Ab Initio, DFT and Semiempirical electronic structure package ---

                  #######################################################
                  #                        -***-                        #
                  #          Department of theory and spectroscopy      #
                  #               Directorship: Frank Neese             #
                  #        Max Planck Institute fuer Kohlenforschung    #
                  #                Kaiser Wilhelm Platz 1               #
                  #                 D-45470 Muelheim/Ruhr               #
                  #                      Germany                        #
                  #                                                     #
                  #                  All rights reserved                #
                  #                        -***-                        #
                  #######################################################


                         Program Version 4.2.0 -  RELEASE  -


 With contributions from (in alphabetic order):
   Daniel Aravena         : Magnetic Suceptibility
   Michael Atanasov       : Ab Initio Ligand Field Theory (pilot matlab implementation)
   Alexander A. Auer      : GIAO ZORA, VPT2
   Ute Becker             : Parallelization
   Giovanni Bistoni       : ED, misc. LED, open-shell LED, HFLED
   Martin Brehm           : Molecular dynamics
   Dmytro Bykov           : SCF Hessian
   Vijay G. Chilkuri      : MRCI spin determinant printing, contributions to CSF-ICE
   Dipayan Datta          : RHF DLPNO-CCSD density
   Achintya Kumar Dutta   : EOM-CC, STEOM-CC
   Dmitry Ganyushin       : Spin-Orbit,Spin-Spin,Magnetic field MRCI
   Miquel Garcia          : C-PCM Hessian, Gaussian charge scheme
   Yang Guo               : DLPNO-NEVPT2, CIM, IAO-localization
   Andreas Hansen         : Spin unrestricted coupled pair/coupled cluster methods
   Benjamin Helmich-Paris : CASSCF linear response (MC-RPA)
   Lee Huntington         : MR-EOM, pCC
   Robert Izsak           : Overlap fitted RIJCOSX, COSX-SCS-MP3, EOM
   Christian Kollmar      : KDIIS, OOCD, Brueckner-CCSD(T), CCSD density
   Simone Kossmann        : Meta GGA functionals, TD-DFT gradient, OOMP2, MP2 Hessian
   Martin Krupicka        : AUTO-CI
   Lucas Lang             : DCDCAS
   Dagmar Lenk            : GEPOL surface, SMD
   Dimitrios Liakos       : Extrapolation schemes; Compound Job, initial MDCI parallelization
   Dimitrios Manganas     : Further ROCIS development; embedding schemes
   Dimitrios Pantazis     : SARC Basis sets
   Taras Petrenko         : DFT Hessian,TD-DFT gradient, ASA, ECA, R-Raman, ABS, FL, XAS/XES, NRVS
   Peter Pinski           : DLPNO-MP2, DLPNO-MP2 Gradient
   Christoph Reimann      : Effective Core Potentials
   Marius Retegan         : Local ZFS, SOC
   Christoph Riplinger    : Optimizer, TS searches, QM/MM, DLPNO-CCSD(T), (RO)-DLPNO pert. Triples
   Tobias Risthaus        : Range-separated hybrids, TD-DFT gradient, RPA, STAB
   Michael Roemelt        : Original ROCIS implementation
   Masaaki Saitow         : Open-shell DLPNO-CCSD energy and density
   Barbara Sandhoefer     : DKH picture change effects
   Avijit Sen             : IP-ROCIS
   Kantharuban Sivalingam : CASSCF convergence, NEVPT2, FIC-MRCI
   Bernardo de Souza      : ESD, SOC TD-DFT
   Georgi Stoychev        : AutoAux, RI-MP2 NMR
   Willem Van den Heuvel  : Paramagnetic NMR
   Boris Wezisla          : Elementary symmetry handling
   Frank Wennmohs         : Technical directorship


 We gratefully acknowledge several colleagues who have allowed us to
 interface, adapt or use parts of their codes:
   Stefan Grimme, W. Hujo, H. Kruse,             : VdW corrections, initial TS optimization,
                  C. Bannwarth                     DFT functionals, gCP, sTDA/sTD-DF
   Ed Valeev, F. Pavosevic, A. Kumar             : LibInt (2-el integral package), F12 methods
   Garnet Chan, S. Sharma, J. Yang, R. Olivares  : DMRG
   Ulf Ekstrom                                   : XCFun DFT Library
   Mihaly Kallay                                 : mrcc  (arbitrary order and MRCC methods)
   Andreas Klamt, Michael Diedenhofen            : otool_cosmo (COSMO solvation model)
   Jiri Pittner, Ondrej Demel                    : Mk-CCSD
   Frank Weinhold                                : gennbo (NPA and NBO analysis)
   Christopher J. Cramer and Donald G. Truhlar   : smd solvation model
   Lars Goerigk                                  : TD-DFT with DH, B97 family of functionals
   V. Asgeirsson, H. Jonsson                     : NEB implementation
   FAccTs GmbH                                   : IRC, NEB, NEB-TS, Multilevel, MM, QM/MM, CI optimization
   S Lehtola, MJT Oliveira, MAL Marques          : LibXC Library


 Your calculation uses the libint2 library for the computation of 2-el integrals
 For citations please refer to: http://libint.valeyev.net

 Your ORCA version has been built with support for libXC version: 4.2.3
 For citations please refer to: https://tddft.org/programs/libxc/

 This ORCA versions uses:
   CBLAS   interface :  Fast vector & matrix operations
   LAPACKE interface :  Fast linear algebra routines
   SCALAPACK package :  Parallel linear algebra routines


----- Orbital basis set information -----
Your calculation utilizes the basis: cc-pVTZ 
       H, B-Ne : Obtained from the ccRepo (grant-hill.group.shef.ac.uk/ccrepo) Feb. 2017
                 T. H. Dunning, Jr., J. Chem. Phys. 90, 1007 (1989)
            He : Obtained from the ccRepo (grant-hill.group.shef.ac.uk/ccrepo) Feb. 2017
                 D. E. Woon, T. H. Dunning, Jr., J. Chem. Phys. 100, 2975 (1994)
  Li-Be, Na-Mg : Obtained from the ccRepo (grant-hill.group.shef.ac.uk/ccrepo) Feb. 2017
                 B. P. Prascher, D. E. Woon, K. A. Peterson, T. H. Dunning, Jr., A. K. Wilson, Theor. Chem. Acc. 128, 69 (2011)
         Al-Ar : Obtained from the ccRepo (grant-hill.group.shef.ac.uk/ccrepo) Feb. 2017
                 D. E. Woon, T. H. Dunning, Jr., J. Chem. Phys. 98, 1358 (1993)
            Ca : Obtained from the Peterson Research Group Website (tyr0.chem.wsu.edu/~kipeters) Feb. 2017
                 J. Koput, K. A. Peterson, J. Phys. Chem. 106, 9595 (2002)
         Sc-Zn : Obtained from the ccRepo (grant-hill.group.shef.ac.uk/ccrepo) Feb. 2017
                 N. B. Balabanov, K. A. Peterson, J. Chem. Phys. 123, 064107 (2005)
                 N. B. Balabanov, K. A. Peterson, J. Chem. Phys. 125, 074110 (2006)
         Ga-Kr : Obtained from the ccRepo (grant-hill.group.shef.ac.uk/ccrepo) Feb. 2017
                 A. K. Wilson, D. E. Woon, K. A. Peterson, T. H. Dunning, Jr., J. Chem. Phys. 110, 7667 (1999)
             Y : Obtained from the ccRepo (grant-hill.group.shef.ac.uk/ccrepo) Feb. 2017
                 K. A. Peterson, D. Figgen, M. Dolg, H. Stoll, J. Chem. Phys. 126, 124101 (2007)
        Ag, Au : Obtained from the Peterson Research Group Website (tyr0.chem.wsu.edu/~kipeters) Feb. 2017
                 K. A. Peterson, C. Puzzarini, Theor. Chem. Acc. 114, 283 (2005)

----- AuxC basis set information -----
Your calculation utilizes the auxiliary basis: cc-pVTZ/C 
  Obtained from the EMSL Basis Set Exchange (bse.pnl.gov) Feb. 2017
  H-He, B-F, Al-Ar, Ga-Kr : F. Weigend, A. Kohn, C. Hattig, J. Chem. Phys. 116, 3175 (2002)
             Li-Be, Na-Mg : C. Haettig, Phys. Chem. Chem. Phys. 7, 59 (2005)
                       Ne : C. Haettig, Phys. Chem. Chem. Phys. 7, 59 (2005)
                            F. Weigend, A. Kohn, C. Hattig, J. Chem. Phys. 116, 3175 (2002)
                    Sc-Zn : J. G. Hill, J. A. Platts, J. Chem. Phys. 128, 044104 (2008)

================================================================================
                                        WARNINGS
                       Please study these warnings very carefully!
================================================================================


WARNING: No MP2 level density has been requested!
         To caclulate MP2 level properties use
         %mp2 Density relaxed end
         or
         %mp2 Density unrelaxed end

WARNING: Post HF methods need fully converged wavefunctions
  ===> : Setting SCFConvForced true
         You can overwrite this default with %scf ConvForced false 


INFO   : the flag for use of LIBINT has been found!

================================================================================
                                       INPUT FILE
================================================================================
NAME = G2_CONFS/Conf6.orca
|  1> ! ri-mp2 cc-pvtz cc-pvtz/c TightSCF NoKeepInts
|  2> 
|  3> %scf
|  4>   MaxCore 4096
|  5> end
|  6> *xyz  0  1
|  7>     C       13.7011966   16.1169306   16.1367542
|  8>     C       14.5248771   17.0683186   15.2467468
|  9>     O       15.7801178   16.4401382   14.9230306
| 10>     C       16.7064998   16.2812923   15.9126408
| 11>     O       17.0027114   15.1742427   16.3189291
| 12>     C       17.2902022   17.5620707   16.4397638
| 13>     C       17.4691729   18.6742327   15.6813390
| 14>     C       17.2850993   18.8224999   14.1867171
| 15>     N       17.6585781   19.9058739   16.3316811
| 16>     C       17.3310316   20.1039567   17.6585621
| 17>     S       17.1397992   21.6147433   18.3023873
| 18>     N       17.1500232   18.9579185   18.4023080
| 19>     C       17.6919995   17.6829949   17.9156485
| 20>     C       17.4207885   16.4974997   18.8350009
| 21>     C       18.4591124   15.6201301   19.1986114
| 22>     C       18.2079058   14.5309433   20.0501602
| 23>     C       16.9089179   14.3176165   20.5424260
| 24>     C       15.8738247   15.1910522   20.1823214
| 25>     O       14.6174353   14.9878055   20.6532280
| 26>     C       16.1274576   16.2796276   19.3425605
| 27>     H       13.5603724   15.1495136   15.6381830
| 28>     H       12.7117082   16.5423994   16.3433077
| 29>     H       14.1993768   15.9351877   17.0967470
| 30>     H       13.9683259   17.2627008   14.3208135
| 31>     H       14.6782274   18.0266889   15.7603215
| 32>     H       17.5344085   17.8912743   13.6617191
| 33>     H       17.9384905   19.6012481   13.7746295
| 34>     H       16.2496574   19.0835947   13.9377969
| 35>     H       17.7809003   20.7457666   15.7874156
| 36>     H       16.9088618   19.0766110   19.3786534
| 37>     H       18.7788725   17.8503035   17.9178092
| 38>     H       19.4605063   15.7722810   18.8059048
| 39>     H       19.0150036   13.8507351   20.3154354
| 40>     H       16.7096971   13.4731523   21.1934471
| 41>     H       14.6343383   14.1674610   21.1690168
| 42>     H       15.3115057   16.9411901   19.0759901
| 43> *
| 44> 
| 45>                          ****END OF INPUT****
================================================================================

                       ****************************
                       * Single Point Calculation *
                       ****************************

---------------------------------
CARTESIAN COORDINATES (ANGSTROEM)
---------------------------------
  C     13.701197   16.116931   16.136754
  C     14.524877   17.068319   15.246747
  O     15.780118   16.440138   14.923031
  C     16.706500   16.281292   15.912641
  O     17.002711   15.174243   16.318929
  C     17.290202   17.562071   16.439764
  C     17.469173   18.674233   15.681339
  C     17.285099   18.822500   14.186717
  N     17.658578   19.905874   16.331681
  C     17.331032   20.103957   17.658562
  S     17.139799   21.614743   18.302387
  N     17.150023   18.957918   18.402308
  C     17.692000   17.682995   17.915648
  C     17.420789   16.497500   18.835001
  C     18.459112   15.620130   19.198611
  C     18.207906   14.530943   20.050160
  C     16.908918   14.317616   20.542426
  C     15.873825   15.191052   20.182321
  O     14.617435   14.987805   20.653228
  C     16.127458   16.279628   19.342560
  H     13.560372   15.149514   15.638183
  H     12.711708   16.542399   16.343308
  H     14.199377   15.935188   17.096747
  H     13.968326   17.262701   14.320813
  H     14.678227   18.026689   15.760321
  H     17.534409   17.891274   13.661719
  H     17.938491   19.601248   13.774629
  H     16.249657   19.083595   13.937797
  H     17.780900   20.745767   15.787416
  H     16.908862   19.076611   19.378653
  H     18.778872   17.850303   17.917809
  H     19.460506   15.772281   18.805905
  H     19.015004   13.850735   20.315435
  H     16.709697   13.473152   21.193447
  H     14.634338   14.167461   21.169017
  H     15.311506   16.941190   19.075990

----------------------------
CARTESIAN COORDINATES (A.U.)
----------------------------
  NO LB      ZA    FRAG     MASS         X           Y           Z
   0 C     6.0000    0    12.011   25.891509   30.456585   30.494046
   1 C     6.0000    0    12.011   27.448040   32.254448   28.812176
   2 O     8.0000    0    15.999   29.820101   31.067359   28.200441
   3 C     6.0000    0    12.011   31.570709   30.767184   30.070533
   4 O     8.0000    0    15.999   32.130468   28.675163   30.838307
   5 C     6.0000    0    12.011   32.673747   33.187504   31.066651
   6 C     6.0000    0    12.011   33.011953   35.289186   29.633436
   7 C     6.0000    0    12.011   32.664104   35.569370   26.809010
   8 N     7.0000    0    14.007   33.369877   37.616650   30.862405
   9 C     6.0000    0    12.011   32.750903   37.990972   33.369846
  10 S    16.0000    0    32.060   32.389526   40.845945   34.586500
  11 N     7.0000    0    14.007   32.408847   35.825274   34.775322
  12 C     6.0000    0    12.011   33.433034   33.416018   33.855669
  13 C     6.0000    0    12.011   32.920519   31.175756   35.592993
  14 C     6.0000    0    12.011   34.882667   29.517768   36.280118
  15 C     6.0000    0    12.011   34.407955   27.459503   37.889312
  16 C     6.0000    0    12.011   31.953224   27.056374   38.819559
  17 C     6.0000    0    12.011   29.997181   28.706928   38.139060
  18 O     8.0000    0    15.999   27.622949   28.322848   39.028945
  19 C     6.0000    0    12.011   30.476478   30.764038   36.552142
  20 H     1.0000    0     1.008   25.625390   28.628432   29.551883
  21 H     1.0000    0     1.008   24.021647   31.260604   30.884376
  22 H     1.0000    0     1.008   26.832933   30.113141   32.308170
  23 H     1.0000    0     1.008   26.396311   32.621777   27.062416
  24 H     1.0000    0     1.008   27.737830   34.065505   29.782691
  25 H     1.0000    0     1.008   33.135230   33.809609   25.816908
  26 H     1.0000    0     1.008   33.898834   37.040991   26.030277
  27 H     1.0000    0     1.008   30.707402   36.062768   26.338619
  28 H     1.0000    0     1.008   33.601032   39.203817   29.833892
  29 H     1.0000    0     1.008   31.953118   36.049570   36.620348
  30 H     1.0000    0     1.008   35.486926   33.732185   33.859752
  31 H     1.0000    0     1.008   36.775027   29.805292   35.538010
  32 H     1.0000    0     1.008   35.933149   26.174096   38.390609
  33 H     1.0000    0     1.008   31.576751   25.460568   40.049811
  34 H     1.0000    0     1.008   27.654892   26.772621   40.003644
  35 H     1.0000    0     1.008   28.934552   32.014210   36.048397

--------------------------------
INTERNAL COORDINATES (ANGSTROEM)
--------------------------------
 C      0   0   0     0.000000000000     0.00000000     0.00000000
 C      1   0   0     1.541331198892     0.00000000     0.00000000
 O      2   1   0     1.440497139193   109.04177127     0.00000000
 C      3   2   1     1.364823790024   118.63795884   290.03018609
 O      4   3   2     1.215882523746   120.90476806   112.49213604
 C      4   3   2     1.502983851810   114.75403467   293.09958096
 C      6   4   3     1.357992269108   123.58722758   328.12991019
 C      7   6   4     1.513195584441   128.01359012   352.59291609
 N      7   6   4     1.405617025493   118.48764210   162.27476035
 C      9   7   6     1.380991199639   122.56575590   342.67692695
 S     10   9   7     1.653347171560   122.18469351   197.95056307
 N     10   9   7     1.378160208574   115.49266645    16.78213106
 C     12  10   9     1.468334418496   119.64941359    18.60731533
 C     13  12  10     1.524520616827   114.18313850   179.96886483
 C     14  13  12     1.407162581945   120.62415951   228.57309797
 C     15  14  13     1.405193225133   120.52839160   179.76026193
 C     16  15  14     1.405419334503   119.67933317   359.97093797
 C     17  16  15     1.401421841439   119.87198301   359.97258122
 O     18  17  16     1.357047004129   120.08644778   179.88413634
 C     18  17  16     1.398043067511   120.37365928   359.57615395
 H      1   2   3     1.097406191282   110.51037917   303.52774011
 H      1   2   3     1.096711147874   110.57534761   183.79235122
 H      1   2   3     1.096722466910   111.40637443    63.66174549
 H      2   1   3     1.097673063324   108.99206675   119.17038542
 H      2   1   3     1.098065990236   110.07729293   237.57767778
 H      8   7   6     1.097706288268   111.20139186   327.63734163
 H      8   7   6     1.096897902867   111.60315615   208.62071610
 H      8   7   6     1.096481504099   111.24988791    87.98191927
 H      9   7   6     1.008269508919   119.76852885   180.81919790
 H     12  10   9     1.012668292437   117.00834722   180.01244899
 H     13  12  10     1.099677113696   103.41825041    64.03835721
 H     15  14  13     1.086350824095   119.96323204   358.66373538
 H     16  15  14     1.088329447294   119.97247663   179.22472791
 H     17  16  15     1.084729083633   119.87674348   179.49935562
 H     19  18  17     0.969169178366   107.17566215   356.58470295
 H     20  18  17     1.083744537553   119.10894208   179.90787349

---------------------------
INTERNAL COORDINATES (A.U.)
---------------------------
 C      0   0   0     0.000000000000     0.00000000     0.00000000
 C      1   0   0     2.912693847575     0.00000000     0.00000000
 O      2   1   0     2.722145089772   109.04177127     0.00000000
 C      3   2   1     2.579143184205   118.63795884   290.03018609
 O      4   3   2     2.297684980901   120.90476806   112.49213604
 C      4   3   2     2.840227863627   114.75403467   293.09958096
 C      6   4   3     2.566233480597   123.58722758   328.12991019
 C      7   6   4     2.859525241653   128.01359012   352.59291609
 N      7   6   4     2.656231227360   118.48764210   162.27476035
 C      9   7   6     2.609695160672   122.56575590   342.67692695
 S     10   9   7     3.124373358541   122.18469351   197.95056307
 N     10   9   7     2.604345362873   115.49266645    16.78213106
 C     12  10   9     2.774749923967   119.64941359    18.60731533
 C     13  12  10     2.880926451319   114.18313850   179.96886483
 C     14  13  12     2.659151905777   120.62415951   228.57309797
 C     15  14  13     2.655430360743   120.52839160   179.76026193
 C     16  15  14     2.655857645528   119.67933317   359.97093797
 C     17  16  15     2.648303478415   119.87198301   359.97258122
 O     18  17  16     2.564447188663   120.08644778   179.88413634
 C     18  17  16     2.641918521024   120.37365928   359.57615395
 H      1   2   3     2.073797159193   110.51037917   303.52774011
 H      1   2   3     2.072483717500   110.57534761   183.79235122
 H      1   2   3     2.072505107378   111.40637443    63.66174549
 H      2   1   3     2.074301474265   108.99206675   119.17038542
 H      2   1   3     2.075043998518   110.07729293   237.57767778
 H      8   7   6     2.074364260311   111.20139186   327.63734163
 H      8   7   6     2.072836633292   111.60315615   208.62071610
 H      8   7   6     2.072049753657   111.24988791    87.98191927
 H      9   7   6     1.905353241041   119.76852885   180.81919790
 H     12  10   9     1.913665737212   117.00834722   180.01244899
 H     13  12  10     2.078088580627   103.41825041    64.03835721
 H     15  14  13     2.052905542899   119.96323204   358.66373538
 H     16  15  14     2.056644598867   119.97247663   179.22472791
 H     17  16  15     2.049840897566   119.87674348   179.49935562
 H     19  18  17     1.831464324549   107.17566215   356.58470295
 H     20  18  17     2.047980375108   119.10894208   179.90787349

---------------------
BASIS SET INFORMATION
---------------------
There are 5 groups of distinct atoms

 Group   1 Type C   : 18s5p2d1f contracted to 4s3p2d1f pattern {8811/311/11/1}
 Group   2 Type O   : 18s5p2d1f contracted to 4s3p2d1f pattern {8811/311/11/1}
 Group   3 Type N   : 18s5p2d1f contracted to 4s3p2d1f pattern {8811/311/11/1}
 Group   4 Type S   : 41s16p2d1f contracted to 5s4p2d1f pattern {13131311/7711/11/1}
 Group   5 Type H   : 5s2p1d contracted to 3s2p1d pattern {311/11/1}

Atom   0C    basis set group =>   1
Atom   1C    basis set group =>   1
Atom   2O    basis set group =>   2
Atom   3C    basis set group =>   1
Atom   4O    basis set group =>   2
Atom   5C    basis set group =>   1
Atom   6C    basis set group =>   1
Atom   7C    basis set group =>   1
Atom   8N    basis set group =>   3
Atom   9C    basis set group =>   1
Atom  10S    basis set group =>   4
Atom  11N    basis set group =>   3
Atom  12C    basis set group =>   1
Atom  13C    basis set group =>   1
Atom  14C    basis set group =>   1
Atom  15C    basis set group =>   1
Atom  16C    basis set group =>   1
Atom  17C    basis set group =>   1
Atom  18O    basis set group =>   2
Atom  19C    basis set group =>   1
Atom  20H    basis set group =>   5
Atom  21H    basis set group =>   5
Atom  22H    basis set group =>   5
Atom  23H    basis set group =>   5
Atom  24H    basis set group =>   5
Atom  25H    basis set group =>   5
Atom  26H    basis set group =>   5
Atom  27H    basis set group =>   5
Atom  28H    basis set group =>   5
Atom  29H    basis set group =>   5
Atom  30H    basis set group =>   5
Atom  31H    basis set group =>   5
Atom  32H    basis set group =>   5
Atom  33H    basis set group =>   5
Atom  34H    basis set group =>   5
Atom  35H    basis set group =>   5
---------------------------------
AUXILIARY/C BASIS SET INFORMATION
---------------------------------
There are 5 groups of distinct atoms

 Group   1 Type C   : 8s6p5d3f1g contracted to 8s6p5d3f1g pattern {11111111/111111/11111/111/1}
 Group   2 Type O   : 8s6p5d3f1g contracted to 8s6p5d3f1g pattern {11111111/111111/11111/111/1}
 Group   3 Type N   : 8s6p5d3f1g contracted to 8s6p5d3f1g pattern {11111111/111111/11111/111/1}
 Group   4 Type S   : 10s8p7d5f2g contracted to 10s8p7d5f2g pattern {1111111111/11111111/1111111/11111/11}
 Group   5 Type H   : 4s3p2d1f contracted to 4s3p2d1f pattern {1111/111/11/1}

Atom   0C    basis set group =>   1
Atom   1C    basis set group =>   1
Atom   2O    basis set group =>   2
Atom   3C    basis set group =>   1
Atom   4O    basis set group =>   2
Atom   5C    basis set group =>   1
Atom   6C    basis set group =>   1
Atom   7C    basis set group =>   1
Atom   8N    basis set group =>   3
Atom   9C    basis set group =>   1
Atom  10S    basis set group =>   4
Atom  11N    basis set group =>   3
Atom  12C    basis set group =>   1
Atom  13C    basis set group =>   1
Atom  14C    basis set group =>   1
Atom  15C    basis set group =>   1
Atom  16C    basis set group =>   1
Atom  17C    basis set group =>   1
Atom  18O    basis set group =>   2
Atom  19C    basis set group =>   1
Atom  20H    basis set group =>   5
Atom  21H    basis set group =>   5
Atom  22H    basis set group =>   5
Atom  23H    basis set group =>   5
Atom  24H    basis set group =>   5
Atom  25H    basis set group =>   5
Atom  26H    basis set group =>   5
Atom  27H    basis set group =>   5
Atom  28H    basis set group =>   5
Atom  29H    basis set group =>   5
Atom  30H    basis set group =>   5
Atom  31H    basis set group =>   5
Atom  32H    basis set group =>   5
Atom  33H    basis set group =>   5
Atom  34H    basis set group =>   5
Atom  35H    basis set group =>   5
------------------------------------------------------------------------------
                           ORCA GTO INTEGRAL CALCULATION
------------------------------------------------------------------------------

                         BASIS SET STATISTICS AND STARTUP INFO

 # of primitive gaussian shells          ...  682
 # of primitive gaussian functions       ... 1312
 # of contracted shells                  ...  298
 # of contracted basis functions         ...  828
 Highest angular momentum                ...    3
 Maximum contraction depth               ...   13
 Integral package used                   ... LIBINT
 Integral threshhold            Thresh   ...  2.500e-11
 Primitive cut-off              TCut     ...  2.500e-12


------------------------------ INTEGRAL EVALUATION ----------------------------


 * One electron integrals 
 Pre-screening matrix                    ... done
 Shell pair data                         ... done (   0.014 sec)

-------------------------------------------------------------------------------
                                 ORCA SCF
-------------------------------------------------------------------------------

------------
SCF SETTINGS
------------
Hamiltonian:
 Ab initio Hamiltonian  Method          .... Hartree-Fock(GTOs)


General Settings:
 Integral files         IntName         .... G2_CONFS/Conf6.orca
 Hartree-Fock type      HFTyp           .... RHF
 Total Charge           Charge          ....    0
 Multiplicity           Mult            ....    1
 Number of Electrons    NEL             ....  154
 Basis Dimension        Dim             ....  828
 Nuclear Repulsion      ENuc            ....   1712.4817562545 Eh

Convergence Acceleration:
 DIIS                   CNVDIIS         .... on
   Start iteration      DIISMaxIt       ....    12
   Startup error        DIISStart       ....  0.200000
   # of expansion vecs  DIISMaxEq       ....     5
   Bias factor          DIISBfac        ....   1.050
   Max. coefficient     DIISMaxC        ....  10.000
 Newton-Raphson         CNVNR           .... off
 SOSCF                  CNVSOSCF        .... on
   Start iteration      SOSCFMaxIt      ....   150
   Startup grad/error   SOSCFStart      ....  0.003300
 Level Shifting         CNVShift        .... on
   Level shift para.    LevelShift      ....    0.2500
   Turn off err/grad.   ShiftErr        ....    0.0010
 Zerner damping         CNVZerner       .... off
 Static damping         CNVDamp         .... on
   Fraction old density DampFac         ....    0.7000
   Max. Damping (<1)    DampMax         ....    0.9800
   Min. Damping (>=0)   DampMin         ....    0.0000
   Turn off err/grad.   DampErr         ....    0.1000
 Fernandez-Rico         CNVRico         .... off

SCF Procedure:
 Maximum # iterations   MaxIter         ....   125
 SCF integral mode      SCFMode         .... Direct
   Integral package                     .... LIBINT
 Reset frequency        DirectResetFreq ....    20
 Integral Threshold     Thresh          ....  2.500e-11 Eh
 Primitive CutOff       TCut            ....  2.500e-12 Eh

Convergence Tolerance:
 Convergence Check Mode ConvCheckMode   .... Total+1el-Energy
 Convergence forced     ConvForced      .... 1
 Energy Change          TolE            ....  1.000e-08 Eh
 1-El. energy change                    ....  1.000e-05 Eh
 Orbital Gradient       TolG            ....  1.000e-05
 Orbital Rotation angle TolX            ....  1.000e-05
 DIIS Error             TolErr          ....  5.000e-07


Diagonalization of the overlap matrix:
Smallest eigenvalue                        ... 3.357e-05
Time for diagonalization                   ...    0.112 sec
Threshold for overlap eigenvalues          ... 1.000e-08
Number of eigenvalues below threshold      ... 0
Time for construction of square roots      ...    0.222 sec
Total time needed                          ...    0.337 sec

-------------------
DFT GRID GENERATION
-------------------

General Integration Accuracy     IntAcc      ...  4.340
Radial Grid Type                 RadialGrid  ... Gauss-Chebyshev
Angular Grid (max. acc.)         AngularGrid ... Lebedev-110
Angular grid pruning method      GridPruning ... 3 (G Style)
Weight generation scheme         WeightScheme... Becke
Basis function cutoff            BFCut       ...    1.0000e-11
Integration weight cutoff        WCut        ...    1.0000e-14
Grids for H and He will be reduced by one unit

# of grid points (after initial pruning)     ...  46246 (   0.0 sec)
# of grid points (after weights+screening)   ...  41241 (   0.3 sec)
nearest neighbour list constructed           ...    0.0 sec
Grid point re-assignment to atoms done       ...    0.0 sec
Grid point division into batches done        ...    0.0 sec
Reduced shell lists constructed in    0.9 sec

Total number of grid points                  ...    41241
Total number of batches                      ...      664
Average number of points per batch           ...       62
Average number of grid points per atom       ...     1146
Average number of shells per batch           ...   150.10 (50.37%)
Average number of basis functions per batch  ...   382.24 (46.16%)
Average number of large shells per batch     ...    96.57 (64.34%)
Average number of large basis fcns per batch ...   247.69 (64.80%)
Maximum spatial batch extension              ...  19.49, 19.08, 23.99 au
Average spatial batch extension              ...   3.39,  3.36,  3.41 au

Time for grid setup =    1.260 sec

------------------------------
INITIAL GUESS: MODEL POTENTIAL
------------------------------
Loading Hartree-Fock densities                     ... done
Calculating cut-offs                               ... done
Setting up the integral package                    ... done
Initializing the effective Hamiltonian             ... done
Starting the Coulomb interaction                   ... done (   3.1 sec)
Reading the grid                                   ... done
Mapping shells                                     ... done
Starting the XC term evaluation                    ... done (   1.3 sec)
Transforming the Hamiltonian                       ... done (   0.1 sec)
Diagonalizing the Hamiltonian                      ... done (   0.1 sec)
Back transforming the eigenvectors                 ... done (   0.0 sec)
Now organizing SCF variables                       ... done
                      ------------------
                      INITIAL GUESS DONE (   6.0 sec)
                      ------------------
--------------
SCF ITERATIONS
--------------
ITER       Energy         Delta-E        Max-DP      RMS-DP      [F,P]     Damp
               ***  Starting incremental Fock matrix formation  ***
  0  -1269.9880012985   0.000000000000 0.04931881  0.00043345  0.3052872 0.7000
  1  -1270.2565620747  -0.268560776144 0.03939976  0.00034678  0.1765709 0.7000
                               ***Turning on DIIS***
  2  -1270.4236157652  -0.167053690552 0.02583492  0.00022919  0.1098707 0.7000
  3  -1272.5594795300  -2.135863764731 0.06310864  0.00049067  0.0829660 0.0000
  4  -1270.7299346243   1.829544905628 0.01493259  0.00010179  0.0079084 0.0000
  5  -1270.7930960932  -0.063161468855 0.00623660  0.00005335  0.0048470 0.0000
                      *** Initiating the SOSCF procedure ***
                           *** Shutting down DIIS ***
                      *** Re-Reading the Fockian *** 
                      *** Removing any level shift *** 
ITER      Energy       Delta-E        Grad      Rot      Max-DP    RMS-DP
  6  -1270.77174511   0.0213509822  0.002127  0.002127  0.002417  0.000027
               *** Restarting incremental Fock matrix formation ***
  7  -1270.78611686  -0.0143717530  0.001195  0.003058  0.001614  0.000017
  8  -1270.78617072  -0.0000538530  0.000539  0.003700  0.001445  0.000019
  9  -1270.78619254  -0.0000218277  0.000132  0.000388  0.000391  0.000005
 10  -1270.78619541  -0.0000028691  0.000061  0.000164  0.000139  0.000001
 11  -1270.78619572  -0.0000003049  0.000030  0.000177  0.000105  0.000001
 12  -1270.78619581  -0.0000000865  0.000010  0.000041  0.000027  0.000000
 13  -1270.78619581  -0.0000000056  0.000005  0.000012  0.000006  0.000000
                  ***Gradient check signals convergence***
              ***Rediagonalizing the Fockian in SOSCF/NRSCF***

               *****************************************************
               *                     SUCCESS                       *
               *           SCF CONVERGED AFTER  14 CYCLES          *
               *****************************************************


----------------
TOTAL SCF ENERGY
----------------

Total Energy       :        -1270.78619580 Eh          -34579.85039 eV

Components:
Nuclear Repulsion  :         1712.48175625 Eh           46598.99763 eV
Electronic Energy  :        -2983.26795206 Eh          -81178.84803 eV
One Electron Energy:        -5146.02050163 Eh         -140030.33685 eV
Two Electron Energy:         2162.75254957 Eh           58851.48883 eV

Virial components:
Potential Energy   :        -2539.75305221 Eh          -69110.19405 eV
Kinetic Energy     :         1268.96685641 Eh           34530.34365 eV
Virial Ratio       :            2.00143372


---------------
SCF CONVERGENCE
---------------

  Last Energy change         ...    5.8199e-09  Tolerance :   1.0000e-08
  Last MAX-Density change    ...    3.4363e-06  Tolerance :   1.0000e-07
  Last RMS-Density change    ...    4.1633e-08  Tolerance :   5.0000e-09
  Last Orbital Gradient      ...    1.5233e-06  Tolerance :   1.0000e-05
  Last Orbital Rotation      ...    4.8342e-06  Tolerance :   1.0000e-05

             **** THE GBW FILE WAS UPDATED (G2_CONFS/Conf6.orca.gbw) ****
             **** DENSITY FILE WAS UPDATED (G2_CONFS/Conf6.orca.scfp) ****
             **** ENERGY FILE WAS UPDATED (G2_CONFS/Conf6.orca.en.tmp) ****
             **** THE GBW FILE WAS UPDATED (G2_CONFS/Conf6.orca.gbw) ****
             **** DENSITY FILE WAS UPDATED (G2_CONFS/Conf6.orca.scfp) ****
----------------
ORBITAL ENERGIES
----------------

  NO   OCC          E(Eh)            E(eV) 
   0   2.0000     -91.893487     -2500.5489 
   1   2.0000     -20.596203      -560.4512 
   2   2.0000     -20.588871      -560.2517 
   3   2.0000     -20.547670      -559.1305 
   4   2.0000     -15.633659      -425.4135 
   5   2.0000     -15.608151      -424.7194 
   6   2.0000     -11.390242      -309.9442 
   7   2.0000     -11.387533      -309.8705 
   8   2.0000     -11.333909      -308.4113 
   9   2.0000     -11.312270      -307.8225 
  10   2.0000     -11.308685      -307.7250 
  11   2.0000     -11.305889      -307.6489 
  12   2.0000     -11.265224      -306.5423 
  13   2.0000     -11.262630      -306.4718 
  14   2.0000     -11.258928      -306.3710 
  15   2.0000     -11.252503      -306.1962 
  16   2.0000     -11.240999      -305.8831 
  17   2.0000     -11.238137      -305.8052 
  18   2.0000     -11.236835      -305.7698 
  19   2.0000     -11.227231      -305.5085 
  20   2.0000      -8.898453      -242.1392 
  21   2.0000      -6.580004      -179.0510 
  22   2.0000      -6.578034      -178.9974 
  23   2.0000      -6.577413      -178.9805 
  24   2.0000      -1.447232       -39.3812 
  25   2.0000      -1.415749       -38.5245 
  26   2.0000      -1.356083       -36.9009 
  27   2.0000      -1.342139       -36.5214 
  28   2.0000      -1.238844       -33.7107 
  29   2.0000      -1.155565       -31.4445 
  30   2.0000      -1.120652       -30.4945 
  31   2.0000      -1.044139       -28.4125 
  32   2.0000      -1.033038       -28.1104 
  33   2.0000      -1.014913       -27.6172 
  34   2.0000      -1.002287       -27.2736 
  35   2.0000      -0.986461       -26.8430 
  36   2.0000      -0.920911       -25.0593 
  37   2.0000      -0.889073       -24.1929 
  38   2.0000      -0.850465       -23.1423 
  39   2.0000      -0.843559       -22.9544 
  40   2.0000      -0.833704       -22.6862 
  41   2.0000      -0.828804       -22.5529 
  42   2.0000      -0.745807       -20.2944 
  43   2.0000      -0.729701       -19.8562 
  44   2.0000      -0.725365       -19.7382 
  45   2.0000      -0.697516       -18.9804 
  46   2.0000      -0.688911       -18.7462 
  47   2.0000      -0.680373       -18.5139 
  48   2.0000      -0.669229       -18.2107 
  49   2.0000      -0.665541       -18.1103 
  50   2.0000      -0.655894       -17.8478 
  51   2.0000      -0.652159       -17.7461 
  52   2.0000      -0.634375       -17.2622 
  53   2.0000      -0.613383       -16.6910 
  54   2.0000      -0.607270       -16.5247 
  55   2.0000      -0.600411       -16.3380 
  56   2.0000      -0.598398       -16.2832 
  57   2.0000      -0.578317       -15.7368 
  58   2.0000      -0.575933       -15.6719 
  59   2.0000      -0.563173       -15.3247 
  60   2.0000      -0.557624       -15.1737 
  61   2.0000      -0.552672       -15.0390 
  62   2.0000      -0.541549       -14.7363 
  63   2.0000      -0.525765       -14.3068 
  64   2.0000      -0.518788       -14.1170 
  65   2.0000      -0.515861       -14.0373 
  66   2.0000      -0.500224       -13.6118 
  67   2.0000      -0.494483       -13.4556 
  68   2.0000      -0.483517       -13.1572 
  69   2.0000      -0.464782       -12.6473 
  70   2.0000      -0.455909       -12.4059 
  71   2.0000      -0.439975       -11.9723 
  72   2.0000      -0.363356        -9.8874 
  73   2.0000      -0.344626        -9.3777 
  74   2.0000      -0.332735        -9.0542 
  75   2.0000      -0.319725        -8.7002 
  76   2.0000      -0.317749        -8.6464 
  77   0.0000       0.071800         1.9538 
  78   0.0000       0.110133         2.9969 
  79   0.0000       0.118616         3.2277 
  80   0.0000       0.129220         3.5163 
  81   0.0000       0.133750         3.6395 
  82   0.0000       0.138604         3.7716 
  83   0.0000       0.146537         3.9875 
  84   0.0000       0.153652         4.1811 
  85   0.0000       0.157978         4.2988 
  86   0.0000       0.171967         4.6795 
  87   0.0000       0.174853         4.7580 
  88   0.0000       0.185873         5.0579 
  89   0.0000       0.188822         5.1381 
  90   0.0000       0.202230         5.5029 
  91   0.0000       0.207277         5.6403 
  92   0.0000       0.212973         5.7953 
  93   0.0000       0.218907         5.9568 
  94   0.0000       0.228470         6.2170 
  95   0.0000       0.235055         6.3962 
  96   0.0000       0.245426         6.6784 
  97   0.0000       0.251182         6.8350 
  98   0.0000       0.264350         7.1933 
  99   0.0000       0.275635         7.5004 
 100   0.0000       0.290830         7.9139 
 101   0.0000       0.303162         8.2495 
 102   0.0000       0.318973         8.6797 
 103   0.0000       0.322339         8.7713 
 104   0.0000       0.324234         8.8228 
 105   0.0000       0.335617         9.1326 
 106   0.0000       0.341669         9.2973 
 107   0.0000       0.348782         9.4908 
 108   0.0000       0.353556         9.6207 
 109   0.0000       0.360462         9.8087 
 110   0.0000       0.371107        10.0983 
 111   0.0000       0.377002        10.2588 
 112   0.0000       0.387113        10.5339 
 113   0.0000       0.390921        10.6375 
 114   0.0000       0.408138        11.1060 
 115   0.0000       0.415197        11.2981 
 116   0.0000       0.421023        11.4566 
 117   0.0000       0.429131        11.6772 
 118   0.0000       0.435161        11.8413 
 119   0.0000       0.445712        12.1285 
 120   0.0000       0.452577        12.3152 
 121   0.0000       0.456017        12.4088 
 122   0.0000       0.456612        12.4250 
 123   0.0000       0.462656        12.5895 
 124   0.0000       0.464072        12.6280 
 125   0.0000       0.473785        12.8923 
 126   0.0000       0.476153        12.9568 
 127   0.0000       0.481506        13.1024 
 128   0.0000       0.488516        13.2932 
 129   0.0000       0.496152        13.5010 
 130   0.0000       0.504198        13.7199 
 131   0.0000       0.511193        13.9103 
 132   0.0000       0.515016        14.0143 
 133   0.0000       0.517965        14.0946 
 134   0.0000       0.527530        14.3548 
 135   0.0000       0.528197        14.3730 
 136   0.0000       0.536920        14.6103 
 137   0.0000       0.540007        14.6943 
 138   0.0000       0.543250        14.7826 
 139   0.0000       0.547331        14.8936 
 140   0.0000       0.550181        14.9712 
 141   0.0000       0.556511        15.1434 
 142   0.0000       0.560941        15.2640 
 143   0.0000       0.566525        15.4159 
 144   0.0000       0.570423        15.5220 
 145   0.0000       0.571253        15.5446 
 146   0.0000       0.583600        15.8806 
 147   0.0000       0.587910        15.9978 
 148   0.0000       0.592737        16.1292 
 149   0.0000       0.598034        16.2733 
 150   0.0000       0.605840        16.4857 
 151   0.0000       0.607853        16.5405 
 152   0.0000       0.616394        16.7729 
 153   0.0000       0.621646        16.9158 
 154   0.0000       0.623679        16.9712 
 155   0.0000       0.626267        17.0416 
 156   0.0000       0.627797        17.0832 
 157   0.0000       0.632508        17.2114 
 158   0.0000       0.634163        17.2565 
 159   0.0000       0.637458        17.3461 
 160   0.0000       0.645726        17.5711 
 161   0.0000       0.650649        17.7051 
 162   0.0000       0.654969        17.8226 
 163   0.0000       0.661436        17.9986 
 164   0.0000       0.670864        18.2551 
 165   0.0000       0.672763        18.3068 
 166   0.0000       0.676299        18.4030 
 167   0.0000       0.679302        18.4848 
 168   0.0000       0.691462        18.8156 
 169   0.0000       0.699674        19.0391 
 170   0.0000       0.703793        19.1512 
 171   0.0000       0.711640        19.3647 
 172   0.0000       0.713988        19.4286 
 173   0.0000       0.726427        19.7671 
 174   0.0000       0.727017        19.7831 
 175   0.0000       0.734722        19.9928 
 176   0.0000       0.739644        20.1267 
 177   0.0000       0.745622        20.2894 
 178   0.0000       0.752872        20.4867 
 179   0.0000       0.757489        20.6123 
 180   0.0000       0.769297        20.9336 
 181   0.0000       0.771668        20.9982 
 182   0.0000       0.777020        21.1438 
 183   0.0000       0.788514        21.4566 
 184   0.0000       0.799575        21.7575 
 185   0.0000       0.802252        21.8304 
 186   0.0000       0.808148        21.9908 
 187   0.0000       0.823077        22.3971 
 188   0.0000       0.830455        22.5978 
 189   0.0000       0.834354        22.7039 
 190   0.0000       0.847019        23.0485 
 191   0.0000       0.851019        23.1574 
 192   0.0000       0.857954        23.3461 
 193   0.0000       0.866575        23.5807 
 194   0.0000       0.872823        23.7507 
 195   0.0000       0.874483        23.7959 
 196   0.0000       0.879672        23.9371 
 197   0.0000       0.889185        24.1960 
 198   0.0000       0.900172        24.4949 
 199   0.0000       0.901802        24.5393 
 200   0.0000       0.914795        24.8928 
 201   0.0000       0.923137        25.1198 
 202   0.0000       0.923574        25.1317 
 203   0.0000       0.935434        25.4544 
 204   0.0000       0.941120        25.6092 
 205   0.0000       0.949288        25.8314 
 206   0.0000       0.953295        25.9405 
 207   0.0000       0.962807        26.1993 
 208   0.0000       0.967881        26.3374 
 209   0.0000       0.975742        26.5513 
 210   0.0000       0.986648        26.8480 
 211   0.0000       0.987878        26.8815 
 212   0.0000       0.995929        27.1006 
 213   0.0000       1.007510        27.4157 
 214   0.0000       1.011943        27.5364 
 215   0.0000       1.023319        27.8459 
 216   0.0000       1.027850        27.9692 
 217   0.0000       1.032647        28.0998 
 218   0.0000       1.039587        28.2886 
 219   0.0000       1.041377        28.3373 
 220   0.0000       1.052973        28.6528 
 221   0.0000       1.060149        28.8481 
 222   0.0000       1.068459        29.0742 
 223   0.0000       1.073158        29.2021 
 224   0.0000       1.075662        29.2702 
 225   0.0000       1.085214        29.5302 
 226   0.0000       1.089405        29.6442 
 227   0.0000       1.110377        30.2149 
 228   0.0000       1.118749        30.4427 
 229   0.0000       1.120908        30.5015 
 230   0.0000       1.131375        30.7863 
 231   0.0000       1.136752        30.9326 
 232   0.0000       1.140485        31.0342 
 233   0.0000       1.149752        31.2863 
 234   0.0000       1.160073        31.5672 
 235   0.0000       1.165001        31.7013 
 236   0.0000       1.172610        31.9084 
 237   0.0000       1.178328        32.0639 
 238   0.0000       1.185387        32.2560 
 239   0.0000       1.193376        32.4734 
 240   0.0000       1.197867        32.5956 
 241   0.0000       1.203138        32.7390 
 242   0.0000       1.212316        32.9888 
 243   0.0000       1.219206        33.1763 
 244   0.0000       1.226639        33.3785 
 245   0.0000       1.234169        33.5834 
 246   0.0000       1.237391        33.6711 
 247   0.0000       1.243392        33.8344 
 248   0.0000       1.253548        34.1108 
 249   0.0000       1.256422        34.1890 
 250   0.0000       1.264192        34.4004 
 251   0.0000       1.271960        34.6118 
 252   0.0000       1.281312        34.8663 
 253   0.0000       1.292091        35.1596 
 254   0.0000       1.296397        35.2768 
 255   0.0000       1.312438        35.7133 
 256   0.0000       1.318136        35.8683 
 257   0.0000       1.321960        35.9724 
 258   0.0000       1.333639        36.2902 
 259   0.0000       1.340882        36.4873 
 260   0.0000       1.347288        36.6616 
 261   0.0000       1.351058        36.7642 
 262   0.0000       1.369744        37.2726 
 263   0.0000       1.370489        37.2929 
 264   0.0000       1.379659        37.5424 
 265   0.0000       1.384413        37.6718 
 266   0.0000       1.393743        37.9257 
 267   0.0000       1.400996        38.1230 
 268   0.0000       1.404513        38.2187 
 269   0.0000       1.412726        38.4422 
 270   0.0000       1.422724        38.7143 
 271   0.0000       1.427107        38.8336 
 272   0.0000       1.437633        39.1200 
 273   0.0000       1.442681        39.2573 
 274   0.0000       1.456936        39.6453 
 275   0.0000       1.457955        39.6730 
 276   0.0000       1.466893        39.9162 
 277   0.0000       1.476916        40.1889 
 278   0.0000       1.485600        40.4252 
 279   0.0000       1.491832        40.5948 
 280   0.0000       1.498495        40.7761 
 281   0.0000       1.501879        40.8682 
 282   0.0000       1.513525        41.1851 
 283   0.0000       1.515425        41.2368 
 284   0.0000       1.523175        41.4477 
 285   0.0000       1.530861        41.6569 
 286   0.0000       1.532688        41.7066 
 287   0.0000       1.547357        42.1057 
 288   0.0000       1.552869        42.2557 
 289   0.0000       1.555181        42.3186 
 290   0.0000       1.567650        42.6579 
 291   0.0000       1.570536        42.7365 
 292   0.0000       1.575374        42.8681 
 293   0.0000       1.594831        43.3976 
 294   0.0000       1.598676        43.5022 
 295   0.0000       1.603855        43.6431 
 296   0.0000       1.611847        43.8606 
 297   0.0000       1.615848        43.9695 
 298   0.0000       1.620946        44.1082 
 299   0.0000       1.624874        44.2151 
 300   0.0000       1.632285        44.4167 
 301   0.0000       1.642128        44.6846 
 302   0.0000       1.652086        44.9556 
 303   0.0000       1.657721        45.1089 
 304   0.0000       1.669641        45.4332 
 305   0.0000       1.682248        45.7763 
 306   0.0000       1.689255        45.9670 
 307   0.0000       1.701088        46.2890 
 308   0.0000       1.714203        46.6458 
 309   0.0000       1.721485        46.8440 
 310   0.0000       1.731945        47.1286 
 311   0.0000       1.733949        47.1831 
 312   0.0000       1.737704        47.2853 
 313   0.0000       1.750388        47.6305 
 314   0.0000       1.754298        47.7369 
 315   0.0000       1.761110        47.9222 
 316   0.0000       1.768768        48.1306 
 317   0.0000       1.789131        48.6847 
 318   0.0000       1.791868        48.7592 
 319   0.0000       1.799127        48.9567 
 320   0.0000       1.815666        49.4068 
 321   0.0000       1.818569        49.4858 
 322   0.0000       1.838461        50.0271 
 323   0.0000       1.849404        50.3249 
 324   0.0000       1.857081        50.5337 
 325   0.0000       1.877612        51.0924 
 326   0.0000       1.886219        51.3266 
 327   0.0000       1.894343        51.5477 
 328   0.0000       1.912395        52.0389 
 329   0.0000       1.917195        52.1695 
 330   0.0000       1.926461        52.4217 
 331   0.0000       1.935397        52.6648 
 332   0.0000       1.950297        53.0703 
 333   0.0000       1.956341        53.2347 
 334   0.0000       1.969637        53.5966 
 335   0.0000       1.989639        54.1408 
 336   0.0000       2.001200        54.4554 
 337   0.0000       2.006771        54.6070 
 338   0.0000       2.010117        54.6981 
 339   0.0000       2.024093        55.0784 
 340   0.0000       2.038929        55.4821 
 341   0.0000       2.044070        55.6220 
 342   0.0000       2.065016        56.1919 
 343   0.0000       2.068457        56.2856 
 344   0.0000       2.094643        56.9981 
 345   0.0000       2.118314        57.6422 
 346   0.0000       2.132448        58.0269 
 347   0.0000       2.142528        58.3011 
 348   0.0000       2.144911        58.3660 
 349   0.0000       2.159700        58.7684 
 350   0.0000       2.176531        59.2264 
 351   0.0000       2.189707        59.5850 
 352   0.0000       2.195920        59.7540 
 353   0.0000       2.216111        60.3035 
 354   0.0000       2.224232        60.5244 
 355   0.0000       2.249874        61.2222 
 356   0.0000       2.258874        61.4671 
 357   0.0000       2.261621        61.5418 
 358   0.0000       2.286332        62.2143 
 359   0.0000       2.291773        62.3623 
 360   0.0000       2.310457        62.8707 
 361   0.0000       2.323631        63.2292 
 362   0.0000       2.333406        63.4952 
 363   0.0000       2.342182        63.7340 
 364   0.0000       2.354418        64.0670 
 365   0.0000       2.379910        64.7607 
 366   0.0000       2.383162        64.8491 
 367   0.0000       2.386769        64.9473 
 368   0.0000       2.415646        65.7331 
 369   0.0000       2.423188        65.9383 
 370   0.0000       2.429825        66.1189 
 371   0.0000       2.455815        66.8261 
 372   0.0000       2.468659        67.1756 
 373   0.0000       2.471549        67.2543 
 374   0.0000       2.500300        68.0366 
 375   0.0000       2.516843        68.4868 
 376   0.0000       2.521304        68.6082 
 377   0.0000       2.524458        68.6940 
 378   0.0000       2.552224        69.4495 
 379   0.0000       2.558383        69.6171 
 380   0.0000       2.564840        69.7928 
 381   0.0000       2.587471        70.4087 
 382   0.0000       2.589554        70.4653 
 383   0.0000       2.599193        70.7276 
 384   0.0000       2.610016        71.0221 
 385   0.0000       2.628823        71.5339 
 386   0.0000       2.640573        71.8536 
 387   0.0000       2.646026        72.0020 
 388   0.0000       2.660969        72.4087 
 389   0.0000       2.668322        72.6087 
 390   0.0000       2.676999        72.8448 
 391   0.0000       2.682204        72.9865 
 392   0.0000       2.698048        73.4176 
 393   0.0000       2.704091        73.5821 
 394   0.0000       2.718294        73.9686 
 395   0.0000       2.726692        74.1971 
 396   0.0000       2.739929        74.5573 
 397   0.0000       2.748178        74.7817 
 398   0.0000       2.764574        75.2279 
 399   0.0000       2.778494        75.6067 
 400   0.0000       2.781292        75.6828 
 401   0.0000       2.789263        75.8997 
 402   0.0000       2.795793        76.0774 
 403   0.0000       2.809011        76.4371 
 404   0.0000       2.811584        76.5071 
 405   0.0000       2.826349        76.9089 
 406   0.0000       2.834789        77.1385 
 407   0.0000       2.850195        77.5577 
 408   0.0000       2.853892        77.6583 
 409   0.0000       2.873154        78.1825 
 410   0.0000       2.885827        78.5273 
 411   0.0000       2.894056        78.7513 
 412   0.0000       2.897067        78.8332 
 413   0.0000       2.905322        79.0578 
 414   0.0000       2.913989        79.2937 
 415   0.0000       2.925186        79.5984 
 416   0.0000       2.937389        79.9304 
 417   0.0000       2.943885        80.1072 
 418   0.0000       2.958061        80.4929 
 419   0.0000       2.961110        80.5759 
 420   0.0000       2.968229        80.7696 
 421   0.0000       2.972035        80.8732 
 422   0.0000       2.973873        80.9232 
 423   0.0000       2.983620        81.1884 
 424   0.0000       2.995051        81.4995 
 425   0.0000       3.001590        81.6774 
 426   0.0000       3.018270        82.1313 
 427   0.0000       3.023298        82.2681 
 428   0.0000       3.029670        82.4415 
 429   0.0000       3.041561        82.7651 
 430   0.0000       3.046619        82.9027 
 431   0.0000       3.055230        83.1370 
 432   0.0000       3.060593        83.2830 
 433   0.0000       3.075639        83.6924 
 434   0.0000       3.080253        83.8179 
 435   0.0000       3.084815        83.9421 
 436   0.0000       3.094058        84.1936 
 437   0.0000       3.096120        84.2497 
 438   0.0000       3.105347        84.5008 
 439   0.0000       3.109643        84.6177 
 440   0.0000       3.114136        84.7400 
 441   0.0000       3.124843        85.0313 
 442   0.0000       3.131792        85.2204 
 443   0.0000       3.136902        85.3594 
 444   0.0000       3.149589        85.7047 
 445   0.0000       3.151204        85.7486 
 446   0.0000       3.156351        85.8887 
 447   0.0000       3.169773        86.2539 
 448   0.0000       3.180447        86.5443 
 449   0.0000       3.187991        86.7496 
 450   0.0000       3.188971        86.7763 
 451   0.0000       3.200449        87.0886 
 452   0.0000       3.211720        87.3953 
 453   0.0000       3.221397        87.6587 
 454   0.0000       3.230707        87.9120 
 455   0.0000       3.238047        88.1117 
 456   0.0000       3.240791        88.1864 
 457   0.0000       3.248594        88.3987 
 458   0.0000       3.250997        88.4641 
 459   0.0000       3.258086        88.6570 
 460   0.0000       3.264264        88.8251 
 461   0.0000       3.268732        88.9467 
 462   0.0000       3.278630        89.2161 
 463   0.0000       3.279243        89.2327 
 464   0.0000       3.291336        89.5618 
 465   0.0000       3.297418        89.7273 
 466   0.0000       3.302937        89.8775 
 467   0.0000       3.310196        90.0750 
 468   0.0000       3.314313        90.1871 
 469   0.0000       3.323508        90.4372 
 470   0.0000       3.325955        90.5038 
 471   0.0000       3.333046        90.6968 
 472   0.0000       3.351187        91.1904 
 473   0.0000       3.355260        91.3013 
 474   0.0000       3.362632        91.5019 
 475   0.0000       3.367827        91.6432 
 476   0.0000       3.370596        91.7186 
 477   0.0000       3.379863        91.9707 
 478   0.0000       3.380525        91.9888 
 479   0.0000       3.383982        92.0828 
 480   0.0000       3.390840        92.2695 
 481   0.0000       3.398072        92.4662 
 482   0.0000       3.405705        92.6740 
 483   0.0000       3.407472        92.7220 
 484   0.0000       3.409037        92.7646 
 485   0.0000       3.421674        93.1085 
 486   0.0000       3.423256        93.1515 
 487   0.0000       3.428448        93.2928 
 488   0.0000       3.432698        93.4085 
 489   0.0000       3.441970        93.6608 
 490   0.0000       3.445823        93.7656 
 491   0.0000       3.457105        94.0726 
 492   0.0000       3.462793        94.2274 
 493   0.0000       3.473148        94.5092 
 494   0.0000       3.476357        94.5965 
 495   0.0000       3.482015        94.7504 
 496   0.0000       3.494189        95.0817 
 497   0.0000       3.495632        95.1210 
 498   0.0000       3.503581        95.3373 
 499   0.0000       3.506237        95.4096 
 500   0.0000       3.510751        95.5324 
 501   0.0000       3.531250        96.0902 
 502   0.0000       3.535715        96.2117 
 503   0.0000       3.539105        96.3039 
 504   0.0000       3.544933        96.4625 
 505   0.0000       3.550873        96.6242 
 506   0.0000       3.564800        97.0031 
 507   0.0000       3.566783        97.0571 
 508   0.0000       3.572605        97.2155 
 509   0.0000       3.574340        97.2627 
 510   0.0000       3.585859        97.5762 
 511   0.0000       3.592279        97.7509 
 512   0.0000       3.609995        98.2330 
 513   0.0000       3.611961        98.2865 
 514   0.0000       3.626375        98.6787 
 515   0.0000       3.628212        98.7287 
 516   0.0000       3.633549        98.8739 
 517   0.0000       3.638653        99.0128 
 518   0.0000       3.639937        99.0477 
 519   0.0000       3.649841        99.3172 
 520   0.0000       3.654916        99.4553 
 521   0.0000       3.663461        99.6878 
 522   0.0000       3.665481        99.7428 
 523   0.0000       3.671118        99.8962 
 524   0.0000       3.675165       100.0063 
 525   0.0000       3.681745       100.1854 
 526   0.0000       3.687363       100.3382 
 527   0.0000       3.689190       100.3880 
 528   0.0000       3.705461       100.8307 
 529   0.0000       3.710867       100.9778 
 530   0.0000       3.713290       101.0438 
 531   0.0000       3.722101       101.2835 
 532   0.0000       3.729954       101.4972 
 533   0.0000       3.738098       101.7188 
 534   0.0000       3.739306       101.7517 
 535   0.0000       3.749293       102.0234 
 536   0.0000       3.752740       102.1172 
 537   0.0000       3.765802       102.4727 
 538   0.0000       3.767697       102.5242 
 539   0.0000       3.771553       102.6292 
 540   0.0000       3.780545       102.8739 
 541   0.0000       3.792959       103.2117 
 542   0.0000       3.794627       103.2571 
 543   0.0000       3.800771       103.4242 
 544   0.0000       3.815022       103.8120 
 545   0.0000       3.822433       104.0137 
 546   0.0000       3.826812       104.1329 
 547   0.0000       3.837124       104.4135 
 548   0.0000       3.844044       104.6018 
 549   0.0000       3.852086       104.8206 
 550   0.0000       3.859072       105.0107 
 551   0.0000       3.859219       105.0147 
 552   0.0000       3.872850       105.3856 
 553   0.0000       3.876737       105.4914 
 554   0.0000       3.885351       105.7258 
 555   0.0000       3.898522       106.0842 
 556   0.0000       3.907360       106.3247 
 557   0.0000       3.915729       106.5524 
 558   0.0000       3.926365       106.8418 
 559   0.0000       3.932691       107.0140 
 560   0.0000       3.950384       107.4954 
 561   0.0000       3.951516       107.5262 
 562   0.0000       3.971594       108.0726 
 563   0.0000       3.979367       108.2841 
 564   0.0000       3.995949       108.7353 
 565   0.0000       3.999782       108.8396 
 566   0.0000       4.003245       108.9338 
 567   0.0000       4.011572       109.1604 
 568   0.0000       4.019751       109.3830 
 569   0.0000       4.025805       109.5477 
 570   0.0000       4.035302       109.8062 
 571   0.0000       4.043908       110.0403 
 572   0.0000       4.049851       110.2021 
 573   0.0000       4.058349       110.4333 
 574   0.0000       4.063466       110.5725 
 575   0.0000       4.070080       110.7525 
 576   0.0000       4.084114       111.1344 
 577   0.0000       4.087537       111.2275 
 578   0.0000       4.092321       111.3577 
 579   0.0000       4.101196       111.5992 
 580   0.0000       4.106801       111.7517 
 581   0.0000       4.120454       112.1233 
 582   0.0000       4.123154       112.1967 
 583   0.0000       4.129542       112.3706 
 584   0.0000       4.135522       112.5333 
 585   0.0000       4.142005       112.7097 
 586   0.0000       4.148731       112.8927 
 587   0.0000       4.159360       113.1819 
 588   0.0000       4.170414       113.4827 
 589   0.0000       4.171725       113.5184 
 590   0.0000       4.178011       113.6895 
 591   0.0000       4.183324       113.8340 
 592   0.0000       4.191132       114.0465 
 593   0.0000       4.193721       114.1170 
 594   0.0000       4.202559       114.3574 
 595   0.0000       4.211066       114.5889 
 596   0.0000       4.218929       114.8029 
 597   0.0000       4.223976       114.9402 
 598   0.0000       4.235174       115.2450 
 599   0.0000       4.237225       115.3008 
 600   0.0000       4.246881       115.5635 
 601   0.0000       4.253458       115.7425 
 602   0.0000       4.257832       115.8615 
 603   0.0000       4.280949       116.4905 
 604   0.0000       4.281937       116.5174 
 605   0.0000       4.287001       116.6552 
 606   0.0000       4.296177       116.9049 
 607   0.0000       4.303449       117.1028 
 608   0.0000       4.321339       117.5896 
 609   0.0000       4.335041       117.9625 
 610   0.0000       4.336999       118.0157 
 611   0.0000       4.348679       118.3336 
 612   0.0000       4.358095       118.5898 
 613   0.0000       4.362246       118.7028 
 614   0.0000       4.367392       118.8428 
 615   0.0000       4.372561       118.9834 
 616   0.0000       4.385744       119.3422 
 617   0.0000       4.395699       119.6130 
 618   0.0000       4.402952       119.8104 
 619   0.0000       4.414649       120.1287 
 620   0.0000       4.415775       120.1594 
 621   0.0000       4.434358       120.6650 
 622   0.0000       4.437992       120.7639 
 623   0.0000       4.441563       120.8611 
 624   0.0000       4.461511       121.4039 
 625   0.0000       4.467567       121.5687 
 626   0.0000       4.475748       121.7913 
 627   0.0000       4.482517       121.9755 
 628   0.0000       4.489730       122.1718 
 629   0.0000       4.497018       122.3701 
 630   0.0000       4.503379       122.5432 
 631   0.0000       4.510866       122.7469 
 632   0.0000       4.524868       123.1279 
 633   0.0000       4.531681       123.3133 
 634   0.0000       4.532478       123.3350 
 635   0.0000       4.543583       123.6372 
 636   0.0000       4.556215       123.9809 
 637   0.0000       4.561469       124.1239 
 638   0.0000       4.577141       124.5503 
 639   0.0000       4.577937       124.5720 
 640   0.0000       4.586636       124.8087 
 641   0.0000       4.594958       125.0352 
 642   0.0000       4.602411       125.2380 
 643   0.0000       4.614946       125.5791 
 644   0.0000       4.620082       125.7188 
 645   0.0000       4.633050       126.0717 
 646   0.0000       4.637292       126.1871 
 647   0.0000       4.645555       126.4120 
 648   0.0000       4.646736       126.4441 
 649   0.0000       4.656871       126.7199 
 650   0.0000       4.665434       126.9529 
 651   0.0000       4.667673       127.0138 
 652   0.0000       4.681685       127.3951 
 653   0.0000       4.692938       127.7013 
 654   0.0000       4.697722       127.8315 
 655   0.0000       4.709064       128.1401 
 656   0.0000       4.714169       128.2791 
 657   0.0000       4.725198       128.5792 
 658   0.0000       4.736434       128.8849 
 659   0.0000       4.750294       129.2621 
 660   0.0000       4.759442       129.5110 
 661   0.0000       4.765916       129.6872 
 662   0.0000       4.770425       129.8099 
 663   0.0000       4.790667       130.3607 
 664   0.0000       4.798867       130.5838 
 665   0.0000       4.820436       131.1707 
 666   0.0000       4.840062       131.7048 
 667   0.0000       4.857720       132.1853 
 668   0.0000       4.868119       132.4682 
 669   0.0000       4.887678       133.0005 
 670   0.0000       4.912569       133.6778 
 671   0.0000       4.934239       134.2675 
 672   0.0000       4.942408       134.4898 
 673   0.0000       4.960042       134.9696 
 674   0.0000       4.971227       135.2740 
 675   0.0000       4.993460       135.8790 
 676   0.0000       5.011757       136.3768 
 677   0.0000       5.025339       136.7464 
 678   0.0000       5.028271       136.8262 
 679   0.0000       5.044541       137.2689 
 680   0.0000       5.059104       137.6652 
 681   0.0000       5.063795       137.7929 
 682   0.0000       5.067489       137.8934 
 683   0.0000       5.080233       138.2402 
 684   0.0000       5.092979       138.5870 
 685   0.0000       5.107874       138.9923 
 686   0.0000       5.120559       139.3375 
 687   0.0000       5.133505       139.6898 
 688   0.0000       5.159377       140.3938 
 689   0.0000       5.171928       140.7353 
 690   0.0000       5.175557       140.8341 
 691   0.0000       5.187408       141.1565 
 692   0.0000       5.193714       141.3282 
 693   0.0000       5.198215       141.4506 
 694   0.0000       5.207518       141.7038 
 695   0.0000       5.212258       141.8327 
 696   0.0000       5.226796       142.2283 
 697   0.0000       5.231486       142.3560 
 698   0.0000       5.242930       142.6674 
 699   0.0000       5.258081       143.0797 
 700   0.0000       5.267471       143.3352 
 701   0.0000       5.280823       143.6985 
 702   0.0000       5.287283       143.8743 
 703   0.0000       5.309914       144.4901 
 704   0.0000       5.313894       144.5984 
 705   0.0000       5.325238       144.9071 
 706   0.0000       5.344290       145.4255 
 707   0.0000       5.355119       145.7202 
 708   0.0000       5.363834       145.9573 
 709   0.0000       5.378441       146.3548 
 710   0.0000       5.389403       146.6531 
 711   0.0000       5.402707       147.0151 
 712   0.0000       5.415847       147.3727 
 713   0.0000       5.455769       148.4590 
 714   0.0000       5.468830       148.8144 
 715   0.0000       5.480313       149.1269 
 716   0.0000       5.486988       149.3085 
 717   0.0000       5.500262       149.6697 
 718   0.0000       5.514472       150.0564 
 719   0.0000       5.522945       150.2870 
 720   0.0000       5.533392       150.5713 
 721   0.0000       5.543743       150.8529 
 722   0.0000       5.558680       151.2594 
 723   0.0000       5.579637       151.8297 
 724   0.0000       5.584725       151.9681 
 725   0.0000       5.589212       152.0902 
 726   0.0000       5.602452       152.4505 
 727   0.0000       5.617845       152.8693 
 728   0.0000       5.632671       153.2728 
 729   0.0000       5.650082       153.7465 
 730   0.0000       5.657044       153.9360 
 731   0.0000       5.665051       154.1539 
 732   0.0000       5.674493       154.4108 
 733   0.0000       5.685858       154.7201 
 734   0.0000       5.693301       154.9226 
 735   0.0000       5.699029       155.0785 
 736   0.0000       5.710071       155.3789 
 737   0.0000       5.724683       155.7765 
 738   0.0000       5.727366       155.8496 
 739   0.0000       5.755227       156.6077 
 740   0.0000       5.763751       156.8396 
 741   0.0000       5.779895       157.2789 
 742   0.0000       5.804384       157.9453 
 743   0.0000       5.806259       157.9964 
 744   0.0000       5.822752       158.4451 
 745   0.0000       5.851560       159.2290 
 746   0.0000       5.872944       159.8109 
 747   0.0000       5.890769       160.2960 
 748   0.0000       5.913134       160.9046 
 749   0.0000       5.933961       161.4713 
 750   0.0000       5.942424       161.7016 
 751   0.0000       5.964742       162.3089 
 752   0.0000       5.985338       162.8693 
 753   0.0000       6.018414       163.7694 
 754   0.0000       6.034306       164.2018 
 755   0.0000       6.043474       164.4513 
 756   0.0000       6.050017       164.6293 
 757   0.0000       6.077675       165.3819 
 758   0.0000       6.084976       165.5806 
 759   0.0000       6.105926       166.1507 
 760   0.0000       6.125732       166.6896 
 761   0.0000       6.151460       167.3897 
 762   0.0000       6.210196       168.9880 
 763   0.0000       6.230486       169.5402 
 764   0.0000       6.243915       169.9056 
 765   0.0000       6.292787       171.2354 
 766   0.0000       6.308806       171.6713 
 767   0.0000       6.316125       171.8705 
 768   0.0000       6.340060       172.5218 
 769   0.0000       6.348485       172.7511 
 770   0.0000       6.353324       172.8827 
 771   0.0000       6.381690       173.6546 
 772   0.0000       6.401153       174.1842 
 773   0.0000       6.433773       175.0719 
 774   0.0000       6.455961       175.6756 
 775   0.0000       6.467106       175.9789 
 776   0.0000       6.499409       176.8579 
 777   0.0000       6.554016       178.3438 
 778   0.0000       6.561879       178.5578 
 779   0.0000       6.626324       180.3115 
 780   0.0000       6.647343       180.8834 
 781   0.0000       6.658511       181.1873 
 782   0.0000       6.718700       182.8251 
 783   0.0000       6.759740       183.9419 
 784   0.0000       6.838221       186.0774 
 785   0.0000       6.859834       186.6656 
 786   0.0000       6.912206       188.0907 
 787   0.0000       6.920714       188.3222 
 788   0.0000       6.955732       189.2751 
 789   0.0000       7.010078       190.7539 
 790   0.0000       7.055587       191.9923 
 791   0.0000       7.060316       192.1210 
 792   0.0000       7.083315       192.7468 
 793   0.0000       7.118456       193.7030 
 794   0.0000       7.254303       197.3996 
 795   0.0000       7.264148       197.6675 
 796   0.0000       7.283153       198.1847 
 797   0.0000       7.296850       198.5574 
 798   0.0000       7.342737       199.8060 
 799   0.0000       7.383115       200.9048 
 800   0.0000       7.412111       201.6938 
 801   0.0000       7.573719       206.0914 
 802   0.0000       7.580352       206.2719 
 803   0.0000       7.610256       207.0856 
 804   0.0000       7.669865       208.7076 
 805   0.0000       7.797285       212.1749 
 806   0.0000       7.821108       212.8232 
 807   0.0000       7.906315       215.1418 
 808   0.0000       7.932447       215.8529 
 809   0.0000       9.497196       258.4318 
 810   0.0000       9.649357       262.5724 
 811   0.0000      10.761637       292.8390 
 812   0.0000      11.237880       305.7983 
 813   0.0000      11.906318       323.9874 
 814   0.0000      12.597539       342.7965 
 815   0.0000      12.904516       351.1497 
 816   0.0000      13.010023       354.0207 
 817   0.0000      13.101376       356.5066 
 818   0.0000      13.252288       360.6131 
 819   0.0000      13.406656       364.8137 
 820   0.0000      13.448587       365.9547 
 821   0.0000      13.800951       375.5430 
 822   0.0000      13.884327       377.8118 
 823   0.0000      13.997764       380.8985 
 824   0.0000      14.047883       382.2623 
 825   0.0000      14.282031       388.6338 
 826   0.0000      14.496468       394.4690 
 827   0.0000      15.979416       434.8220 

                    ********************************
                    * MULLIKEN POPULATION ANALYSIS *
                    ********************************

-----------------------
MULLIKEN ATOMIC CHARGES
-----------------------
   0 C :   -0.274306
   1 C :    0.000213
   2 O :   -0.349570
   3 C :    0.445574
   4 O :   -0.367422
   5 C :   -0.179419
   6 C :    0.113557
   7 C :   -0.288435
   8 N :   -0.145611
   9 C :    0.205150
  10 S :   -0.431940
  11 N :   -0.209551
  12 C :    0.032236
  13 C :    0.041573
  14 C :   -0.185209
  15 C :   -0.120662
  16 C :   -0.272040
  17 C :    0.324187
  18 O :   -0.363873
  19 C :   -0.260148
  20 H :    0.109930
  21 H :    0.096063
  22 H :    0.104985
  23 H :    0.116987
  24 H :    0.097079
  25 H :    0.135021
  26 H :    0.114151
  27 H :    0.122373
  28 H :    0.197706
  29 H :    0.206322
  30 H :    0.136431
  31 H :    0.140878
  32 H :    0.158620
  33 H :    0.128655
  34 H :    0.242724
  35 H :    0.177772
Sum of atomic charges:    0.0000000

--------------------------------
MULLIKEN REDUCED ORBITAL CHARGES
--------------------------------
  0 C s       :     3.260148  s :     3.260148
      pz      :     0.988675  p :     2.937149
      px      :     0.971377
      py      :     0.977097
      dz2     :     0.016763  d :     0.072577
      dxz     :     0.011189
      dyz     :     0.016886
      dx2y2   :     0.012946
      dxy     :     0.014793
      f0      :     0.000431  f :     0.004432
      f+1     :     0.000812
      f-1     :     0.000454
      f+2     :     0.000727
      f-2     :     0.001004
      f+3     :     0.000343
      f-3     :     0.000661
  1 C s       :     3.175782  s :     3.175782
      pz      :     0.998739  p :     2.652150
      px      :     0.720230
      py      :     0.933182
      dz2     :     0.024874  d :     0.160129
      dxz     :     0.037024
      dyz     :     0.023177
      dx2y2   :     0.040296
      dxy     :     0.034759
      f0      :     0.001137  f :     0.011726
      f+1     :     0.001496
      f-1     :     0.000812
      f+2     :     0.001633
      f-2     :     0.001755
      f+3     :     0.002902
      f-3     :     0.001992
  2 O s       :     3.724401  s :     3.724401
      pz      :     1.522194  p :     4.589284
      px      :     1.303449
      py      :     1.763640
      dz2     :     0.007139  d :     0.033622
      dxz     :     0.012998
      dyz     :     0.003535
      dx2y2   :     0.004138
      dxy     :     0.005813
      f0      :     0.000122  f :     0.002264
      f+1     :     0.000470
      f-1     :     0.000075
      f+2     :     0.000438
      f-2     :     0.000305
      f+3     :     0.000333
      f-3     :     0.000519
  3 C s       :     3.057857  s :     3.057857
      pz      :     0.660215  p :     2.186892
      px      :     0.701705
      py      :     0.824973
      dz2     :     0.049796  d :     0.283419
      dxz     :     0.036722
      dyz     :     0.067483
      dx2y2   :     0.061180
      dxy     :     0.068238
      f0      :     0.002483  f :     0.026257
      f+1     :     0.002528
      f-1     :     0.004156
      f+2     :     0.004193
      f-2     :     0.004140
      f+3     :     0.004289
      f-3     :     0.004469
  4 O s       :     3.771237  s :     3.771237
      pz      :     1.535260  p :     4.557386
      px      :     1.593595
      py      :     1.428532
      dz2     :     0.004760  d :     0.036331
      dxz     :     0.001044
      dyz     :     0.011261
      dx2y2   :     0.008949
      dxy     :     0.010319
      f0      :     0.000233  f :     0.002467
      f+1     :     0.000028
      f-1     :     0.000449
      f+2     :     0.000477
      f-2     :     0.000223
      f+3     :     0.000589
      f-3     :     0.000469
  5 C s       :     3.170572  s :     3.170572
      pz      :     0.921064  p :     2.921767
      px      :     1.143701
      py      :     0.857003
      dz2     :     0.021675  d :     0.076369
      dxz     :     0.014089
      dyz     :     0.022825
      dx2y2   :     0.003016
      dxy     :     0.014764
      f0      :     0.001761  f :     0.010711
      f+1     :     0.000935
      f-1     :     0.002079
      f+2     :     0.001369
      f-2     :     0.001400
      f+3     :     0.001875
      f-3     :     0.001294
  6 C s       :     3.205151  s :     3.205151
      pz      :     0.926267  p :     2.493684
      px      :     0.800829
      py      :     0.766589
      dz2     :     0.037086  d :     0.173381
      dxz     :     0.026321
      dyz     :     0.040617
      dx2y2   :     0.023700
      dxy     :     0.045656
      f0      :     0.002101  f :     0.014227
      f+1     :     0.000875
      f-1     :     0.003345
      f+2     :     0.002164
      f-2     :     0.002182
      f+3     :     0.002041
      f-3     :     0.001518
  7 C s       :     3.276564  s :     3.276564
      pz      :     0.853627  p :     2.935488
      px      :     1.024499
      py      :     1.057363
      dz2     :     0.018899  d :     0.071715
      dxz     :     0.014914
      dyz     :     0.013240
      dx2y2   :     0.011413
      dxy     :     0.013249
      f0      :     0.001960  f :     0.004668
      f+1     :     0.000595
      f-1     :     0.000660
      f+2     :     0.000166
      f-2     :     0.000139
      f+3     :     0.000689
      f-3     :     0.000460
  8 N s       :     3.353106  s :     3.353106
      pz      :     1.058920  p :     3.728666
      px      :     1.606301
      py      :     1.063445
      dz2     :     0.014942  d :     0.059032
      dxz     :     0.007462
      dyz     :     0.022289
      dx2y2   :     0.007913
      dxy     :     0.006426
      f0      :     0.000926  f :     0.004807
      f+1     :     0.000721
      f-1     :     0.000958
      f+2     :     0.000824
      f-2     :     0.000288
      f+3     :     0.000455
      f-3     :     0.000635
  9 C s       :     3.158679  s :     3.158679
      pz      :     0.765532  p :     2.361907
      px      :     0.683620
      py      :     0.912755
      dz2     :     0.059667  d :     0.256915
      dxz     :     0.043789
      dyz     :     0.065339
      dx2y2   :     0.027506
      dxy     :     0.060613
      f0      :     0.003108  f :     0.017350
      f+1     :     0.002255
      f-1     :     0.003705
      f+2     :     0.002315
      f-2     :     0.002123
      f+3     :     0.002368
      f-3     :     0.001476
 10 S s       :     5.855445  s :     5.855445
      pz      :     3.751019  p :    10.481096
      px      :     3.611509
      py      :     3.118567
      dz2     :     0.008377  d :     0.085265
      dxz     :     0.003623
      dyz     :     0.026877
      dx2y2   :     0.027493
      dxy     :     0.018895
      f0      :     0.001422  f :     0.010134
      f+1     :     0.000051
      f-1     :     0.001162
      f+2     :     0.002732
      f-2     :     0.000919
      f+3     :     0.001800
      f-3     :     0.002048
 11 N s       :     3.388256  s :     3.388256
      pz      :     1.129710  p :     3.760006
      px      :     1.581994
      py      :     1.048303
      dz2     :     0.014764  d :     0.056816
      dxz     :     0.002780
      dyz     :     0.016687
      dx2y2   :     0.010494
      dxy     :     0.012090
      f0      :     0.000574  f :     0.004473
      f+1     :     0.000331
      f-1     :     0.000711
      f+2     :     0.000777
      f-2     :     0.000576
      f+3     :     0.000787
      f-3     :     0.000718
 12 C s       :     3.166006  s :     3.166006
      pz      :     0.849614  p :     2.611460
      px      :     0.975585
      py      :     0.786261
      dz2     :     0.039864  d :     0.178862
      dxz     :     0.025309
      dyz     :     0.035224
      dx2y2   :     0.049786
      dxy     :     0.028679
      f0      :     0.001752  f :     0.011436
      f+1     :     0.001372
      f-1     :     0.001919
      f+2     :     0.001545
      f-2     :     0.001203
      f+3     :     0.001777
      f-3     :     0.001869
 13 C s       :     3.132478  s :     3.132478
      pz      :     0.882966  p :     2.702853
      px      :     0.934130
      py      :     0.885757
      dz2     :     0.017009  d :     0.111743
      dxz     :     0.025085
      dyz     :     0.018381
      dx2y2   :     0.028340
      dxy     :     0.022927
      f0      :     0.001103  f :     0.011353
      f+1     :     0.001365
      f-1     :     0.001374
[...]
      f-1     :     0.004477
      f+2     :     0.005090
      f-2     :     0.007900
      f+3     :     0.008568
      f-3     :     0.006835
 15 C s       :     2.705479  s :     2.705479
      pz      :     0.880912  p :     2.789382
      px      :     0.977631
      py      :     0.930838
      dz2     :     0.072658  d :     0.414487
      dxz     :     0.081412
      dyz     :     0.049980
      dx2y2   :     0.082463
      dxy     :     0.127975
      f0      :     0.003739  f :     0.041008
      f+1     :     0.005134
      f-1     :     0.004265
      f+2     :     0.006521
      f-2     :     0.006320
      f+3     :     0.006672
      f-3     :     0.008357
 16 C s       :     2.701513  s :     2.701513
      pz      :     0.927317  p :     2.864883
      px      :     0.993550
      py      :     0.944015
      dz2     :     0.035158  d :     0.389376
      dxz     :     0.084866
      dyz     :     0.055265
      dx2y2   :     0.105757
      dxy     :     0.108331
      f0      :     0.003465  f :     0.040258
      f+1     :     0.007022
      f-1     :     0.001500
      f+2     :     0.004670
      f-2     :     0.006077
      f+3     :     0.008474
      f-3     :     0.009051
 17 C s       :     2.701564  s :     2.701564
      pz      :     0.863740  p :     2.679451
      px      :     0.851358
      py      :     0.964354
      dz2     :     0.110340  d :     0.708279
      dxz     :     0.158613
      dyz     :     0.080023
      dx2y2   :     0.189091
      dxy     :     0.170211
      f0      :     0.007774  f :     0.099299
      f+1     :     0.018409
      f-1     :     0.005187
      f+2     :     0.013941
      f-2     :     0.014030
      f+3     :     0.020463
      f-3     :     0.019494
 18 O s       :     3.177554  s :     3.177554
      pz      :     1.504887  p :     4.348760
      px      :     1.418336
      py      :     1.425537
      dz2     :     0.006359  d :     0.075413
      dxz     :     0.016503
      dyz     :     0.013009
      dx2y2   :     0.026023
      dxy     :     0.013520
      f0      :     0.000532  f :     0.005082
      f+1     :     0.000704
      f-1     :     0.000319
      f+2     :     0.001009
      f-2     :     0.000326
      f+3     :     0.001192
      f-3     :     0.001000
 19 C s       :     2.694574  s :     2.694574
      pz      :     0.927823  p :     2.852632
      px      :     0.976705
      py      :     0.948104
      dz2     :     0.061672  d :     0.388344
      dxz     :     0.072834
      dyz     :     0.054221
      dx2y2   :     0.083339
      dxy     :     0.116278
      f0      :     0.003747  f :     0.040761
      f+1     :     0.004922
      f-1     :     0.004121
      f+2     :     0.006747
      f-2     :     0.006568
      f+3     :     0.006496
      f-3     :     0.008159
 20 H s       :     0.843060  s :     0.843060
      pz      :     0.045012  p :     0.150028
      px      :     0.038189
      py      :     0.066827
      dz2     :     0.004775  d :     0.027555
      dxz     :     0.002193
      dyz     :     0.007248
      dx2y2   :     0.005902
      dxy     :     0.007436
 21 H s       :     0.846808  s :     0.846808
      pz      :     0.041400  p :     0.151929
      px      :     0.066816
      py      :     0.043713
      dz2     :     0.002405  d :     0.027460
      dxz     :     0.007927
      dyz     :     0.001923
      dx2y2   :     0.007956
      dxy     :     0.007249
 22 H s       :     0.845875  s :     0.845875
      pz      :     0.067509  p :     0.154043
      px      :     0.045900
      py      :     0.040634
      dz2     :     0.008860  d :     0.027547
      dxz     :     0.006959
      dyz     :     0.007521
      dx2y2   :     0.001995
      dxy     :     0.002211
 23 H s       :     0.852858  s :     0.852858
      pz      :     0.066574  p :     0.143701
      px      :     0.038377
      py      :     0.038751
      dz2     :     0.006953  d :     0.026778
      dxz     :     0.007601
      dyz     :     0.007527
      dx2y2   :     0.002247
      dxy     :     0.002451
 24 H s       :     0.861167  s :     0.861167
      pz      :     0.050049  p :     0.150347
      px      :     0.028791
      py      :     0.071508
      dz2     :     0.005347  d :     0.027260
      dxz     :     0.001894
      dyz     :     0.007992
      dx2y2   :     0.006542
      dxy     :     0.005485
 25 H s       :     0.829529  s :     0.829529
      pz      :     0.042816  p :     0.149295
      px      :     0.040801
      py      :     0.065677
      dz2     :     0.005258  d :     0.027625
      dxz     :     0.002027
      dyz     :     0.007193
      dx2y2   :     0.005966
      dxy     :     0.007182
 26 H s       :     0.839008  s :     0.839008
      pz      :     0.040837  p :     0.150731
      px      :     0.052141
      py      :     0.057753
      dz2     :     0.004358  d :     0.027656
      dxz     :     0.003738
      dyz     :     0.005217
      dx2y2   :     0.008632
      dxy     :     0.005711
 27 H s       :     0.832951  s :     0.832951
      pz      :     0.038942  p :     0.152053
      px      :     0.070816
      py      :     0.042295
      dz2     :     0.003311  d :     0.027725
      dxz     :     0.007798
      dyz     :     0.000782
      dx2y2   :     0.006929
      dxy     :     0.008906
 28 H s       :     0.745105  s :     0.745105
      pz      :     0.063857  p :     0.252580
      px      :     0.089388
      py      :     0.099334
      dz2     :     0.010141  d :     0.061521
      dxz     :     0.006993
      dyz     :     0.016292
      dx2y2   :     0.011087
      dxy     :     0.017007
 29 H s       :     0.750380  s :     0.750380
      pz      :     0.121027  p :     0.257084
      px      :     0.092001
      py      :     0.044056
      dz2     :     0.021089  d :     0.061064
      dxz     :     0.022053
      dyz     :     0.014835
      dx2y2   :     0.001818
      dxy     :     0.001268
 30 H s       :     0.832063  s :     0.832063
      pz      :     0.037722  p :     0.152745
      px      :     0.081618
      py      :     0.033405
      dz2     :     0.002872  d :     0.029172
      dxz     :     0.009122
      dyz     :     0.000445
      dx2y2   :     0.007938
      dxy     :     0.008794
 31 H s       :     0.843810  s :     0.843810
      pz      :     0.047799  p :     0.156709
      px      :     0.071760
      py      :     0.037150
      dz2     :     0.003816  d :     0.027519
      dxz     :     0.007926
      dyz     :     0.001367
      dx2y2   :     0.007029
      dxy     :     0.007382
 32 H s       :     0.842174  s :     0.842174
      pz      :     0.039853  p :     0.150999
      px      :     0.058276
      py      :     0.052869
      dz2     :     0.003041  d :     0.026464
      dxz     :     0.004682
      dyz     :     0.003588
      dx2y2   :     0.007784
      dxy     :     0.007369
 33 H s       :     0.848260  s :     0.848260
      pz      :     0.059089  p :     0.158910
      px      :     0.034251
      py      :     0.065570
      dz2     :     0.006037  d :     0.027775
      dxz     :     0.003453
      dyz     :     0.007313
      dx2y2   :     0.005392
      dxy     :     0.005579
 34 H s       :     0.705796  s :     0.705796
      pz      :     0.117945  p :     0.347508
      px      :     0.075501
      py      :     0.154062
      dz2     :     0.022232  d :     0.099548
      dxz     :     0.009032
      dyz     :     0.026035
      dx2y2   :     0.020863
      dxy     :     0.021386
 35 H s       :     0.842190  s :     0.842190
      pz      :     0.045114  p :     0.159426
      px      :     0.059263
      py      :     0.055050
      dz2     :     0.003180  d :     0.028205
      dxz     :     0.005582
      dyz     :     0.003683
      dx2y2   :     0.008285
      dxy     :     0.007474


                      *****************************
                      * MAYER POPULATION ANALYSIS *
                      *****************************

  NA   - Mulliken gross atomic population
  ZA   - Total nuclear charge
  QA   - Mulliken gross atomic charge
  VA   - Mayer's total valence
  BVA  - Mayer's bonded valence
  FA   - Mayer's free valence

  ATOM       NA         ZA         QA         VA         BVA        FA
  0 C      6.2743     6.0000    -0.2743     3.8936     3.8936    -0.0000
  1 C      5.9998     6.0000     0.0002     3.8808     3.8808    -0.0000
  2 O      8.3496     8.0000    -0.3496     1.9938     1.9938    -0.0000
  3 C      5.5544     6.0000     0.4456     4.2013     4.2013     0.0000
  4 O      8.3674     8.0000    -0.3674     2.1270     2.1270     0.0000
  5 C      6.1794     6.0000    -0.1794     3.5454     3.5454     0.0000
  6 C      5.8864     6.0000     0.1136     3.8267     3.8267     0.0000
  7 C      6.2884     6.0000    -0.2884     3.8962     3.8962     0.0000
  8 N      7.1456     7.0000    -0.1456     3.2746     3.2746     0.0000
  9 C      5.7949     6.0000     0.2051     4.1695     4.1695     0.0000
 10 S     16.4319    16.0000    -0.4319     1.7644     1.7644     0.0000
 11 N      7.2096     7.0000    -0.2096     3.2169     3.2169     0.0000
 12 C      5.9678     6.0000     0.0322     3.9334     3.9334     0.0000
 13 C      5.9584     6.0000     0.0416     3.7667     3.7667    -0.0000
 14 C      6.1852     6.0000    -0.1852     3.9025     3.9025     0.0000
 15 C      6.1207     6.0000    -0.1207     3.8160     3.8160     0.0000
 16 C      6.2720     6.0000    -0.2720     3.8124     3.8124     0.0000
 17 C      5.6758     6.0000     0.3242     3.8618     3.8618    -0.0000
 18 O      8.3639     8.0000    -0.3639     2.1120     2.1120    -0.0000
 19 C      6.2601     6.0000    -0.2601     3.8113     3.8113    -0.0000
 20 H      0.8901     1.0000     0.1099     0.9853     0.9853     0.0000
 21 H      0.9039     1.0000     0.0961     0.9819     0.9819     0.0000
 22 H      0.8950     1.0000     0.1050     0.9814     0.9814    -0.0000
 23 H      0.8830     1.0000     0.1170     0.9721     0.9721     0.0000
 24 H      0.9029     1.0000     0.0971     0.9669     0.9669     0.0000
 25 H      0.8650     1.0000     0.1350     0.9818     0.9818    -0.0000
 26 H      0.8858     1.0000     0.1142     0.9826     0.9826    -0.0000
 27 H      0.8776     1.0000     0.1224     0.9715     0.9715    -0.0000
 28 H      0.8023     1.0000     0.1977     1.0204     1.0204     0.0000
 29 H      0.7937     1.0000     0.2063     1.0102     1.0102    -0.0000
 30 H      0.8636     1.0000     0.1364     0.9779     0.9779     0.0000
 31 H      0.8591     1.0000     0.1409     0.9908     0.9908     0.0000
 32 H      0.8414     1.0000     0.1586     0.9783     0.9783     0.0000
 33 H      0.8713     1.0000     0.1287     0.9926     0.9926     0.0000
 34 H      0.7573     1.0000     0.2427     1.0100     1.0100     0.0000
 35 H      0.8222     1.0000     0.1778     0.9843     0.9843    -0.0000

  Mayer bond orders larger than 0.100000
B(  0-C ,  1-C ) :   0.9808 B(  0-C , 20-H ) :   0.9771 B(  0-C , 21-H ) :   0.9759 
B(  0-C , 22-H ) :   0.9706 B(  1-C ,  2-O ) :   0.9039 B(  1-C , 23-H ) :   0.9784 
B(  1-C , 24-H ) :   0.9659 B(  2-O ,  3-C ) :   1.1107 B(  3-C ,  4-O ) :   2.0911 
B(  3-C ,  5-C ) :   0.9483 B(  5-C ,  6-C ) :   1.6949 B(  5-C , 12-C ) :   0.9280 
B(  6-C ,  7-C ) :   0.9637 B(  6-C ,  8-N ) :   1.1170 B(  7-C , 25-H ) :   0.9742 
B(  7-C , 26-H ) :   0.9765 B(  7-C , 27-H ) :   0.9612 B(  8-N ,  9-C ) :   1.1900 
B(  8-N , 28-H ) :   0.9514 B(  9-C , 10-S ) :   1.6193 B(  9-C , 11-N ) :   1.3028 
B( 11-N , 12-C ) :   0.9437 B( 11-N , 29-H ) :   0.9364 B( 12-C , 13-C ) :   1.0085 
B( 12-C , 30-H ) :   0.9944 B( 13-C , 14-C ) :   1.3798 B( 13-C , 19-C ) :   1.3331 
B( 14-C , 15-C ) :   1.4029 B( 14-C , 31-H ) :   0.9764 B( 15-C , 16-C ) :   1.3596 
B( 15-C , 32-H ) :   0.9716 B( 16-C , 17-C ) :   1.3420 B( 16-C , 33-H ) :   0.9848 
B( 17-C , 18-O ) :   1.0967 B( 17-C , 19-C ) :   1.3677 B( 18-O , 34-H ) :   0.9800 
B( 19-C , 35-H ) :   0.9528 

-------
TIMINGS
-------

Total SCF time: 0 days 1 hours 34 min 37 sec 

Total time                  ....    5677.150 sec
Sum of individual times     ....    5671.332 sec  ( 99.9%)

Fock matrix formation       ....    5660.150 sec  ( 99.7%)
Diagonalization             ....       1.160 sec  (  0.0%)
Density matrix formation    ....       0.207 sec  (  0.0%)
Population analysis         ....       0.275 sec  (  0.0%)
Initial guess               ....       4.773 sec  (  0.1%)
Orbital Transformation      ....       0.000 sec  (  0.0%)
Orbital Orthonormalization  ....       0.000 sec  (  0.0%)
DIIS solution               ....       1.952 sec  (  0.0%)
SOSCF solution              ....       1.556 sec  (  0.0%)

------------------------------------------------------------------------------
                                ORCA  MP2 
------------------------------------------------------------------------------

Freezing NCore=48 chemical core electrons

-------------
RI-MP2 ENERGY
-------------
Dimension of the basis                    ...  828
Memory devoted to MP2                     ...  256 MB   
Data format for buffers                   ... DOUBLE
Compression type for matrix containers    ... UNCOMPRESSED
Overall scaling of the MP2 energy         ...   1.000e+00
Calculating two index integrals           ... done (    0.037 sec)
Cholesky decomposition of V**-1           ... done (    0.268 sec)

-----------------
RI-TRANSFORMATION (AUX index driven)
-----------------

Dimension of the orbital-basis         ... 828
Dimension of the aux-basis             ... 2141
Transformation of internal/external MOs...   24-  76 to   77- 827
Number Format for Storage              ... Double (8 Byte)
Integral mode                          ... Direct

First Phase: integral generation and transformation of MO indices
  Aux angular momentum 0               ... done (    4.385 sec)
  Aux angular momentum 1               ... done (    6.412 sec)
  Aux angular momentum 2               ... done (    8.668 sec)
  Aux angular momentum 3               ... done (    6.952 sec)
  Aux angular momentum 4               ... done (    2.465 sec)
Closing buffer VIA ( 0.63 GB; CompressionRatio= 1.00)
  Phase 1 completed in    29.227 sec
Second Phase: sorting and transformation of aux index

IA-Transformation
Memory available                       ... 167 MB 
Max. # MO pairs treated in a batch     ... 12    
# of internal orbitals                 ... 53
# batches for internal orbitals        ... 5
Closing buffer IAV ( 0.63 GB; CompressionRatio= 1.00)
(ia|v) transformation done in    25.708 sec

  Phase 2 completed in    25.767 sec
RI-Integral transformation completed in    55.045 sec
Opening buffers                              ... done

Starting loop over batches of integrals:

Operator 0  - window                       ... ( 24- 76)x( 77-827)
Operator 0  - Memory available             ...   256 MB
Operator 0  - Memory needed per MO         ...  12.3 MB
Operator 0  - Number of orbitals per batch ... 13
Operator 0  - Number of batches            ... 5

OPERATOR  0   PASS   0:  MOs    24 ...   36
  Reading integrals       ... ok
  Internal MO  26
  Internal MO  29
  Internal MO  32
  Internal MO  35
OPERATOR  0   PASS   1:  MOs    37 ...   49
  Reading integrals       ... ok
  Internal MO  38
  Internal MO  41
  Internal MO  44
  Internal MO  47
OPERATOR  0   PASS   2:  MOs    50 ...   62
  Reading integrals       ... ok
  Internal MO  50
  Internal MO  53
  Internal MO  56
  Internal MO  59
  Internal MO  62
OPERATOR  0   PASS   3:  MOs    63 ...   75
  Reading integrals       ... ok
  Internal MO  65
  Internal MO  68
  Internal MO  71
  Internal MO  74
OPERATOR  0   PASS   4:  MOs    76 ...   76
  Reading integrals       ... ok
Time spent in pair loops =    67.911 sec
Deleting buffer (Ka|jb)[aa] ...done

-----------------------------------------------
 RI-MP2 CORRELATION ENERGY:     -3.538415830 Eh
-----------------------------------------------


-------
TIMINGS
-------

Total time                :  123.373 sec
Integral trafo            :   55.049 sec ( 44.6%)
I/O of integrals          :    1.392 sec (  1.1%)
K(i,j) Operators          :   40.868 sec ( 33.1%)
T(i,j) pair energies      :    7.887 sec (  6.4%)
V-calculation             :    0.037 sec (  0.0%)
V**(-1/2)                 :    0.268 sec (  0.2%)
Gamma(ia|P)               :    0.000 sec (  0.0%)
Gamma-Trafo               :    0.000 sec (  0.0%)
D(virtual)                :    0.000 sec (  0.0%)
D(internal)               :    0.000 sec (  0.0%)
W(virtual)                :    0.000 sec (  0.0%)
W(internal)               :    0.000 sec (  0.0%)
L(virtual)                :    0.000 sec (  0.0%)
L(internal)               :    0.000 sec (  0.0%)
G(D)                      :    0.000 sec (  0.0%)
G(Z)                      :    0.000 sec (  0.0%)
Z-Vector Solution         :    0.000 sec (  0.0%)
3-Index Derivative        :    0.000 sec (  0.0%)
2-Index Derivative        :    0.000 sec (  0.0%)
Separable Gradient        :    0.000 sec (  0.0%)


---------------------------------------
MP2 TOTAL ENERGY:    -1274.324611635 Eh
---------------------------------------

-------------------------   --------------------
FINAL SINGLE POINT ENERGY     -1274.324611634819
-------------------------   --------------------


                            ***************************************
                            *     ORCA property calculations      *
                            ***************************************


  WARNING: The energy has been calculated at the MP2 level but the densities
           used in the property calculations are still SCF densities
           MP2 response densities have not been calculated 
           use %mp2 Density relaxed end
           or  %mp2 Density unrelaxed end

                                    ---------------------
                                    Active property flags
                                    ---------------------
   (+) Dipole Moment


------------------------------------------------------------------------------
                       ORCA ELECTRIC PROPERTIES CALCULATION
------------------------------------------------------------------------------

Dipole Moment Calculation                       ... on
Quadrupole Moment Calculation                   ... off
Polarizability Calculation                      ... off
GBWName                                         ... G2_CONFS/Conf6.orca.gbw
Electron density file                           ... G2_CONFS/Conf6.orca.scfp
The origin for moment calculation is the CENTER OF MASS  = (31.540364, 32.810735 33.292754)

-------------
DIPOLE MOMENT
-------------
                                X             Y             Z
Electronic contribution:      7.06614       5.42293       6.61561
Nuclear contribution   :     -7.18118      -6.21671      -7.26735
                        -----------------------------------------
Total Dipole Moment    :     -0.11504      -0.79378      -0.65174
                        -----------------------------------------
Magnitude (a.u.)       :      1.03349
Magnitude (Debye)      :      2.62691



--------------------
Rotational spectrum 
--------------------
 
Rotational constants in cm-1:     0.012901     0.008065     0.006348 
Rotational constants in MHz :   386.750141   241.782796   190.309347 

 Dipole components along the rotational axes: 
x,y,z [a.u.] :     0.349023    -0.935174     0.267816 
x,y,z [Debye]:     0.887147    -2.377023     0.680735 

 

Timings for individual modules:

Sum of individual times         ...     5802.563 sec (=  96.709 min)
GTO integral calculation        ...        1.362 sec (=   0.023 min)   0.0 %
SCF iterations                  ...     5677.264 sec (=  94.621 min)  97.8 %
MP2 module                      ...      123.938 sec (=   2.066 min)   2.1 %
                             ****ORCA TERMINATED NORMALLY****
TOTAL RUN TIME: 0 days 1 hours 36 minutes 43 seconds 523 msec
