
                                 *****************
                                 * O   R   C   A *
                                 *****************

           --- An Ab Initio, DFT and Semiempirical electronic structure package ---

                  #######################################################
                  #                        -***-                        #
                  #          Department of theory and spectroscopy      #
                  #               Directorship: Frank Neese             #
                  #        Max Planck Institute fuer Kohlenforschung    #
                  #                Kaiser Wilhelm Platz 1               #
                  #                 D-45470 Muelheim/Ruhr               #
                  #                      Germany                        #
                  #                                                     #
                  #                  All rights reserved                #
                  #                        -***-                        #
                  #######################################################


                         Program Version 4.2.0 -  RELEASE  -


 With contributions from (in alphabetic order):
   Daniel Aravena         : Magnetic Suceptibility
   Michael Atanasov       : Ab Initio Ligand Field Theory (pilot matlab implementation)
   Alexander A. Auer      : GIAO ZORA, VPT2
   Ute Becker             : Parallelization
   Giovanni Bistoni       : ED, misc. LED, open-shell LED, HFLED
   Martin Brehm           : Molecular dynamics
   Dmytro Bykov           : SCF Hessian
   Vijay G. Chilkuri      : MRCI spin determinant printing, contributions to CSF-ICE
   Dipayan Datta          : RHF DLPNO-CCSD density
   Achintya Kumar Dutta   : EOM-CC, STEOM-CC
   Dmitry Ganyushin       : Spin-Orbit,Spin-Spin,Magnetic field MRCI
   Miquel Garcia          : C-PCM Hessian, Gaussian charge scheme
   Yang Guo               : DLPNO-NEVPT2, CIM, IAO-localization
   Andreas Hansen         : Spin unrestricted coupled pair/coupled cluster methods
   Benjamin Helmich-Paris : CASSCF linear response (MC-RPA)
   Lee Huntington         : MR-EOM, pCC
   Robert Izsak           : Overlap fitted RIJCOSX, COSX-SCS-MP3, EOM
   Christian Kollmar      : KDIIS, OOCD, Brueckner-CCSD(T), CCSD density
   Simone Kossmann        : Meta GGA functionals, TD-DFT gradient, OOMP2, MP2 Hessian
   Martin Krupicka        : AUTO-CI
   Lucas Lang             : DCDCAS
   Dagmar Lenk            : GEPOL surface, SMD
   Dimitrios Liakos       : Extrapolation schemes; Compound Job, initial MDCI parallelization
   Dimitrios Manganas     : Further ROCIS development; embedding schemes
   Dimitrios Pantazis     : SARC Basis sets
   Taras Petrenko         : DFT Hessian,TD-DFT gradient, ASA, ECA, R-Raman, ABS, FL, XAS/XES, NRVS
   Peter Pinski           : DLPNO-MP2, DLPNO-MP2 Gradient
   Christoph Reimann      : Effective Core Potentials
   Marius Retegan         : Local ZFS, SOC
   Christoph Riplinger    : Optimizer, TS searches, QM/MM, DLPNO-CCSD(T), (RO)-DLPNO pert. Triples
   Tobias Risthaus        : Range-separated hybrids, TD-DFT gradient, RPA, STAB
   Michael Roemelt        : Original ROCIS implementation
   Masaaki Saitow         : Open-shell DLPNO-CCSD energy and density
   Barbara Sandhoefer     : DKH picture change effects
   Avijit Sen             : IP-ROCIS
   Kantharuban Sivalingam : CASSCF convergence, NEVPT2, FIC-MRCI
   Bernardo de Souza      : ESD, SOC TD-DFT
   Georgi Stoychev        : AutoAux, RI-MP2 NMR
   Willem Van den Heuvel  : Paramagnetic NMR
   Boris Wezisla          : Elementary symmetry handling
   Frank Wennmohs         : Technical directorship


 We gratefully acknowledge several colleagues who have allowed us to
 interface, adapt or use parts of their codes:
   Stefan Grimme, W. Hujo, H. Kruse,             : VdW corrections, initial TS optimization,
                  C. Bannwarth                     DFT functionals, gCP, sTDA/sTD-DF
   Ed Valeev, F. Pavosevic, A. Kumar             : LibInt (2-el integral package), F12 methods
   Garnet Chan, S. Sharma, J. Yang, R. Olivares  : DMRG
   Ulf Ekstrom                                   : XCFun DFT Library
   Mihaly Kallay                                 : mrcc  (arbitrary order and MRCC methods)
   Andreas Klamt, Michael Diedenhofen            : otool_cosmo (COSMO solvation model)
   Jiri Pittner, Ondrej Demel                    : Mk-CCSD
   Frank Weinhold                                : gennbo (NPA and NBO analysis)
   Christopher J. Cramer and Donald G. Truhlar   : smd solvation model
   Lars Goerigk                                  : TD-DFT with DH, B97 family of functionals
   V. Asgeirsson, H. Jonsson                     : NEB implementation
   FAccTs GmbH                                   : IRC, NEB, NEB-TS, Multilevel, MM, QM/MM, CI optimization
   S Lehtola, MJT Oliveira, MAL Marques          : LibXC Library


 Your calculation uses the libint2 library for the computation of 2-el integrals
 For citations please refer to: http://libint.valeyev.net

 Your ORCA version has been built with support for libXC version: 4.2.3
 For citations please refer to: https://tddft.org/programs/libxc/

 This ORCA versions uses:
   CBLAS   interface :  Fast vector & matrix operations
   LAPACKE interface :  Fast linear algebra routines
   SCALAPACK package :  Parallel linear algebra routines


----- Orbital basis set information -----
Your calculation utilizes the basis: cc-pVTZ 
       H, B-Ne : Obtained from the ccRepo (grant-hill.group.shef.ac.uk/ccrepo) Feb. 2017
                 T. H. Dunning, Jr., J. Chem. Phys. 90, 1007 (1989)
            He : Obtained from the ccRepo (grant-hill.group.shef.ac.uk/ccrepo) Feb. 2017
                 D. E. Woon, T. H. Dunning, Jr., J. Chem. Phys. 100, 2975 (1994)
  Li-Be, Na-Mg : Obtained from the ccRepo (grant-hill.group.shef.ac.uk/ccrepo) Feb. 2017
                 B. P. Prascher, D. E. Woon, K. A. Peterson, T. H. Dunning, Jr., A. K. Wilson, Theor. Chem. Acc. 128, 69 (2011)
         Al-Ar : Obtained from the ccRepo (grant-hill.group.shef.ac.uk/ccrepo) Feb. 2017
                 D. E. Woon, T. H. Dunning, Jr., J. Chem. Phys. 98, 1358 (1993)
            Ca : Obtained from the Peterson Research Group Website (tyr0.chem.wsu.edu/~kipeters) Feb. 2017
                 J. Koput, K. A. Peterson, J. Phys. Chem. 106, 9595 (2002)
         Sc-Zn : Obtained from the ccRepo (grant-hill.group.shef.ac.uk/ccrepo) Feb. 2017
                 N. B. Balabanov, K. A. Peterson, J. Chem. Phys. 123, 064107 (2005)
                 N. B. Balabanov, K. A. Peterson, J. Chem. Phys. 125, 074110 (2006)
         Ga-Kr : Obtained from the ccRepo (grant-hill.group.shef.ac.uk/ccrepo) Feb. 2017
                 A. K. Wilson, D. E. Woon, K. A. Peterson, T. H. Dunning, Jr., J. Chem. Phys. 110, 7667 (1999)
             Y : Obtained from the ccRepo (grant-hill.group.shef.ac.uk/ccrepo) Feb. 2017
                 K. A. Peterson, D. Figgen, M. Dolg, H. Stoll, J. Chem. Phys. 126, 124101 (2007)
        Ag, Au : Obtained from the Peterson Research Group Website (tyr0.chem.wsu.edu/~kipeters) Feb. 2017
                 K. A. Peterson, C. Puzzarini, Theor. Chem. Acc. 114, 283 (2005)

----- AuxC basis set information -----
Your calculation utilizes the auxiliary basis: cc-pVTZ/C 
  Obtained from the EMSL Basis Set Exchange (bse.pnl.gov) Feb. 2017
  H-He, B-F, Al-Ar, Ga-Kr : F. Weigend, A. Kohn, C. Hattig, J. Chem. Phys. 116, 3175 (2002)
             Li-Be, Na-Mg : C. Haettig, Phys. Chem. Chem. Phys. 7, 59 (2005)
                       Ne : C. Haettig, Phys. Chem. Chem. Phys. 7, 59 (2005)
                            F. Weigend, A. Kohn, C. Hattig, J. Chem. Phys. 116, 3175 (2002)
                    Sc-Zn : J. G. Hill, J. A. Platts, J. Chem. Phys. 128, 044104 (2008)

================================================================================
                                        WARNINGS
                       Please study these warnings very carefully!
================================================================================


WARNING: No MP2 level density has been requested!
         To caclulate MP2 level properties use
         %mp2 Density relaxed end
         or
         %mp2 Density unrelaxed end

WARNING: Post HF methods need fully converged wavefunctions
  ===> : Setting SCFConvForced true
         You can overwrite this default with %scf ConvForced false 


INFO   : the flag for use of LIBINT has been found!

================================================================================
                                       INPUT FILE
================================================================================
NAME = G2_CONFS/Conf5.orca
|  1> ! ri-mp2 cc-pvtz cc-pvtz/c TightSCF NoKeepInts
|  2> 
|  3> %scf
|  4>   MaxCore 4096
|  5> end
|  6> *xyz  0  1
|  7>     C       14.1276550   15.4473069   14.2303051
|  8>     C       13.7079326   16.5455818   15.2278321
|  9>     O       14.8652792   17.3237510   15.5883804
| 10>     C       15.7821225   16.8312841   16.4755228
| 11>     O       15.6251430   15.7571351   17.0284870
| 12>     C       16.9642147   17.7405159   16.7001542
| 13>     C       17.3184270   18.7586482   15.8677798
| 14>     C       16.7419215   19.1197713   14.5148019
| 15>     N       18.1933687   19.7502433   16.3482182
| 16>     C       18.4219851   19.9557289   17.6934940
| 17>     S       19.0957470   21.3512042   18.2717507
| 18>     N       18.0446048   18.9208569   18.5189719
| 19>     C       17.8439470   17.5816605   17.9538831
| 20>     C       17.4807163   16.5289320   18.9961245
| 21>     C       18.2043267   15.3244140   19.0783572
| 22>     C       17.8819717   14.3626621   20.0507934
| 23>     C       16.8290921   14.6074404   20.9488787
| 24>     C       16.1075463   15.8065129   20.8694245
| 25>     O       15.0912788   16.0453668   21.7367260
| 26>     C       16.4351650   16.7661197   19.9067173
| 27>     H       14.8139210   14.7302411   14.6980739
| 28>     H       14.6248885   15.8854783   13.3564089
| 29>     H       13.2482363   14.8923233   13.8819743
| 30>     H       12.9685920   17.1991357   14.7475414
| 31>     H       13.2413911   16.1007875   16.1178008
| 32>     H       16.5915081   18.2232921   13.9006316
| 33>     H       17.4005635   19.7882535   13.9474057
| 34>     H       15.7717117   19.6201873   14.6274001
| 35>     H       18.4568416   20.5156687   15.7479297
| 36>     H       18.1915186   19.0452690   19.5128451
| 37>     H       18.8419257   17.3156257   17.5769954
| 38>     H       19.0122741   15.1279000   18.3794397
| 39>     H       18.4416032   13.4306945   20.1009254
| 40>     H       16.5737003   13.8654852   21.6976991
| 41>     H       14.9869765   15.2513756   22.2817945
| 42>     H       15.8589006   17.6831471   19.8565332
| 43> *
| 44> 
| 45>                          ****END OF INPUT****
================================================================================

                       ****************************
                       * Single Point Calculation *
                       ****************************

---------------------------------
CARTESIAN COORDINATES (ANGSTROEM)
---------------------------------
  C     14.127655   15.447307   14.230305
  C     13.707933   16.545582   15.227832
  O     14.865279   17.323751   15.588380
  C     15.782122   16.831284   16.475523
  O     15.625143   15.757135   17.028487
  C     16.964215   17.740516   16.700154
  C     17.318427   18.758648   15.867780
  C     16.741922   19.119771   14.514802
  N     18.193369   19.750243   16.348218
  C     18.421985   19.955729   17.693494
  S     19.095747   21.351204   18.271751
  N     18.044605   18.920857   18.518972
  C     17.843947   17.581661   17.953883
  C     17.480716   16.528932   18.996125
  C     18.204327   15.324414   19.078357
  C     17.881972   14.362662   20.050793
  C     16.829092   14.607440   20.948879
  C     16.107546   15.806513   20.869425
  O     15.091279   16.045367   21.736726
  C     16.435165   16.766120   19.906717
  H     14.813921   14.730241   14.698074
  H     14.624888   15.885478   13.356409
  H     13.248236   14.892323   13.881974
  H     12.968592   17.199136   14.747541
  H     13.241391   16.100787   16.117801
  H     16.591508   18.223292   13.900632
  H     17.400564   19.788253   13.947406
  H     15.771712   19.620187   14.627400
  H     18.456842   20.515669   15.747930
  H     18.191519   19.045269   19.512845
  H     18.841926   17.315626   17.576995
  H     19.012274   15.127900   18.379440
  H     18.441603   13.430694   20.100925
  H     16.573700   13.865485   21.697699
  H     14.986977   15.251376   22.281795
  H     15.858901   17.683147   19.856533

----------------------------
CARTESIAN COORDINATES (A.U.)
----------------------------
  NO LB      ZA    FRAG     MASS         X           Y           Z
   0 C     6.0000    0    12.011   26.697399   29.191180   26.891379
   1 C     6.0000    0    12.011   25.904238   31.266618   28.776432
   2 O     8.0000    0    15.999   28.091307   32.737145   29.457770
   3 C     6.0000    0    12.011   29.823889   31.806517   31.134226
   4 O     8.0000    0    15.999   29.527241   29.776670   32.179177
   5 C     6.0000    0    12.011   32.057720   33.524717   31.558718
   6 C     6.0000    0    12.011   32.727084   35.448708   29.985758
   7 C     6.0000    0    12.011   31.637647   36.131132   27.429000
   8 N     7.0000    0    14.007   34.380484   37.322551   30.893655
   9 C     6.0000    0    12.011   34.812507   37.710862   33.435858
  10 S    16.0000    0    32.060   36.085732   40.347929   34.528605
  11 N     7.0000    0    14.007   34.099361   35.755238   34.995785
  12 C     6.0000    0    12.011   33.720173   33.224523   33.927922
  13 C     6.0000    0    12.011   33.033766   31.235155   35.897473
  14 C     6.0000    0    12.011   34.401192   28.958946   36.052870
  15 C     6.0000    0    12.011   33.792029   27.141498   37.890508
  16 C     6.0000    0    12.011   31.802375   27.604062   39.587644
  17 C     6.0000    0    12.011   30.438851   29.869981   39.437497
  18 O     8.0000    0    15.999   28.518384   30.321349   41.076459
  19 C     6.0000    0    12.011   31.057961   31.683375   37.618244
  20 H     1.0000    0     1.008   27.994254   27.836122   27.775334
  21 H     1.0000    0     1.008   27.637034   30.019203   25.239955
  22 H     1.0000    0     1.008   25.035538   28.142413   26.233130
  23 H     1.0000    0     1.008   24.507087   32.501656   27.868814
  24 H     1.0000    0     1.008   25.022603   30.426079   30.458229
  25 H     1.0000    0     1.008   31.353406   34.437031   26.268387
  26 H     1.0000    0     1.008   32.882300   37.394380   26.356777
  27 H     1.0000    0     1.008   29.804216   37.076781   27.641780
  28 H     1.0000    0     1.008   34.878376   38.768995   29.759274
  29 H     1.0000    0     1.008   34.376988   35.990343   36.873933
  30 H     1.0000    0     1.008   35.606079   32.721790   33.215708
  31 H     1.0000    0     1.008   35.927991   28.587588   34.732108
  32 H     1.0000    0     1.008   34.849580   25.380334   37.985244
  33 H     1.0000    0     1.008   31.319755   26.201970   41.002709
  34 H     1.0000    0     1.008   28.321281   28.820923   42.106489
  35 H     1.0000    0     1.008   29.968979   33.416305   37.523410

--------------------------------
INTERNAL COORDINATES (ANGSTROEM)
--------------------------------
 C      0   0   0     0.000000000000     0.00000000     0.00000000
 C      1   0   0     1.541893240390     0.00000000     0.00000000
 O      2   1   0     1.440483784356   109.14809445     0.00000000
 C      3   2   1     1.367533152150   120.43035274   283.16041562
 O      4   3   2     1.218280773920   121.70641768   356.80428312
 C      4   3   2     1.508145782508   113.89169981   177.43853719
 C      6   4   3     1.361949659697   124.29863003   342.29216130
 C      7   6   4     1.514370391540   128.70317852   353.11533215
 N      7   6   4     1.406984320075   118.67822486   162.90297416
 C      9   7   6     1.379948103452   122.74190926   341.78453200
 S     10   9   7     1.653991300430   122.27268742   197.43048907
 N     10   9   7     1.376513607125   115.29316569    17.15651433
 C     12  10   9     1.467322698781   119.51828046    18.86623965
 C     13  12  10     1.525267508344   113.53663513   177.77970709
 C     14  13  12     1.407564506608   120.53899800   232.07682286
 C     15  14  13     1.405173165930   120.54399382   179.09382526
 C     16  15  14     1.405357276397   119.66321744   359.93216207
 C     17  16  15     1.401683335012   119.89654907     0.03171992
 O     18  17  16     1.357226108283   119.98523255   180.06783776
 C     18  17  16     1.398207558314   120.36577221   359.55724957
 H      1   2   3     1.097247480990   111.09666496    64.87347506
 H      1   2   3     1.096781608924   110.75194665   304.22496487
 H      1   2   3     1.096685183819   110.34422315   184.41893229
 H      2   1   3     1.097468167885   108.93115849   119.16882495
 H      2   1   3     1.098884537845   110.56142170   237.72842644
 H      8   7   6     1.097043437761   110.94704208   316.41603054
 H      8   7   6     1.096638583880   112.27012878   196.86069304
 H      8   7   6     1.097452315007   110.70895291    76.30104668
 H      9   7   6     1.007789807069   119.63401085   180.67933019
 H     12  10   9     1.012346765163   117.16567014   180.56512775
 H     13  12  10     1.099445468805   103.22227562    62.95315112
 H     15  14  13     1.086223929569   119.97424773   358.42166586
 H     16  15  14     1.088239054926   120.00387708   179.46827306
 H     17  16  15     1.084644864354   119.89719296   179.68421065
 H     19  18  17     0.968710826385   107.21390821   356.19543398
 H     20  18  17     1.084222465618   119.19669543   179.46778609

---------------------------
INTERNAL COORDINATES (A.U.)
---------------------------
 C      0   0   0     0.000000000000     0.00000000     0.00000000
 C      1   0   0     2.913755952082     0.00000000     0.00000000
 O      2   1   0     2.722119852788   109.14809445     0.00000000
 C      3   2   1     2.584263136621   120.43035274   283.16041562
 O      4   3   2     2.302217016930   121.70641768   356.80428312
 C      4   3   2     2.849982498969   113.89169981   177.43853719
 C      6   4   3     2.573711865015   124.29863003   342.29216130
 C      7   6   4     2.861745305329   128.70317852   353.11533215
 N      7   6   4     2.658815039664   118.67822486   162.90297416
 C      9   7   6     2.607723994549   122.74190926   341.78453200
 S     10   9   7     3.125590585700   122.27268742   197.43048907
 N     10   9   7     2.601233737082   115.29316569    17.15651433
 C     12  10   9     2.772838050783   119.51828046    18.86623965
 C     13  12  10     2.882337871738   113.53663513   177.77970709
 C     14  13  12     2.659911433316   120.53899800   232.07682286
 C     15  14  13     2.655392454342   120.54399382   179.09382526
 C     16  15  14     2.655740372705   119.66321744   359.93216207
 C     17  16  15     2.648797629655   119.89654907     0.03171992
 O     18  17  16     2.564785646462   119.98523255   180.06783776
 C     18  17  16     2.642229363593   120.36577221   359.55724957
 H      1   2   3     2.073497240206   111.09666496    64.87347506
 H      1   2   3     2.072616869589   110.75194665   304.22496487
 H      1   2   3     2.072434652546   110.34422315   184.41893229
 H      2   1   3     2.073914277998   108.93115849   119.16882495
 H      2   1   3     2.076590829327   110.56142170   237.72842644
 H      8   7   6     2.073111654384   110.94704208   316.41603054
 H      8   7   6     2.072346591425   112.27012878   196.86069304
 H      8   7   6     2.073884320402   110.70895291    76.30104668
 H      9   7   6     1.904446735917   119.63401085   180.67933019
 H     12  10   9     1.913058138718   117.16567014   180.56512775
 H     13  12  10     2.077650835222   103.22227562    62.95315112
 H     15  14  13     2.052665746998   119.97424773   358.42166586
 H     16  15  14     2.056473782047   120.00387708   179.46827306
 H     17  16  15     2.049681746194   119.89719296   179.68421065
 H     19  18  17     1.830598164832   107.21390821   356.19543398
 H     20  18  17     2.048883528263   119.19669543   179.46778609

---------------------
BASIS SET INFORMATION
---------------------
There are 5 groups of distinct atoms

 Group   1 Type C   : 18s5p2d1f contracted to 4s3p2d1f pattern {8811/311/11/1}
 Group   2 Type O   : 18s5p2d1f contracted to 4s3p2d1f pattern {8811/311/11/1}
 Group   3 Type N   : 18s5p2d1f contracted to 4s3p2d1f pattern {8811/311/11/1}
 Group   4 Type S   : 41s16p2d1f contracted to 5s4p2d1f pattern {13131311/7711/11/1}
 Group   5 Type H   : 5s2p1d contracted to 3s2p1d pattern {311/11/1}

Atom   0C    basis set group =>   1
Atom   1C    basis set group =>   1
Atom   2O    basis set group =>   2
Atom   3C    basis set group =>   1
Atom   4O    basis set group =>   2
Atom   5C    basis set group =>   1
Atom   6C    basis set group =>   1
Atom   7C    basis set group =>   1
Atom   8N    basis set group =>   3
Atom   9C    basis set group =>   1
Atom  10S    basis set group =>   4
Atom  11N    basis set group =>   3
Atom  12C    basis set group =>   1
Atom  13C    basis set group =>   1
Atom  14C    basis set group =>   1
Atom  15C    basis set group =>   1
Atom  16C    basis set group =>   1
Atom  17C    basis set group =>   1
Atom  18O    basis set group =>   2
Atom  19C    basis set group =>   1
Atom  20H    basis set group =>   5
Atom  21H    basis set group =>   5
Atom  22H    basis set group =>   5
Atom  23H    basis set group =>   5
Atom  24H    basis set group =>   5
Atom  25H    basis set group =>   5
Atom  26H    basis set group =>   5
Atom  27H    basis set group =>   5
Atom  28H    basis set group =>   5
Atom  29H    basis set group =>   5
Atom  30H    basis set group =>   5
Atom  31H    basis set group =>   5
Atom  32H    basis set group =>   5
Atom  33H    basis set group =>   5
Atom  34H    basis set group =>   5
Atom  35H    basis set group =>   5
---------------------------------
AUXILIARY/C BASIS SET INFORMATION
---------------------------------
There are 5 groups of distinct atoms

 Group   1 Type C   : 8s6p5d3f1g contracted to 8s6p5d3f1g pattern {11111111/111111/11111/111/1}
 Group   2 Type O   : 8s6p5d3f1g contracted to 8s6p5d3f1g pattern {11111111/111111/11111/111/1}
 Group   3 Type N   : 8s6p5d3f1g contracted to 8s6p5d3f1g pattern {11111111/111111/11111/111/1}
 Group   4 Type S   : 10s8p7d5f2g contracted to 10s8p7d5f2g pattern {1111111111/11111111/1111111/11111/11}
 Group   5 Type H   : 4s3p2d1f contracted to 4s3p2d1f pattern {1111/111/11/1}

Atom   0C    basis set group =>   1
Atom   1C    basis set group =>   1
Atom   2O    basis set group =>   2
Atom   3C    basis set group =>   1
Atom   4O    basis set group =>   2
Atom   5C    basis set group =>   1
Atom   6C    basis set group =>   1
Atom   7C    basis set group =>   1
Atom   8N    basis set group =>   3
Atom   9C    basis set group =>   1
Atom  10S    basis set group =>   4
Atom  11N    basis set group =>   3
Atom  12C    basis set group =>   1
Atom  13C    basis set group =>   1
Atom  14C    basis set group =>   1
Atom  15C    basis set group =>   1
Atom  16C    basis set group =>   1
Atom  17C    basis set group =>   1
Atom  18O    basis set group =>   2
Atom  19C    basis set group =>   1
Atom  20H    basis set group =>   5
Atom  21H    basis set group =>   5
Atom  22H    basis set group =>   5
Atom  23H    basis set group =>   5
Atom  24H    basis set group =>   5
Atom  25H    basis set group =>   5
Atom  26H    basis set group =>   5
Atom  27H    basis set group =>   5
Atom  28H    basis set group =>   5
Atom  29H    basis set group =>   5
Atom  30H    basis set group =>   5
Atom  31H    basis set group =>   5
Atom  32H    basis set group =>   5
Atom  33H    basis set group =>   5
Atom  34H    basis set group =>   5
Atom  35H    basis set group =>   5
------------------------------------------------------------------------------
                           ORCA GTO INTEGRAL CALCULATION
------------------------------------------------------------------------------

                         BASIS SET STATISTICS AND STARTUP INFO

 # of primitive gaussian shells          ...  682
 # of primitive gaussian functions       ... 1312
 # of contracted shells                  ...  298
 # of contracted basis functions         ...  828
 Highest angular momentum                ...    3
 Maximum contraction depth               ...   13
 Integral package used                   ... LIBINT
 Integral threshhold            Thresh   ...  2.500e-11
 Primitive cut-off              TCut     ...  2.500e-12


------------------------------ INTEGRAL EVALUATION ----------------------------


 * One electron integrals 
 Pre-screening matrix                    ... done
 Shell pair data                         ... done (   0.013 sec)

-------------------------------------------------------------------------------
                                 ORCA SCF
-------------------------------------------------------------------------------

------------
SCF SETTINGS
------------
Hamiltonian:
 Ab initio Hamiltonian  Method          .... Hartree-Fock(GTOs)


General Settings:
 Integral files         IntName         .... G2_CONFS/Conf5.orca
 Hartree-Fock type      HFTyp           .... RHF
 Total Charge           Charge          ....    0
 Multiplicity           Mult            ....    1
 Number of Electrons    NEL             ....  154
 Basis Dimension        Dim             ....  828
 Nuclear Repulsion      ENuc            ....   1675.4212737608 Eh

Convergence Acceleration:
 DIIS                   CNVDIIS         .... on
   Start iteration      DIISMaxIt       ....    12
   Startup error        DIISStart       ....  0.200000
   # of expansion vecs  DIISMaxEq       ....     5
   Bias factor          DIISBfac        ....   1.050
   Max. coefficient     DIISMaxC        ....  10.000
 Newton-Raphson         CNVNR           .... off
 SOSCF                  CNVSOSCF        .... on
   Start iteration      SOSCFMaxIt      ....   150
   Startup grad/error   SOSCFStart      ....  0.003300
 Level Shifting         CNVShift        .... on
   Level shift para.    LevelShift      ....    0.2500
   Turn off err/grad.   ShiftErr        ....    0.0010
 Zerner damping         CNVZerner       .... off
 Static damping         CNVDamp         .... on
   Fraction old density DampFac         ....    0.7000
   Max. Damping (<1)    DampMax         ....    0.9800
   Min. Damping (>=0)   DampMin         ....    0.0000
   Turn off err/grad.   DampErr         ....    0.1000
 Fernandez-Rico         CNVRico         .... off

SCF Procedure:
 Maximum # iterations   MaxIter         ....   125
 SCF integral mode      SCFMode         .... Direct
   Integral package                     .... LIBINT
 Reset frequency        DirectResetFreq ....    20
 Integral Threshold     Thresh          ....  2.500e-11 Eh
 Primitive CutOff       TCut            ....  2.500e-12 Eh

Convergence Tolerance:
 Convergence Check Mode ConvCheckMode   .... Total+1el-Energy
 Convergence forced     ConvForced      .... 1
 Energy Change          TolE            ....  1.000e-08 Eh
 1-El. energy change                    ....  1.000e-05 Eh
 Orbital Gradient       TolG            ....  1.000e-05
 Orbital Rotation angle TolX            ....  1.000e-05
 DIIS Error             TolErr          ....  5.000e-07


Diagonalization of the overlap matrix:
Smallest eigenvalue                        ... 3.516e-05
Time for diagonalization                   ...    0.102 sec
Threshold for overlap eigenvalues          ... 1.000e-08
Number of eigenvalues below threshold      ... 0
Time for construction of square roots      ...    0.127 sec
Total time needed                          ...    0.231 sec

-------------------
DFT GRID GENERATION
-------------------

General Integration Accuracy     IntAcc      ...  4.340
Radial Grid Type                 RadialGrid  ... Gauss-Chebyshev
Angular Grid (max. acc.)         AngularGrid ... Lebedev-110
Angular grid pruning method      GridPruning ... 3 (G Style)
Weight generation scheme         WeightScheme... Becke
Basis function cutoff            BFCut       ...    1.0000e-11
Integration weight cutoff        WCut        ...    1.0000e-14
Grids for H and He will be reduced by one unit

# of grid points (after initial pruning)     ...  46246 (   0.0 sec)
# of grid points (after weights+screening)   ...  41456 (   0.3 sec)
nearest neighbour list constructed           ...    0.0 sec
Grid point re-assignment to atoms done       ...    0.0 sec
Grid point division into batches done        ...    0.0 sec
Reduced shell lists constructed in    0.9 sec

Total number of grid points                  ...    41456
Total number of batches                      ...      664
Average number of points per batch           ...       62
Average number of grid points per atom       ...     1152
Average number of shells per batch           ...   142.19 (47.71%)
Average number of basis functions per batch  ...   361.25 (43.63%)
Average number of large shells per batch     ...    90.94 (63.96%)
Average number of large basis fcns per batch ...   235.24 (65.12%)
Maximum spatial batch extension              ...  19.74, 22.53, 21.52 au
Average spatial batch extension              ...   3.48,  3.38,  3.41 au

Time for grid setup =    1.230 sec

------------------------------
INITIAL GUESS: MODEL POTENTIAL
------------------------------
Loading Hartree-Fock densities                     ... done
Calculating cut-offs                               ... done
Setting up the integral package                    ... done
Initializing the effective Hamiltonian             ... done
Starting the Coulomb interaction                   ... done (   2.9 sec)
Reading the grid                                   ... done
Mapping shells                                     ... done
Starting the XC term evaluation                    ... done (   1.2 sec)
Transforming the Hamiltonian                       ... done (   0.1 sec)
Diagonalizing the Hamiltonian                      ... done (   0.1 sec)
Back transforming the eigenvectors                 ... done (   0.0 sec)
Now organizing SCF variables                       ... done
                      ------------------
                      INITIAL GUESS DONE (   5.9 sec)
                      ------------------
--------------
SCF ITERATIONS
--------------
ITER       Energy         Delta-E        Max-DP      RMS-DP      [F,P]     Damp
               ***  Starting incremental Fock matrix formation  ***
  0  -1270.0007569075   0.000000000000 0.04929761  0.00043310  0.3033570 0.7000
  1  -1270.2703637978  -0.269606890276 0.03606534  0.00034579  0.1759404 0.7000
                               ***Turning on DIIS***
  2  -1270.4379735109  -0.167609713069 0.02582467  0.00023063  0.1097990 0.7000
  3  -1272.6024419706  -2.164468459705 0.06308941  0.00049995  0.0829887 0.0000
  4  -1270.7456371670   1.856804803577 0.00792860  0.00009527  0.0077129 0.0000
  5  -1270.8111487014  -0.065511534377 0.00425861  0.00004971  0.0048014 0.0000
                      *** Initiating the SOSCF procedure ***
                           *** Shutting down DIIS ***
                      *** Re-Reading the Fockian *** 
                      *** Removing any level shift *** 
ITER      Energy       Delta-E        Grad      Rot      Max-DP    RMS-DP
  6  -1270.78732104   0.0238276651  0.001772  0.001772  0.001811  0.000025
               *** Restarting incremental Fock matrix formation ***
  7  -1270.80156621  -0.0142451721  0.000921  0.002344  0.001290  0.000015
  8  -1270.80161232  -0.0000461109  0.000462  0.002710  0.001355  0.000016
  9  -1270.80162976  -0.0000174419  0.000169  0.000322  0.000369  0.000004
 10  -1270.80163185  -0.0000020899  0.000055  0.000147  0.000118  0.000001
 11  -1270.80163206  -0.0000002045  0.000024  0.000129  0.000075  0.000001
 12  -1270.80163211  -0.0000000589  0.000010  0.000036  0.000024  0.000000
 13  -1270.80163211   0.0000000014  0.000003  0.000011  0.000005  0.000000
                  ***Gradient check signals convergence***
              ***Rediagonalizing the Fockian in SOSCF/NRSCF***

               *****************************************************
               *                     SUCCESS                       *
               *           SCF CONVERGED AFTER  14 CYCLES          *
               *****************************************************


----------------
TOTAL SCF ENERGY
----------------

Total Energy       :        -1270.80163210 Eh          -34580.27044 eV

Components:
Nuclear Repulsion  :         1675.42127376 Eh           45590.53064 eV
Electronic Energy  :        -2946.22290586 Eh          -80170.80107 eV
One Electron Energy:        -5072.43508083 Eh         -138027.97576 eV
Two Electron Energy:         2126.21217497 Eh           57857.17468 eV

Virial components:
Potential Energy   :        -2539.68048307 Eh          -69108.21934 eV
Kinetic Energy     :         1268.87885097 Eh           34527.94890 eV
Virial Ratio       :            2.00151534


---------------
SCF CONVERGENCE
---------------

  Last Energy change         ...    1.2908e-08  Tolerance :   1.0000e-08
  Last MAX-Density change    ...    1.7943e-06  Tolerance :   1.0000e-07
  Last RMS-Density change    ...    2.8372e-08  Tolerance :   5.0000e-09
  Last Orbital Gradient      ...    1.0530e-06  Tolerance :   1.0000e-05
  Last Orbital Rotation      ...    3.3755e-06  Tolerance :   1.0000e-05

             **** THE GBW FILE WAS UPDATED (G2_CONFS/Conf5.orca.gbw) ****
             **** DENSITY FILE WAS UPDATED (G2_CONFS/Conf5.orca.scfp) ****
             **** ENERGY FILE WAS UPDATED (G2_CONFS/Conf5.orca.en.tmp) ****
             **** THE GBW FILE WAS UPDATED (G2_CONFS/Conf5.orca.gbw) ****
             **** DENSITY FILE WAS UPDATED (G2_CONFS/Conf5.orca.scfp) ****
----------------
ORBITAL ENERGIES
----------------

  NO   OCC          E(Eh)            E(eV) 
   0   2.0000     -91.889737     -2500.4469 
   1   2.0000     -20.600037      -560.5555 
   2   2.0000     -20.590993      -560.3094 
   3   2.0000     -20.539840      -558.9175 
   4   2.0000     -15.630988      -425.3408 
   5   2.0000     -15.603245      -424.5859 
   6   2.0000     -11.393318      -310.0280 
   7   2.0000     -11.383121      -309.7505 
   8   2.0000     -11.334439      -308.4258 
   9   2.0000     -11.307070      -307.6810 
  10   2.0000     -11.305336      -307.6338 
  11   2.0000     -11.298528      -307.4486 
  12   2.0000     -11.260654      -306.4180 
  13   2.0000     -11.259412      -306.3842 
  14   2.0000     -11.258167      -306.3503 
  15   2.0000     -11.248522      -306.0878 
  16   2.0000     -11.236744      -305.7674 
  17   2.0000     -11.232911      -305.6631 
  18   2.0000     -11.232078      -305.6404 
  19   2.0000     -11.226561      -305.4903 
  20   2.0000      -8.894679      -242.0365 
  21   2.0000      -6.576230      -178.9483 
  22   2.0000      -6.574263      -178.8948 
  23   2.0000      -6.573645      -178.8780 
  24   2.0000      -1.450453       -39.4688 
  25   2.0000      -1.410608       -38.3846 
  26   2.0000      -1.352265       -36.7970 
  27   2.0000      -1.339032       -36.4369 
  28   2.0000      -1.235107       -33.6090 
  29   2.0000      -1.150537       -31.3077 
  30   2.0000      -1.117423       -30.4066 
  31   2.0000      -1.041416       -28.3384 
  32   2.0000      -1.032502       -28.0958 
  33   2.0000      -1.009844       -27.4793 
  34   2.0000      -0.997531       -27.1442 
  35   2.0000      -0.981056       -26.6959 
  36   2.0000      -0.916982       -24.9524 
  37   2.0000      -0.893054       -24.3012 
  38   2.0000      -0.846102       -23.0236 
  39   2.0000      -0.832852       -22.6631 
  40   2.0000      -0.825688       -22.4681 
  41   2.0000      -0.819341       -22.2954 
  42   2.0000      -0.753182       -20.4951 
  43   2.0000      -0.726766       -19.7763 
  44   2.0000      -0.721959       -19.6455 
  45   2.0000      -0.692441       -18.8423 
  46   2.0000      -0.684668       -18.6308 
  47   2.0000      -0.678629       -18.4664 
  48   2.0000      -0.672082       -18.2883 
  49   2.0000      -0.656079       -17.8528 
  50   2.0000      -0.650506       -17.7012 
  51   2.0000      -0.638712       -17.3802 
  52   2.0000      -0.631094       -17.1729 
  53   2.0000      -0.613555       -16.6957 
  54   2.0000      -0.600909       -16.3516 
  55   2.0000      -0.596157       -16.2223 
  56   2.0000      -0.593528       -16.1507 
  57   2.0000      -0.581422       -15.8213 
  58   2.0000      -0.570702       -15.5296 
  59   2.0000      -0.564863       -15.3707 
  60   2.0000      -0.558421       -15.1954 
  61   2.0000      -0.543262       -14.7829 
  62   2.0000      -0.533252       -14.5105 
  63   2.0000      -0.528819       -14.3899 
  64   2.0000      -0.514760       -14.0073 
  65   2.0000      -0.511616       -13.9218 
  66   2.0000      -0.498801       -13.5731 
  67   2.0000      -0.494017       -13.4429 
  68   2.0000      -0.483009       -13.1433 
  69   2.0000      -0.461490       -12.5578 
  70   2.0000      -0.449871       -12.2416 
  71   2.0000      -0.441423       -12.0117 
  72   2.0000      -0.359701        -9.7880 
  73   2.0000      -0.338329        -9.2064 
  74   2.0000      -0.328817        -8.9476 
  75   2.0000      -0.316243        -8.6054 
  76   2.0000      -0.313935        -8.5426 
  77   0.0000       0.077300         2.1034 
  78   0.0000       0.115001         3.1293 
  79   0.0000       0.122316         3.3284 
  80   0.0000       0.134549         3.6613 
  81   0.0000       0.138003         3.7553 
  82   0.0000       0.142113         3.8671 
  83   0.0000       0.146113         3.9759 
  84   0.0000       0.158025         4.3001 
  85   0.0000       0.167075         4.5463 
  86   0.0000       0.169823         4.6211 
  87   0.0000       0.174620         4.7517 
  88   0.0000       0.178456         4.8560 
  89   0.0000       0.194324         5.2878 
  90   0.0000       0.207304         5.6410 
  91   0.0000       0.211164         5.7461 
  92   0.0000       0.213353         5.8056 
  93   0.0000       0.217407         5.9159 
  94   0.0000       0.226475         6.1627 
  95   0.0000       0.237445         6.4612 
  96   0.0000       0.247586         6.7372 
  97   0.0000       0.254653         6.9295 
  98   0.0000       0.255867         6.9625 
  99   0.0000       0.269749         7.3403 
 100   0.0000       0.295171         8.0320 
 101   0.0000       0.313316         8.5258 
 102   0.0000       0.315755         8.5921 
 103   0.0000       0.322524         8.7763 
 104   0.0000       0.327717         8.9176 
 105   0.0000       0.334709         9.1079 
 106   0.0000       0.343022         9.3341 
 107   0.0000       0.352202         9.5839 
 108   0.0000       0.357285         9.7222 
 109   0.0000       0.366308         9.9677 
 110   0.0000       0.368818        10.0361 
 111   0.0000       0.372451        10.1349 
 112   0.0000       0.388480        10.5711 
 113   0.0000       0.392202        10.6724 
 114   0.0000       0.399108        10.8603 
 115   0.0000       0.404980        11.0201 
 116   0.0000       0.414265        11.2727 
 117   0.0000       0.418232        11.3807 
 118   0.0000       0.432081        11.7575 
 119   0.0000       0.439602        11.9622 
 120   0.0000       0.448360        12.2005 
 121   0.0000       0.457375        12.4458 
 122   0.0000       0.459120        12.4933 
 123   0.0000       0.460915        12.5421 
 124   0.0000       0.464514        12.6401 
 125   0.0000       0.470422        12.8008 
 126   0.0000       0.476708        12.9719 
 127   0.0000       0.484437        13.1822 
 128   0.0000       0.493567        13.4306 
 129   0.0000       0.497697        13.5430 
 130   0.0000       0.504133        13.7181 
 131   0.0000       0.506855        13.7922 
 132   0.0000       0.517261        14.0754 
 133   0.0000       0.520736        14.1700 
 134   0.0000       0.527092        14.3429 
 135   0.0000       0.535808        14.5801 
 136   0.0000       0.537041        14.6136 
 137   0.0000       0.539368        14.6770 
 138   0.0000       0.541865        14.7449 
 139   0.0000       0.546952        14.8833 
 140   0.0000       0.551906        15.0181 
 141   0.0000       0.561095        15.2682 
 142   0.0000       0.566353        15.4112 
 143   0.0000       0.567736        15.4489 
 144   0.0000       0.574577        15.6350 
 145   0.0000       0.576795        15.6954 
 146   0.0000       0.582338        15.8462 
 147   0.0000       0.586933        15.9713 
 148   0.0000       0.589405        16.0385 
 149   0.0000       0.600724        16.3465 
 150   0.0000       0.603537        16.4231 
 151   0.0000       0.607182        16.5223 
 152   0.0000       0.611316        16.6347 
 153   0.0000       0.616160        16.7666 
 154   0.0000       0.622758        16.9461 
 155   0.0000       0.623746        16.9730 
 156   0.0000       0.629224        17.1221 
 157   0.0000       0.630131        17.1467 
 158   0.0000       0.638262        17.3680 
 159   0.0000       0.638829        17.3834 
 160   0.0000       0.646165        17.5831 
 161   0.0000       0.651022        17.7152 
 162   0.0000       0.655975        17.8500 
 163   0.0000       0.658011        17.9054 
 164   0.0000       0.659875        17.9561 
 165   0.0000       0.669049        18.2058 
 166   0.0000       0.672555        18.3012 
 167   0.0000       0.675761        18.3884 
 168   0.0000       0.686661        18.6850 
 169   0.0000       0.692593        18.8464 
 170   0.0000       0.694647        18.9023 
 171   0.0000       0.701950        19.1010 
 172   0.0000       0.710517        19.3341 
 173   0.0000       0.711655        19.3651 
 174   0.0000       0.723320        19.6825 
 175   0.0000       0.726630        19.7726 
 176   0.0000       0.735831        20.0230 
 177   0.0000       0.738585        20.0979 
 178   0.0000       0.746674        20.3180 
 179   0.0000       0.757306        20.6073 
 180   0.0000       0.761521        20.7220 
 181   0.0000       0.765471        20.8295 
 182   0.0000       0.780934        21.2503 
 183   0.0000       0.788518        21.4567 
 184   0.0000       0.798310        21.7231 
 185   0.0000       0.801779        21.8175 
 186   0.0000       0.812152        22.0998 
 187   0.0000       0.826648        22.4942 
 188   0.0000       0.834492        22.7077 
 189   0.0000       0.839790        22.8518 
 190   0.0000       0.846490        23.0342 
 191   0.0000       0.849813        23.1246 
 192   0.0000       0.860451        23.4141 
 193   0.0000       0.861736        23.4490 
 194   0.0000       0.862511        23.4701 
 195   0.0000       0.880870        23.9697 
 196   0.0000       0.887346        24.1459 
 197   0.0000       0.890850        24.2413 
 198   0.0000       0.895555        24.3693 
 199   0.0000       0.898217        24.4417 
 200   0.0000       0.902943        24.5703 
 201   0.0000       0.918616        24.9968 
 202   0.0000       0.921013        25.0620 
 203   0.0000       0.928375        25.2624 
 204   0.0000       0.943804        25.6822 
 205   0.0000       0.947067        25.7710 
 206   0.0000       0.954889        25.9839 
 207   0.0000       0.966774        26.3073 
 208   0.0000       0.969042        26.3690 
 209   0.0000       0.973582        26.4925 
 210   0.0000       0.975968        26.5574 
 211   0.0000       0.991961        26.9926 
 212   0.0000       0.995939        27.1009 
 213   0.0000       1.001139        27.2424 
 214   0.0000       1.006404        27.3856 
 215   0.0000       1.013375        27.5753 
 216   0.0000       1.022447        27.8222 
 217   0.0000       1.026250        27.9257 
 218   0.0000       1.037659        28.2361 
 219   0.0000       1.043397        28.3923 
 220   0.0000       1.047279        28.4979 
 221   0.0000       1.057058        28.7640 
 222   0.0000       1.061603        28.8877 
 223   0.0000       1.074796        29.2467 
 224   0.0000       1.077937        29.3321 
 225   0.0000       1.086830        29.5741 
 226   0.0000       1.095298        29.8046 
 227   0.0000       1.099675        29.9237 
 228   0.0000       1.104989        30.0683 
 229   0.0000       1.110596        30.2209 
 230   0.0000       1.113929        30.3115 
 231   0.0000       1.126404        30.6510 
 232   0.0000       1.133250        30.8373 
 233   0.0000       1.148563        31.2540 
 234   0.0000       1.155728        31.4490 
 235   0.0000       1.162915        31.6445 
 236   0.0000       1.168683        31.8015 
 237   0.0000       1.176930        32.0259 
 238   0.0000       1.179480        32.0953 
 239   0.0000       1.189339        32.3636 
 240   0.0000       1.191321        32.4175 
 241   0.0000       1.200585        32.6696 
 242   0.0000       1.209873        32.9223 
 243   0.0000       1.216447        33.1012 
 244   0.0000       1.220373        33.2080 
 245   0.0000       1.221969        33.2515 
 246   0.0000       1.230846        33.4930 
 247   0.0000       1.243199        33.8292 
 248   0.0000       1.247256        33.9396 
 249   0.0000       1.252975        34.0952 
 250   0.0000       1.259936        34.2846 
 251   0.0000       1.269704        34.5504 
 252   0.0000       1.273587        34.6561 
 253   0.0000       1.284087        34.9418 
 254   0.0000       1.289295        35.0835 
 255   0.0000       1.304604        35.5001 
 256   0.0000       1.309234        35.6261 
 257   0.0000       1.318071        35.8665 
 258   0.0000       1.319273        35.8992 
 259   0.0000       1.340571        36.4788 
 260   0.0000       1.345265        36.6065 
 261   0.0000       1.347416        36.6651 
 262   0.0000       1.350935        36.7608 
 263   0.0000       1.356601        36.9150 
 264   0.0000       1.370634        37.2968 
 265   0.0000       1.379323        37.5333 
 266   0.0000       1.389134        37.8003 
 267   0.0000       1.392905        37.9029 
 268   0.0000       1.400205        38.1015 
 269   0.0000       1.406239        38.2657 
 270   0.0000       1.411573        38.4109 
 271   0.0000       1.424605        38.7655 
 272   0.0000       1.429161        38.8895 
 273   0.0000       1.437912        39.1276 
 274   0.0000       1.446895        39.3720 
 275   0.0000       1.457512        39.6609 
 276   0.0000       1.462458        39.7955 
 277   0.0000       1.465583        39.8805 
 278   0.0000       1.473341        40.0916 
 279   0.0000       1.490241        40.5515 
 280   0.0000       1.495350        40.6906 
 281   0.0000       1.506368        40.9904 
 282   0.0000       1.510348        41.0986 
 283   0.0000       1.515734        41.2452 
 284   0.0000       1.518856        41.3302 
 285   0.0000       1.525129        41.5009 
 286   0.0000       1.528960        41.6051 
 287   0.0000       1.533563        41.7304 
 288   0.0000       1.538000        41.8511 
 289   0.0000       1.550928        42.2029 
 290   0.0000       1.558440        42.4073 
 291   0.0000       1.567658        42.6582 
 292   0.0000       1.575653        42.8757 
 293   0.0000       1.583887        43.0998 
 294   0.0000       1.592274        43.3280 
 295   0.0000       1.597047        43.4579 
 296   0.0000       1.599447        43.5232 
 297   0.0000       1.606417        43.7128 
 298   0.0000       1.618664        44.0461 
 299   0.0000       1.621292        44.1176 
 300   0.0000       1.631282        44.3894 
 301   0.0000       1.639853        44.6227 
 302   0.0000       1.648174        44.8491 
 303   0.0000       1.651137        44.9297 
 304   0.0000       1.654747        45.0280 
 305   0.0000       1.657066        45.0911 
 306   0.0000       1.680822        45.7375 
 307   0.0000       1.691877        46.0383 
 308   0.0000       1.701049        46.2879 
 309   0.0000       1.713254        46.6200 
 310   0.0000       1.728365        47.0312 
 311   0.0000       1.731358        47.1126 
 312   0.0000       1.744097        47.4593 
 313   0.0000       1.749670        47.6110 
 314   0.0000       1.761321        47.9280 
 315   0.0000       1.762712        47.9658 
 316   0.0000       1.770677        48.1826 
 317   0.0000       1.772484        48.2317 
 318   0.0000       1.795698        48.8634 
 319   0.0000       1.799187        48.9584 
 320   0.0000       1.805517        49.1306 
 321   0.0000       1.821858        49.5753 
 322   0.0000       1.828822        49.7648 
 323   0.0000       1.842918        50.1483 
 324   0.0000       1.854517        50.4640 
 325   0.0000       1.861758        50.6610 
 326   0.0000       1.892794        51.5055 
 327   0.0000       1.900589        51.7177 
 328   0.0000       1.910579        51.9895 
 329   0.0000       1.914283        52.0903 
 330   0.0000       1.923399        52.3383 
 331   0.0000       1.935947        52.6798 
 332   0.0000       1.936781        52.7025 
 333   0.0000       1.954356        53.1807 
 334   0.0000       1.955607        53.2148 
 335   0.0000       1.971204        53.6392 
 336   0.0000       1.990577        54.1664 
 337   0.0000       2.010244        54.7015 
 338   0.0000       2.011516        54.7361 
 339   0.0000       2.025671        55.1213 
 340   0.0000       2.038761        55.4775 
 341   0.0000       2.042262        55.5728 
 342   0.0000       2.051829        55.8331 
 343   0.0000       2.064840        56.1871 
 344   0.0000       2.088602        56.8338 
 345   0.0000       2.099714        57.1361 
 346   0.0000       2.111666        57.4613 
 347   0.0000       2.134166        58.0736 
 348   0.0000       2.145162        58.3728 
 349   0.0000       2.154508        58.6272 
 350   0.0000       2.165888        58.9368 
 351   0.0000       2.180866        59.3444 
 352   0.0000       2.194688        59.7205 
 353   0.0000       2.213929        60.2441 
 354   0.0000       2.220430        60.4210 
 355   0.0000       2.227507        60.6136 
 356   0.0000       2.254691        61.3533 
 357   0.0000       2.262179        61.5570 
 358   0.0000       2.289107        62.2898 
 359   0.0000       2.296230        62.4836 
 360   0.0000       2.310763        62.8791 
 361   0.0000       2.324657        63.2571 
 362   0.0000       2.328459        63.3606 
 363   0.0000       2.347342        63.8744 
 364   0.0000       2.361465        64.2587 
 365   0.0000       2.371035        64.5191 
 366   0.0000       2.374997        64.6270 
 367   0.0000       2.389633        65.0252 
 368   0.0000       2.403271        65.3963 
 369   0.0000       2.425010        65.9879 
 370   0.0000       2.433090        66.2078 
 371   0.0000       2.448843        66.6364 
 372   0.0000       2.451776        66.7162 
 373   0.0000       2.470353        67.2217 
 374   0.0000       2.482487        67.5519 
 375   0.0000       2.501678        68.0741 
 376   0.0000       2.517573        68.5066 
 377   0.0000       2.529508        68.8314 
 378   0.0000       2.534699        68.9727 
 379   0.0000       2.553056        69.4722 
 380   0.0000       2.564056        69.7715 
 381   0.0000       2.570676        69.9516 
 382   0.0000       2.578318        70.1596 
 383   0.0000       2.589476        70.4632 
 384   0.0000       2.604462        70.8710 
 385   0.0000       2.623263        71.3826 
 386   0.0000       2.626877        71.4809 
 387   0.0000       2.643820        71.9420 
 388   0.0000       2.650153        72.1143 
 389   0.0000       2.668850        72.6231 
 390   0.0000       2.681518        72.9678 
 391   0.0000       2.684398        73.0462 
 392   0.0000       2.695693        73.3535 
 393   0.0000       2.709195        73.7209 
 394   0.0000       2.715278        73.8865 
 395   0.0000       2.733169        74.3733 
 396   0.0000       2.738648        74.5224 
 397   0.0000       2.743390        74.6514 
 398   0.0000       2.755032        74.9682 
 399   0.0000       2.762075        75.1599 
 400   0.0000       2.777265        75.5732 
 401   0.0000       2.785970        75.8101 
 402   0.0000       2.791161        75.9514 
 403   0.0000       2.801695        76.2380 
 404   0.0000       2.808207        76.4152 
 405   0.0000       2.816223        76.6333 
 406   0.0000       2.826123        76.9027 
 407   0.0000       2.836333        77.1805 
 408   0.0000       2.846860        77.4670 
 409   0.0000       2.860418        77.8359 
 410   0.0000       2.877873        78.3109 
 411   0.0000       2.889256        78.6207 
 412   0.0000       2.893721        78.7421 
 413   0.0000       2.901856        78.9635 
 414   0.0000       2.909833        79.1806 
 415   0.0000       2.910797        79.2068 
 416   0.0000       2.919896        79.4544 
 417   0.0000       2.928622        79.6918 
 418   0.0000       2.935573        79.8810 
 419   0.0000       2.957715        80.4835 
 420   0.0000       2.961597        80.5892 
 421   0.0000       2.969703        80.8097 
 422   0.0000       2.976881        81.0050 
 423   0.0000       2.991542        81.4040 
 424   0.0000       2.999032        81.6078 
 425   0.0000       2.999397        81.6178 
 426   0.0000       3.018352        82.1335 
 427   0.0000       3.028969        82.4224 
 428   0.0000       3.031055        82.4792 
 429   0.0000       3.045478        82.8717 
 430   0.0000       3.045760        82.8793 
 431   0.0000       3.055866        83.1543 
 432   0.0000       3.059536        83.2542 
 433   0.0000       3.062763        83.3420 
 434   0.0000       3.076095        83.7048 
 435   0.0000       3.079332        83.7929 
 436   0.0000       3.090378        84.0935 
 437   0.0000       3.097553        84.2887 
 438   0.0000       3.103387        84.4475 
 439   0.0000       3.107138        84.5495 
 440   0.0000       3.112508        84.6957 
 441   0.0000       3.113362        84.7189 
 442   0.0000       3.126589        85.0788 
 443   0.0000       3.130372        85.1817 
 444   0.0000       3.136537        85.3495 
 445   0.0000       3.141396        85.4817 
 446   0.0000       3.156637        85.8965 
 447   0.0000       3.164079        86.0990 
 448   0.0000       3.168979        86.2323 
 449   0.0000       3.179310        86.5134 
 450   0.0000       3.188017        86.7503 
 451   0.0000       3.192372        86.8688 
 452   0.0000       3.209051        87.3227 
 453   0.0000       3.219770        87.6144 
 454   0.0000       3.229155        87.8698 
 455   0.0000       3.237642        88.1007 
 456   0.0000       3.240136        88.1686 
 457   0.0000       3.244568        88.2892 
 458   0.0000       3.254154        88.5500 
 459   0.0000       3.257611        88.6441 
 460   0.0000       3.268919        88.9518 
 461   0.0000       3.278576        89.2146 
 462   0.0000       3.281715        89.3000 
 463   0.0000       3.290629        89.5426 
 464   0.0000       3.292579        89.5956 
 465   0.0000       3.299281        89.7780 
 466   0.0000       3.303769        89.9001 
 467   0.0000       3.312825        90.1466 
 468   0.0000       3.316838        90.2558 
 469   0.0000       3.328546        90.5743 
 470   0.0000       3.331648        90.6588 
 471   0.0000       3.335478        90.7630 
 472   0.0000       3.343779        90.9888 
 473   0.0000       3.348564        91.1191 
 474   0.0000       3.353476        91.2527 
 475   0.0000       3.363096        91.5145 
 476   0.0000       3.366598        91.6098 
 477   0.0000       3.373417        91.7953 
 478   0.0000       3.378414        91.9313 
 479   0.0000       3.387335        92.1741 
 480   0.0000       3.394299        92.3636 
 481   0.0000       3.404231        92.6338 
 482   0.0000       3.405512        92.6687 
 483   0.0000       3.412473        92.8581 
 484   0.0000       3.415583        92.9427 
 485   0.0000       3.421753        93.1106 
 486   0.0000       3.423969        93.1709 
 487   0.0000       3.425855        93.2223 
 488   0.0000       3.435951        93.4970 
 489   0.0000       3.449707        93.8713 
 490   0.0000       3.450814        93.9014 
 491   0.0000       3.451988        93.9334 
 492   0.0000       3.456533        94.0570 
 493   0.0000       3.464797        94.2819 
 494   0.0000       3.469289        94.4041 
 495   0.0000       3.473607        94.5216 
 496   0.0000       3.474242        94.5389 
 497   0.0000       3.490540        94.9824 
 498   0.0000       3.499162        95.2170 
 499   0.0000       3.506878        95.4270 
 500   0.0000       3.511896        95.5635 
 501   0.0000       3.515539        95.6627 
 502   0.0000       3.525045        95.9214 
 503   0.0000       3.528814        96.0239 
 504   0.0000       3.537887        96.2708 
 505   0.0000       3.541420        96.3669 
 506   0.0000       3.559393        96.8560 
 507   0.0000       3.565189        97.0137 
 508   0.0000       3.571282        97.1795 
 509   0.0000       3.576339        97.3171 
 510   0.0000       3.583004        97.4985 
 511   0.0000       3.596891        97.8764 
 512   0.0000       3.601672        98.0065 
 513   0.0000       3.605386        98.1076 
 514   0.0000       3.613090        98.3172 
 515   0.0000       3.616517        98.4104 
 516   0.0000       3.628077        98.7250 
 517   0.0000       3.637186        98.9729 
 518   0.0000       3.642713        99.1233 
 519   0.0000       3.647142        99.2438 
 520   0.0000       3.657396        99.5228 
 521   0.0000       3.659751        99.5869 
 522   0.0000       3.661252        99.6277 
 523   0.0000       3.664732        99.7224 
 524   0.0000       3.676650       100.0467 
 525   0.0000       3.681314       100.1736 
 526   0.0000       3.683650       100.2372 
 527   0.0000       3.689349       100.3923 
 528   0.0000       3.699215       100.6608 
 529   0.0000       3.704612       100.8076 
 530   0.0000       3.710988       100.9811 
 531   0.0000       3.716053       101.1189 
 532   0.0000       3.721856       101.2768 
 533   0.0000       3.734930       101.6326 
 534   0.0000       3.741152       101.8019 
 535   0.0000       3.751486       102.0831 
 536   0.0000       3.755127       102.1822 
 537   0.0000       3.761984       102.3688 
 538   0.0000       3.766428       102.4897 
 539   0.0000       3.776991       102.7772 
 540   0.0000       3.780362       102.8689 
 541   0.0000       3.786614       103.0390 
 542   0.0000       3.796789       103.3159 
 543   0.0000       3.800211       103.4090 
 544   0.0000       3.808894       103.6453 
 545   0.0000       3.817069       103.8677 
 546   0.0000       3.821452       103.9870 
 547   0.0000       3.824119       104.0596 
 548   0.0000       3.828982       104.1919 
 549   0.0000       3.837451       104.4224 
 550   0.0000       3.846016       104.6554 
 551   0.0000       3.853900       104.8700 
 552   0.0000       3.864539       105.1594 
 553   0.0000       3.870234       105.3144 
 554   0.0000       3.877245       105.5052 
 555   0.0000       3.878512       105.5397 
 556   0.0000       3.887276       105.7782 
 557   0.0000       3.908930       106.3674 
 558   0.0000       3.912541       106.4656 
 559   0.0000       3.925399       106.8155 
 560   0.0000       3.933162       107.0268 
 561   0.0000       3.942739       107.2874 
 562   0.0000       3.957114       107.6785 
 563   0.0000       3.983600       108.3993 
 564   0.0000       3.986001       108.4646 
 565   0.0000       3.998735       108.8111 
 566   0.0000       4.003959       108.9533 
 567   0.0000       4.008723       109.0829 
 568   0.0000       4.013680       109.2178 
 569   0.0000       4.021266       109.4242 
 570   0.0000       4.024403       109.5096 
 571   0.0000       4.034827       109.7932 
 572   0.0000       4.041467       109.9739 
 573   0.0000       4.052360       110.2703 
 574   0.0000       4.060116       110.4814 
 575   0.0000       4.076880       110.9375 
 576   0.0000       4.077591       110.9569 
 577   0.0000       4.089023       111.2680 
 578   0.0000       4.094348       111.4129 
 579   0.0000       4.105893       111.7270 
 580   0.0000       4.109516       111.8256 
 581   0.0000       4.114617       111.9644 
 582   0.0000       4.118625       112.0735 
 583   0.0000       4.126639       112.2916 
 584   0.0000       4.131842       112.4331 
 585   0.0000       4.146409       112.8295 
 586   0.0000       4.153183       113.0139 
 587   0.0000       4.159104       113.1750 
 588   0.0000       4.164055       113.3097 
 589   0.0000       4.170399       113.4823 
 590   0.0000       4.177506       113.6757 
 591   0.0000       4.181649       113.7885 
 592   0.0000       4.183667       113.8434 
 593   0.0000       4.188022       113.9619 
 594   0.0000       4.195956       114.1778 
 595   0.0000       4.209386       114.5432 
 596   0.0000       4.211808       114.6091 
 597   0.0000       4.218664       114.7957 
 598   0.0000       4.227613       115.0392 
 599   0.0000       4.229301       115.0851 
 600   0.0000       4.240177       115.3811 
 601   0.0000       4.245811       115.5344 
 602   0.0000       4.253280       115.7376 
 603   0.0000       4.265354       116.0662 
 604   0.0000       4.279149       116.4416 
 605   0.0000       4.286734       116.6479 
 606   0.0000       4.298074       116.9565 
 607   0.0000       4.301486       117.0494 
 608   0.0000       4.311663       117.3263 
 609   0.0000       4.319546       117.5408 
 610   0.0000       4.325825       117.7117 
 611   0.0000       4.332260       117.8868 
 612   0.0000       4.345916       118.2584 
 613   0.0000       4.354475       118.4913 
 614   0.0000       4.360047       118.6429 
 615   0.0000       4.371549       118.9559 
 616   0.0000       4.378552       119.1465 
 617   0.0000       4.382297       119.2484 
 618   0.0000       4.390881       119.4819 
 619   0.0000       4.397696       119.6674 
 620   0.0000       4.410838       120.0250 
 621   0.0000       4.421038       120.3026 
 622   0.0000       4.435096       120.6851 
 623   0.0000       4.440459       120.8310 
 624   0.0000       4.444187       120.9325 
 625   0.0000       4.446461       120.9944 
 626   0.0000       4.462851       121.4403 
 627   0.0000       4.474059       121.7453 
 628   0.0000       4.478933       121.8780 
 629   0.0000       4.488983       122.1514 
 630   0.0000       4.494773       122.3090 
 631   0.0000       4.502859       122.5290 
 632   0.0000       4.511940       122.7761 
 633   0.0000       4.520321       123.0042 
 634   0.0000       4.531191       123.3000 
 635   0.0000       4.545525       123.6900 
 636   0.0000       4.548983       123.7841 
 637   0.0000       4.556313       123.9836 
 638   0.0000       4.570653       124.3738 
 639   0.0000       4.571882       124.4072 
 640   0.0000       4.576147       124.5233 
 641   0.0000       4.592242       124.9613 
 642   0.0000       4.592946       124.9804 
 643   0.0000       4.601332       125.2086 
 644   0.0000       4.612082       125.5011 
 645   0.0000       4.619716       125.7089 
 646   0.0000       4.632935       126.0686 
 647   0.0000       4.637688       126.1979 
 648   0.0000       4.646568       126.4396 
 649   0.0000       4.648900       126.5030 
 650   0.0000       4.652307       126.5957 
 651   0.0000       4.660326       126.8139 
 652   0.0000       4.668596       127.0389 
 653   0.0000       4.681836       127.3992 
 654   0.0000       4.688611       127.5836 
 655   0.0000       4.692845       127.6988 
 656   0.0000       4.712102       128.2228 
 657   0.0000       4.729471       128.6955 
 658   0.0000       4.737902       128.9249 
 659   0.0000       4.742032       129.0372 
 660   0.0000       4.755022       129.3907 
 661   0.0000       4.769221       129.7771 
 662   0.0000       4.784486       130.1925 
 663   0.0000       4.796381       130.5162 
 664   0.0000       4.800001       130.6147 
 665   0.0000       4.807141       130.8090 
 666   0.0000       4.838503       131.6624 
 667   0.0000       4.855934       132.1367 
 668   0.0000       4.869141       132.4961 
 669   0.0000       4.885038       132.9287 
 670   0.0000       4.895454       133.2121 
 671   0.0000       4.908650       133.5712 
 672   0.0000       4.936237       134.3218 
 673   0.0000       4.948386       134.6524 
 674   0.0000       4.971442       135.2798 
 675   0.0000       4.999395       136.0405 
 676   0.0000       5.007845       136.2704 
 677   0.0000       5.019515       136.5880 
 678   0.0000       5.030332       136.8823 
 679   0.0000       5.042259       137.2069 
 680   0.0000       5.052881       137.4959 
 681   0.0000       5.063350       137.7808 
 682   0.0000       5.074559       138.0858 
 683   0.0000       5.087082       138.4266 
 684   0.0000       5.096568       138.6847 
 685   0.0000       5.103122       138.8630 
 686   0.0000       5.109670       139.0412 
 687   0.0000       5.136684       139.7763 
 688   0.0000       5.153626       140.2373 
 689   0.0000       5.166104       140.5768 
 690   0.0000       5.172109       140.7402 
 691   0.0000       5.178129       140.9041 
 692   0.0000       5.182846       141.0324 
 693   0.0000       5.194804       141.3578 
 694   0.0000       5.201264       141.5336 
 695   0.0000       5.213312       141.8614 
 696   0.0000       5.216995       141.9616 
 697   0.0000       5.233333       142.4062 
 698   0.0000       5.234804       142.4462 
 699   0.0000       5.254174       142.9734 
 700   0.0000       5.280587       143.6921 
 701   0.0000       5.291758       143.9961 
 702   0.0000       5.298354       144.1756 
 703   0.0000       5.309926       144.4904 
 704   0.0000       5.322442       144.8310 
 705   0.0000       5.331109       145.0669 
 706   0.0000       5.349686       145.5724 
 707   0.0000       5.353964       145.6888 
 708   0.0000       5.363090       145.9371 
 709   0.0000       5.377472       146.3285 
 710   0.0000       5.394128       146.7817 
 711   0.0000       5.415946       147.3754 
 712   0.0000       5.422012       147.5405 
 713   0.0000       5.454620       148.4278 
 714   0.0000       5.468031       148.7927 
 715   0.0000       5.476385       149.0200 
 716   0.0000       5.485522       149.2686 
 717   0.0000       5.493697       149.4911 
 718   0.0000       5.511196       149.9673 
 719   0.0000       5.523770       150.3094 
 720   0.0000       5.529345       150.4611 
 721   0.0000       5.544054       150.8614 
 722   0.0000       5.562852       151.3729 
 723   0.0000       5.578859       151.8085 
 724   0.0000       5.587860       152.0534 
 725   0.0000       5.600556       152.3989 
 726   0.0000       5.606472       152.5599 
 727   0.0000       5.612931       152.7356 
 728   0.0000       5.626313       153.0998 
 729   0.0000       5.654206       153.8588 
 730   0.0000       5.661826       154.0661 
 731   0.0000       5.665988       154.1794 
 732   0.0000       5.673496       154.3837 
 733   0.0000       5.675748       154.4450 
 734   0.0000       5.695289       154.9767 
 735   0.0000       5.702170       155.1639 
 736   0.0000       5.707559       155.3106 
 737   0.0000       5.717659       155.5854 
 738   0.0000       5.750628       156.4826 
 739   0.0000       5.759675       156.7287 
 740   0.0000       5.763652       156.8370 
 741   0.0000       5.792975       157.6349 
 742   0.0000       5.804669       157.9531 
 743   0.0000       5.817270       158.2960 
 744   0.0000       5.830892       158.6666 
 745   0.0000       5.841988       158.9686 
 746   0.0000       5.870107       159.7337 
 747   0.0000       5.885023       160.1396 
 748   0.0000       5.915375       160.9655 
 749   0.0000       5.929826       161.3588 
 750   0.0000       5.959695       162.1715 
 751   0.0000       5.978269       162.6770 
 752   0.0000       5.983042       162.8068 
 753   0.0000       5.994077       163.1071 
 754   0.0000       6.024264       163.9286 
 755   0.0000       6.041059       164.3856 
 756   0.0000       6.056730       164.8120 
 757   0.0000       6.082586       165.5156 
 758   0.0000       6.090429       165.7290 
 759   0.0000       6.110904       166.2862 
 760   0.0000       6.126061       166.6986 
 761   0.0000       6.149055       167.3243 
 762   0.0000       6.181340       168.2028 
 763   0.0000       6.209551       168.9705 
 764   0.0000       6.234910       169.6605 
 765   0.0000       6.265710       170.4986 
 766   0.0000       6.284602       171.0127 
 767   0.0000       6.326557       172.1544 
 768   0.0000       6.338804       172.4876 
 769   0.0000       6.350921       172.8173 
 770   0.0000       6.354652       172.9189 
 771   0.0000       6.380158       173.6129 
 772   0.0000       6.403106       174.2374 
 773   0.0000       6.459121       175.7616 
 774   0.0000       6.465920       175.9466 
 775   0.0000       6.478773       176.2964 
 776   0.0000       6.504597       176.9991 
 777   0.0000       6.521377       177.4557 
 778   0.0000       6.557062       178.4267 
 779   0.0000       6.565024       178.6434 
 780   0.0000       6.640896       180.7080 
 781   0.0000       6.679580       181.7606 
 782   0.0000       6.701884       182.3675 
 783   0.0000       6.738607       183.3668 
 784   0.0000       6.756187       183.8452 
 785   0.0000       6.891103       187.5164 
 786   0.0000       6.914547       188.1544 
 787   0.0000       6.926806       188.4880 
 788   0.0000       6.944909       188.9806 
 789   0.0000       7.041483       191.6085 
 790   0.0000       7.055995       192.0034 
 791   0.0000       7.060553       192.1274 
 792   0.0000       7.088306       192.8826 
 793   0.0000       7.107154       193.3955 
 794   0.0000       7.230381       196.7487 
 795   0.0000       7.257587       197.4890 
 796   0.0000       7.268714       197.7918 
 797   0.0000       7.287114       198.2925 
 798   0.0000       7.346927       199.9200 
 799   0.0000       7.379183       200.7978 
 800   0.0000       7.448614       202.6871 
 801   0.0000       7.488369       203.7689 
 802   0.0000       7.580124       206.2657 
 803   0.0000       7.591795       206.5833 
 804   0.0000       7.688168       209.2057 
 805   0.0000       7.820601       212.8094 
 806   0.0000       7.841629       213.3816 
 807   0.0000       7.936436       215.9614 
 808   0.0000       7.971335       216.9110 
 809   0.0000       9.459010       257.3928 
 810   0.0000       9.491170       258.2679 
 811   0.0000      10.637626       289.4645 
 812   0.0000      11.193384       304.5875 
 813   0.0000      11.927021       324.5508 
 814   0.0000      12.598376       342.8192 
 815   0.0000      12.905214       351.1687 
 816   0.0000      12.961692       352.7056 
 817   0.0000      13.017287       354.2184 
 818   0.0000      13.073484       355.7476 
 819   0.0000      13.388919       364.3310 
 820   0.0000      13.420847       365.1998 
 821   0.0000      13.786882       375.1601 
 822   0.0000      13.851440       376.9168 
 823   0.0000      13.962569       379.9408 
 824   0.0000      14.052102       382.3771 
 825   0.0000      14.199787       386.3958 
 826   0.0000      14.540540       395.6682 
 827   0.0000      15.956948       434.2106 

                    ********************************
                    * MULLIKEN POPULATION ANALYSIS *
                    ********************************

-----------------------
MULLIKEN ATOMIC CHARGES
-----------------------
   0 C :   -0.300721
   1 C :    0.032693
   2 O :   -0.347808
   3 C :    0.455004
   4 O :   -0.422608
   5 C :   -0.136981
   6 C :    0.116309
   7 C :   -0.280844
   8 N :   -0.146864
   9 C :    0.213963
  10 S :   -0.434888
  11 N :   -0.204633
  12 C :    0.026894
  13 C :    0.046235
  14 C :   -0.203896
  15 C :   -0.125041
  16 C :   -0.274694
  17 C :    0.315115
  18 O :   -0.360487
  19 C :   -0.212096
  20 H :    0.119326
  21 H :    0.088682
  22 H :    0.099310
  23 H :    0.109580
  24 H :    0.109449
  25 H :    0.119947
  26 H :    0.100634
  27 H :    0.135824
  28 H :    0.196432
  29 H :    0.204940
  30 H :    0.131240
  31 H :    0.140432
  32 H :    0.157273
  33 H :    0.127182
  34 H :    0.240444
  35 H :    0.164653
Sum of atomic charges:    0.0000000

--------------------------------
MULLIKEN REDUCED ORBITAL CHARGES
--------------------------------
  0 C s       :     3.264364  s :     3.264364
      pz      :     0.966310  p :     2.959785
      px      :     1.020664
      py      :     0.972812
      dz2     :     0.013619  d :     0.072114
      dxz     :     0.014915
      dyz     :     0.017698
      dx2y2   :     0.006433
      dxy     :     0.019449
      f0      :     0.000332  f :     0.004457
      f+1     :     0.000375
      f-1     :     0.000865
      f+2     :     0.000589
      f-2     :     0.001542
      f+3     :     0.000326
      f-3     :     0.000429
  1 C s       :     3.165814  s :     3.165814
      pz      :     0.973721  p :     2.641324
      px      :     0.791703
      py      :     0.875901
      dz2     :     0.022866  d :     0.148750
      dxz     :     0.030523
      dyz     :     0.029396
      dx2y2   :     0.026342
      dxy     :     0.039623
      f0      :     0.001176  f :     0.011418
      f+1     :     0.001331
      f-1     :     0.001263
      f+2     :     0.001039
      f-2     :     0.002702
      f+3     :     0.002064
      f-3     :     0.001843
  2 O s       :     3.715306  s :     3.715306
      pz      :     1.599587  p :     4.596465
      px      :     1.340533
      py      :     1.656344
      dz2     :     0.005888  d :     0.033780
      dxz     :     0.006549
      dyz     :     0.005374
      dx2y2   :     0.004092
      dxy     :     0.011878
      f0      :     0.000265  f :     0.002257
      f+1     :     0.000443
      f-1     :     0.000146
      f+2     :     0.000364
      f-2     :     0.000475
      f+3     :     0.000203
      f-3     :     0.000361
  3 C s       :     3.067653  s :     3.067653
      pz      :     0.655848  p :     2.147674
      px      :     0.746476
      py      :     0.745350
      dz2     :     0.065808  d :     0.303330
      dxz     :     0.042830
      dyz     :     0.053712
      dx2y2   :     0.057454
      dxy     :     0.083526
      f0      :     0.002049  f :     0.026339
      f+1     :     0.002905
      f-1     :     0.004571
      f+2     :     0.003791
      f-2     :     0.004262
      f+3     :     0.004827
      f-3     :     0.003934
  4 O s       :     3.775327  s :     3.775327
      pz      :     1.512457  p :     4.609151
      px      :     1.728569
      py      :     1.368126
      dz2     :     0.006040  d :     0.035716
      dxz     :     0.002306
      dyz     :     0.010895
      dx2y2   :     0.010099
      dxy     :     0.006376
      f0      :     0.000203  f :     0.002414
      f+1     :     0.000029
      f-1     :     0.000506
      f+2     :     0.000568
      f-2     :     0.000262
      f+3     :     0.000356
      f-3     :     0.000490
  5 C s       :     3.166832  s :     3.166832
      pz      :     0.960205  p :     2.882713
      px      :     0.983449
      py      :     0.939060
      dz2     :     0.023160  d :     0.076939
      dxz     :     0.013450
      dyz     :     0.015942
      dx2y2   :     0.009719
      dxy     :     0.014669
      f0      :     0.001009  f :     0.010496
      f+1     :     0.001503
      f-1     :     0.001620
      f+2     :     0.001339
      f-2     :     0.002043
      f+3     :     0.001080
      f-3     :     0.001903
  6 C s       :     3.206871  s :     3.206871
      pz      :     0.942176  p :     2.488477
      px      :     0.758493
      py      :     0.787808
      dz2     :     0.038706  d :     0.174158
      dxz     :     0.028788
      dyz     :     0.030887
      dx2y2   :     0.046611
      dxy     :     0.029165
      f0      :     0.001624  f :     0.014184
      f+1     :     0.001625
      f-1     :     0.002610
      f+2     :     0.001819
      f-2     :     0.002511
      f+3     :     0.001604
      f-3     :     0.002391
  7 C s       :     3.272726  s :     3.272726
      pz      :     0.886865  p :     2.933177
      px      :     1.017258
      py      :     1.029054
      dz2     :     0.014794  d :     0.070252
      dxz     :     0.014318
      dyz     :     0.017539
      dx2y2   :     0.007443
      dxy     :     0.016159
      f0      :     0.000815  f :     0.004689
      f+1     :     0.001075
      f-1     :     0.000657
      f+2     :     0.000494
      f-2     :     0.000828
      f+3     :     0.000064
      f-3     :     0.000756
  8 N s       :     3.357596  s :     3.357596
      pz      :     1.056108  p :     3.725059
      px      :     1.461018
      py      :     1.207933
      dz2     :     0.015007  d :     0.059407
      dxz     :     0.010849
      dyz     :     0.018757
      dx2y2   :     0.008036
      dxy     :     0.006758
      f0      :     0.001106  f :     0.004802
      f+1     :     0.000651
      f-1     :     0.000808
      f+2     :     0.000299
      f-2     :     0.000697
      f+3     :     0.000689
      f-3     :     0.000551
  9 C s       :     3.154447  s :     3.154447
      pz      :     0.760816  p :     2.357454
      px      :     0.706529
      py      :     0.890109
      dz2     :     0.053862  d :     0.256769
      dxz     :     0.050870
      dyz     :     0.068756
      dx2y2   :     0.042322
      dxy     :     0.040960
      f0      :     0.002782  f :     0.017367
      f+1     :     0.002715
      f-1     :     0.003660
      f+2     :     0.002245
      f-2     :     0.002367
      f+3     :     0.001412
      f-3     :     0.002186
 10 S s       :     5.855471  s :     5.855471
      pz      :     3.786156  p :    10.484224
      px      :     3.495861
      py      :     3.202207
      dz2     :     0.009462  d :     0.085073
      dxz     :     0.006240
      dyz     :     0.020389
      dx2y2   :     0.021900
      dxy     :     0.027082
      f0      :     0.001345  f :     0.010120
      f+1     :     0.000295
      f-1     :     0.001006
      f+2     :     0.001491
      f-2     :     0.001764
      f+3     :     0.002410
      f-3     :     0.001808
 11 N s       :     3.386945  s :     3.386945
      pz      :     1.077004  p :     3.756155
      px      :     1.614445
      py      :     1.064706
      dz2     :     0.014362  d :     0.057026
      dxz     :     0.005100
      dyz     :     0.017449
      dx2y2   :     0.010094
      dxy     :     0.010021
      f0      :     0.000666  f :     0.004506
      f+1     :     0.000257
      f-1     :     0.000731
      f+2     :     0.000772
      f-2     :     0.000577
      f+3     :     0.000688
      f-3     :     0.000816
 12 C s       :     3.171183  s :     3.171183
      pz      :     0.866641  p :     2.613256
      px      :     0.986299
      py      :     0.760317
      dz2     :     0.034669  d :     0.177283
      dxz     :     0.031269
      dyz     :     0.034323
      dx2y2   :     0.036613
      dxy     :     0.040408
      f0      :     0.001321  f :     0.011384
      f+1     :     0.001137
      f-1     :     0.001707
      f+2     :     0.002372
      f-2     :     0.001612
      f+3     :     0.001771
      f-3     :     0.001463
 13 C s       :     3.128614  s :     3.128614
      pz      :     0.881280  p :     2.701440
      px      :     0.912166
      py      :     0.907995
      dz2     :     0.019125  d :     0.112339
      dxz     :     0.014791
      dyz     :     0.031870
      dx2y2   :     0.027455
      dxy     :     0.019097
      f0      :     0.001172  f :     0.011372
      f+1     :     0.001626
      f-1     :     0.001365
[...]
      f-1     :     0.005862
      f+2     :     0.005684
      f-2     :     0.006541
      f+3     :     0.005496
      f-3     :     0.007921
 15 C s       :     2.705386  s :     2.705386
      pz      :     0.928579  p :     2.792745
      px      :     0.916457
      py      :     0.947709
      dz2     :     0.110231  d :     0.415296
      dxz     :     0.072268
      dyz     :     0.070445
      dx2y2   :     0.068529
      dxy     :     0.093823
      f0      :     0.004340  f :     0.041028
      f+1     :     0.006315
      f-1     :     0.006516
      f+2     :     0.007001
      f-2     :     0.006944
      f+3     :     0.005545
      f-3     :     0.004366
 16 C s       :     2.701602  s :     2.701602
      pz      :     0.947114  p :     2.866357
      px      :     0.959622
      py      :     0.959621
      dz2     :     0.057687  d :     0.389828
      dxz     :     0.060297
      dyz     :     0.094588
      dx2y2   :     0.087115
      dxy     :     0.090140
      f0      :     0.005115  f :     0.040269
      f+1     :     0.005979
      f-1     :     0.003761
      f+2     :     0.004899
      f-2     :     0.006694
      f+3     :     0.005870
      f-3     :     0.007952
 17 C s       :     2.701730  s :     2.701730
      pz      :     0.853886  p :     2.679353
      px      :     0.822822
      py      :     1.002646
      dz2     :     0.147116  d :     0.707203
      dxz     :     0.128757
      dyz     :     0.139401
      dx2y2   :     0.152538
      dxy     :     0.139391
      f0      :     0.013328  f :     0.099173
      f+1     :     0.017294
      f-1     :     0.009625
      f+2     :     0.014303
      f-2     :     0.018325
      f+3     :     0.011055
      f-3     :     0.015242
 18 O s       :     3.177576  s :     3.177576
      pz      :     1.393536  p :     4.348198
      px      :     1.478430
      py      :     1.476231
      dz2     :     0.010233  d :     0.075416
      dxz     :     0.018474
      dyz     :     0.019874
      dx2y2   :     0.017222
      dxy     :     0.009613
      f0      :     0.000685  f :     0.005082
      f+1     :     0.000830
      f-1     :     0.000382
      f+2     :     0.000985
      f-2     :     0.000936
      f+3     :     0.000516
      f-3     :     0.000749
 19 C s       :     2.695515  s :     2.695515
      pz      :     0.948949  p :     2.845573
      px      :     0.941303
      py      :     0.955321
      dz2     :     0.091014  d :     0.386632
      dxz     :     0.069263
      dyz     :     0.074112
      dx2y2   :     0.063043
      dxy     :     0.089201
      f0      :     0.004199  f :     0.040688
      f+1     :     0.006507
      f-1     :     0.006386
      f+2     :     0.007124
      f-2     :     0.007153
      f+3     :     0.005174
      f-3     :     0.004144
 20 H s       :     0.843316  s :     0.843316
      pz      :     0.045960  p :     0.153479
      px      :     0.053237
      py      :     0.054282
      dz2     :     0.004313  d :     0.027531
      dxz     :     0.004438
      dyz     :     0.005189
      dx2y2   :     0.007274
      dxy     :     0.006317
 21 H s       :     0.853416  s :     0.853416
      pz      :     0.060921  p :     0.151503
      px      :     0.047352
      py      :     0.043229
      dz2     :     0.008128  d :     0.027599
      dxz     :     0.006627
      dyz     :     0.006453
      dx2y2   :     0.002994
      dxy     :     0.003398
 22 H s       :     0.847109  s :     0.847109
      pz      :     0.043124  p :     0.151722
      px      :     0.059760
      py      :     0.048837
      dz2     :     0.003038  d :     0.027458
      dxz     :     0.006513
      dyz     :     0.003541
      dx2y2   :     0.007325
      dxy     :     0.007042
 23 H s       :     0.854986  s :     0.854986
      pz      :     0.047644  p :     0.144129
      px      :     0.048956
      py      :     0.047528
      dz2     :     0.004839  d :     0.026887
      dxz     :     0.005072
      dyz     :     0.004967
      dx2y2   :     0.005168
      dxy     :     0.006841
 24 H s       :     0.852428  s :     0.852428
      pz      :     0.065729  p :     0.147116
      px      :     0.037538
      py      :     0.043849
      dz2     :     0.006537  d :     0.026983
      dxz     :     0.007289
      dyz     :     0.007419
      dx2y2   :     0.002762
      dxy     :     0.002975
 25 H s       :     0.834739  s :     0.834739
      pz      :     0.046610  p :     0.150035
      px      :     0.040724
      py      :     0.062700
      dz2     :     0.005657  d :     0.027729
      dxz     :     0.002981
      dyz     :     0.007394
      dx2y2   :     0.004814
      dxy     :     0.006883
 26 H s       :     0.843058  s :     0.843058
      pz      :     0.045626  p :     0.150423
      px      :     0.051068
      py      :     0.053729
      dz2     :     0.005324  d :     0.027682
      dxz     :     0.004965
      dyz     :     0.005168
      dx2y2   :     0.006952
      dxy     :     0.005273
 27 H s       :     0.827729  s :     0.827729
      pz      :     0.037112  p :     0.151727
      px      :     0.068370
      py      :     0.046246
      dz2     :     0.002363  d :     0.027705
      dxz     :     0.006784
      dyz     :     0.002111
      dx2y2   :     0.008404
      dxy     :     0.008044
 28 H s       :     0.745438  s :     0.745438
      pz      :     0.069231  p :     0.253204
      px      :     0.081440
      py      :     0.102533
      dz2     :     0.011322  d :     0.061712
      dxz     :     0.009695
      dyz     :     0.015173
      dx2y2   :     0.013108
      dxy     :     0.012414
 29 H s       :     0.750246  s :     0.750246
      pz      :     0.118255  p :     0.257101
      px      :     0.092126
      py      :     0.046721
      dz2     :     0.020345  d :     0.061107
      dxz     :     0.023332
      dyz     :     0.015846
      dx2y2   :     0.000958
      dxy     :     0.000626
 30 H s       :     0.832936  s :     0.832936
      pz      :     0.042920  p :     0.153158
      px      :     0.074691
      py      :     0.035547
      dz2     :     0.003586  d :     0.029334
      dxz     :     0.008920
      dyz     :     0.002071
      dx2y2   :     0.007647
      dxy     :     0.007109
 31 H s       :     0.845337  s :     0.845337
      pz      :     0.057979  p :     0.157431
      px      :     0.063781
      py      :     0.035671
      dz2     :     0.006333  d :     0.027559
      dxz     :     0.007346
      dyz     :     0.004031
      dx2y2   :     0.004804
      dxy     :     0.005045
 32 H s       :     0.843311  s :     0.843311
      pz      :     0.035822  p :     0.151273
      px      :     0.047820
      py      :     0.067631
      dz2     :     0.002681  d :     0.026491
      dxz     :     0.002204
      dyz     :     0.006028
      dx2y2   :     0.007822
      dxy     :     0.007756
 33 H s       :     0.849130  s :     0.849130
      pz      :     0.060515  p :     0.159105
      px      :     0.041261
      py      :     0.057330
      dz2     :     0.007028  d :     0.027794
      dxz     :     0.004544
      dyz     :     0.007209
      dx2y2   :     0.004504
      dxy     :     0.004510
 34 H s       :     0.706840  s :     0.706840
      pz      :     0.107625  p :     0.348316
      px      :     0.084850
      py      :     0.155840
      dz2     :     0.022293  d :     0.099719
      dxz     :     0.010726
      dyz     :     0.025018
      dx2y2   :     0.020068
      dxy     :     0.021614
 35 H s       :     0.839961  s :     0.839961
      pz      :     0.038308  p :     0.158198
      px      :     0.051016
      py      :     0.068873
      dz2     :     0.002659  d :     0.028031
      dxz     :     0.002580
      dyz     :     0.006331
      dx2y2   :     0.008563
      dxy     :     0.007898


                      *****************************
                      * MAYER POPULATION ANALYSIS *
                      *****************************

  NA   - Mulliken gross atomic population
  ZA   - Total nuclear charge
  QA   - Mulliken gross atomic charge
  VA   - Mayer's total valence
  BVA  - Mayer's bonded valence
  FA   - Mayer's free valence

  ATOM       NA         ZA         QA         VA         BVA        FA
  0 C      6.3007     6.0000    -0.3007     3.8699     3.8699    -0.0000
  1 C      5.9673     6.0000     0.0327     3.8539     3.8539    -0.0000
  2 O      8.3478     8.0000    -0.3478     2.0659     2.0659    -0.0000
  3 C      5.5450     6.0000     0.4550     4.1601     4.1601     0.0000
  4 O      8.4226     8.0000    -0.4226     2.0694     2.0694     0.0000
  5 C      6.1370     6.0000    -0.1370     3.6374     3.6374     0.0000
  6 C      5.8837     6.0000     0.1163     3.8307     3.8307    -0.0000
  7 C      6.2808     6.0000    -0.2808     3.8999     3.8999    -0.0000
  8 N      7.1469     7.0000    -0.1469     3.2861     3.2861     0.0000
  9 C      5.7860     6.0000     0.2140     4.1641     4.1641    -0.0000
 10 S     16.4349    16.0000    -0.4349     1.7597     1.7597    -0.0000
 11 N      7.2046     7.0000    -0.2046     3.2232     3.2232    -0.0000
 12 C      5.9731     6.0000     0.0269     3.9567     3.9567    -0.0000
 13 C      5.9538     6.0000     0.0462     3.7674     3.7674     0.0000
 14 C      6.2039     6.0000    -0.2039     3.9034     3.9034     0.0000
 15 C      6.1250     6.0000    -0.1250     3.8169     3.8169     0.0000
 16 C      6.2747     6.0000    -0.2747     3.8088     3.8088     0.0000
 17 C      5.6849     6.0000     0.3151     3.8656     3.8656     0.0000
 18 O      8.3605     8.0000    -0.3605     2.1153     2.1153    -0.0000
 19 C      6.2121     6.0000    -0.2121     3.8266     3.8266     0.0000
 20 H      0.8807     1.0000     0.1193     0.9882     0.9882    -0.0000
 21 H      0.9113     1.0000     0.0887     0.9823     0.9823    -0.0000
 22 H      0.9007     1.0000     0.0993     0.9843     0.9843    -0.0000
 23 H      0.8904     1.0000     0.1096     0.9756     0.9756    -0.0000
 24 H      0.8906     1.0000     0.1094     0.9859     0.9859    -0.0000
 25 H      0.8801     1.0000     0.1199     0.9821     0.9821    -0.0000
 26 H      0.8994     1.0000     0.1006     0.9843     0.9843     0.0000
 27 H      0.8642     1.0000     0.1358     0.9785     0.9785     0.0000
 28 H      0.8036     1.0000     0.1964     1.0221     1.0221     0.0000
 29 H      0.7951     1.0000     0.2049     1.0121     1.0121     0.0000
 30 H      0.8688     1.0000     0.1312     0.9780     0.9780     0.0000
 31 H      0.8596     1.0000     0.1404     0.9903     0.9903     0.0000
 32 H      0.8427     1.0000     0.1573     0.9784     0.9784     0.0000
 33 H      0.8728     1.0000     0.1272     0.9927     0.9927    -0.0000
 34 H      0.7596     1.0000     0.2404     1.0107     1.0107     0.0000
 35 H      0.8353     1.0000     0.1647     0.9916     0.9916     0.0000

  Mayer bond orders larger than 0.100000
B(  0-C ,  1-C ) :   0.9607 B(  0-C , 20-H ) :   0.9739 B(  0-C , 21-H ) :   0.9782 
B(  0-C , 22-H ) :   0.9770 B(  1-C ,  2-O ) :   0.8981 B(  1-C , 23-H ) :   0.9847 
B(  1-C , 24-H ) :   0.9773 B(  2-O ,  3-C ) :   1.1579 B(  3-C ,  4-O ) :   1.9567 
B(  3-C ,  5-C ) :   1.0251 B(  5-C ,  6-C ) :   1.6749 B(  5-C , 12-C ) :   0.9432 
B(  6-C ,  7-C ) :   0.9655 B(  6-C ,  8-N ) :   1.1203 B(  7-C , 25-H ) :   0.9733 
B(  7-C , 26-H ) :   0.9846 B(  7-C , 27-H ) :   0.9574 B(  8-N ,  9-C ) :   1.1884 
B(  8-N , 28-H ) :   0.9515 B(  9-C , 10-S ) :   1.6116 B(  9-C , 11-N ) :   1.3083 
B( 11-N , 12-C ) :   0.9470 B( 11-N , 29-H ) :   0.9370 B( 12-C , 13-C ) :   1.0133 
B( 12-C , 30-H ) :   0.9934 B( 13-C , 14-C ) :   1.3750 B( 13-C , 19-C ) :   1.3386 
B( 14-C , 15-C ) :   1.4026 B( 14-C , 31-H ) :   0.9771 B( 15-C , 16-C ) :   1.3627 
B( 15-C , 32-H ) :   0.9719 B( 16-C , 17-C ) :   1.3362 B( 16-C , 33-H ) :   0.9857 
B( 17-C , 18-O ) :   1.0981 B( 17-C , 19-C ) :   1.3713 B( 18-O , 34-H ) :   0.9805 
B( 19-C , 35-H ) :   0.9567 

-------
TIMINGS
-------

Total SCF time: 0 days 1 hours 25 min 55 sec 

Total time                  ....    5155.031 sec
Sum of individual times     ....    5147.115 sec  ( 99.8%)

Fock matrix formation       ....    5135.481 sec  ( 99.6%)
Diagonalization             ....       1.173 sec  (  0.0%)
Density matrix formation    ....       0.212 sec  (  0.0%)
Population analysis         ....       0.611 sec  (  0.0%)
Initial guess               ....       4.677 sec  (  0.1%)
Orbital Transformation      ....       0.000 sec  (  0.0%)
Orbital Orthonormalization  ....       0.000 sec  (  0.0%)
DIIS solution               ....       2.281 sec  (  0.0%)
SOSCF solution              ....       1.449 sec  (  0.0%)

------------------------------------------------------------------------------
                                ORCA  MP2 
------------------------------------------------------------------------------

Freezing NCore=48 chemical core electrons

-------------
RI-MP2 ENERGY
-------------
Dimension of the basis                    ...  828
Memory devoted to MP2                     ...  256 MB   
Data format for buffers                   ... DOUBLE
Compression type for matrix containers    ... UNCOMPRESSED
Overall scaling of the MP2 energy         ...   1.000e+00
Calculating two index integrals           ... done (    0.039 sec)
Cholesky decomposition of V**-1           ... done (    0.357 sec)

-----------------
RI-TRANSFORMATION (AUX index driven)
-----------------

Dimension of the orbital-basis         ... 828
Dimension of the aux-basis             ... 2141
Transformation of internal/external MOs...   24-  76 to   77- 827
Number Format for Storage              ... Double (8 Byte)
Integral mode                          ... Direct

First Phase: integral generation and transformation of MO indices
  Aux angular momentum 0               ... done (    4.501 sec)
  Aux angular momentum 1               ... done (    7.274 sec)
  Aux angular momentum 2               ... done (   10.107 sec)
  Aux angular momentum 3               ... done (    7.434 sec)
  Aux angular momentum 4               ... done (    2.550 sec)
Closing buffer VIA ( 0.63 GB; CompressionRatio= 1.00)
  Phase 1 completed in    32.096 sec
Second Phase: sorting and transformation of aux index

IA-Transformation
Memory available                       ... 167 MB 
Max. # MO pairs treated in a batch     ... 12    
# of internal orbitals                 ... 53
# batches for internal orbitals        ... 5
Closing buffer IAV ( 0.63 GB; CompressionRatio= 1.00)
(ia|v) transformation done in    24.008 sec

  Phase 2 completed in    24.018 sec
RI-Integral transformation completed in    56.332 sec
Opening buffers                              ... done

Starting loop over batches of integrals:

Operator 0  - window                       ... ( 24- 76)x( 77-827)
Operator 0  - Memory available             ...   256 MB
Operator 0  - Memory needed per MO         ...  12.3 MB
Operator 0  - Number of orbitals per batch ... 13
Operator 0  - Number of batches            ... 5

OPERATOR  0   PASS   0:  MOs    24 ...   36
  Reading integrals       ... ok
  Internal MO  26
  Internal MO  29
  Internal MO  32
  Internal MO  35
OPERATOR  0   PASS   1:  MOs    37 ...   49
  Reading integrals       ... ok
  Internal MO  38
  Internal MO  41
  Internal MO  44
  Internal MO  47
OPERATOR  0   PASS   2:  MOs    50 ...   62
  Reading integrals       ... ok
  Internal MO  50
  Internal MO  53
  Internal MO  56
  Internal MO  59
  Internal MO  62
OPERATOR  0   PASS   3:  MOs    63 ...   75
  Reading integrals       ... ok
  Internal MO  65
  Internal MO  68
  Internal MO  71
  Internal MO  74
OPERATOR  0   PASS   4:  MOs    76 ...   76
  Reading integrals       ... ok
Time spent in pair loops =    79.870 sec
Deleting buffer (Ka|jb)[aa] ...done

-----------------------------------------------
 RI-MP2 CORRELATION ENERGY:     -3.534309657 Eh
-----------------------------------------------


-------
TIMINGS
-------

Total time                :  136.707 sec
Integral trafo            :   56.336 sec ( 41.2%)
I/O of integrals          :    1.635 sec (  1.2%)
K(i,j) Operators          :   51.926 sec ( 38.0%)
T(i,j) pair energies      :    8.004 sec (  5.9%)
V-calculation             :    0.039 sec (  0.0%)
V**(-1/2)                 :    0.357 sec (  0.3%)
Gamma(ia|P)               :    0.000 sec (  0.0%)
Gamma-Trafo               :    0.000 sec (  0.0%)
D(virtual)                :    0.000 sec (  0.0%)
D(internal)               :    0.000 sec (  0.0%)
W(virtual)                :    0.000 sec (  0.0%)
W(internal)               :    0.000 sec (  0.0%)
L(virtual)                :    0.000 sec (  0.0%)
L(internal)               :    0.000 sec (  0.0%)
G(D)                      :    0.000 sec (  0.0%)
G(Z)                      :    0.000 sec (  0.0%)
Z-Vector Solution         :    0.000 sec (  0.0%)
3-Index Derivative        :    0.000 sec (  0.0%)
2-Index Derivative        :    0.000 sec (  0.0%)
Separable Gradient        :    0.000 sec (  0.0%)


---------------------------------------
MP2 TOTAL ENERGY:    -1274.335941757 Eh
---------------------------------------

-------------------------   --------------------
FINAL SINGLE POINT ENERGY     -1274.335941756729
-------------------------   --------------------


                            ***************************************
                            *     ORCA property calculations      *
                            ***************************************


  WARNING: The energy has been calculated at the MP2 level but the densities
           used in the property calculations are still SCF densities
           MP2 response densities have not been calculated 
           use %mp2 Density relaxed end
           or  %mp2 Density unrelaxed end

                                    ---------------------
                                    Active property flags
                                    ---------------------
   (+) Dipole Moment


------------------------------------------------------------------------------
                       ORCA ELECTRIC PROPERTIES CALCULATION
------------------------------------------------------------------------------

Dipole Moment Calculation                       ... on
Quadrupole Moment Calculation                   ... off
Polarizability Calculation                      ... off
GBWName                                         ... G2_CONFS/Conf5.orca.gbw
Electron density file                           ... G2_CONFS/Conf5.orca.scfp
The origin for moment calculation is the CENTER OF MASS  = (31.794970, 33.030852 33.620281)

-------------
DIPOLE MOMENT
-------------
                                X             Y             Z
Electronic contribution:      8.85550       9.01034      12.06845
Nuclear contribution   :     -9.67283     -10.45298     -13.34984
                        -----------------------------------------
Total Dipole Moment    :     -0.81733      -1.44264      -1.28139
                        -----------------------------------------
Magnitude (a.u.)       :      2.09552
Magnitude (Debye)      :      5.32638



--------------------
Rotational spectrum 
--------------------
 
Rotational constants in cm-1:     0.010338     0.008712     0.005399 
Rotational constants in MHz :   309.921442   261.185051   161.847637 

 Dipole components along the rotational axes: 
x,y,z [a.u.] :     0.620015    -1.911701    -0.593434 
x,y,z [Debye]:     1.575954    -4.859158    -1.508390 

 

Timings for individual modules:

Sum of individual times         ...     5294.615 sec (=  88.244 min)
GTO integral calculation        ...        1.473 sec (=   0.025 min)   0.0 %
SCF iterations                  ...     5155.075 sec (=  85.918 min)  97.4 %
MP2 module                      ...      138.067 sec (=   2.301 min)   2.6 %
                             ****ORCA TERMINATED NORMALLY****
TOTAL RUN TIME: 0 days 1 hours 28 minutes 15 seconds 491 msec
