
                                 *****************
                                 * O   R   C   A *
                                 *****************

           --- An Ab Initio, DFT and Semiempirical electronic structure package ---

                  #######################################################
                  #                        -***-                        #
                  #          Department of theory and spectroscopy      #
                  #               Directorship: Frank Neese             #
                  #        Max Planck Institute fuer Kohlenforschung    #
                  #                Kaiser Wilhelm Platz 1               #
                  #                 D-45470 Muelheim/Ruhr               #
                  #                      Germany                        #
                  #                                                     #
                  #                  All rights reserved                #
                  #                        -***-                        #
                  #######################################################


                         Program Version 4.2.0 -  RELEASE  -


 With contributions from (in alphabetic order):
   Daniel Aravena         : Magnetic Suceptibility
   Michael Atanasov       : Ab Initio Ligand Field Theory (pilot matlab implementation)
   Alexander A. Auer      : GIAO ZORA, VPT2
   Ute Becker             : Parallelization
   Giovanni Bistoni       : ED, misc. LED, open-shell LED, HFLED
   Martin Brehm           : Molecular dynamics
   Dmytro Bykov           : SCF Hessian
   Vijay G. Chilkuri      : MRCI spin determinant printing, contributions to CSF-ICE
   Dipayan Datta          : RHF DLPNO-CCSD density
   Achintya Kumar Dutta   : EOM-CC, STEOM-CC
   Dmitry Ganyushin       : Spin-Orbit,Spin-Spin,Magnetic field MRCI
   Miquel Garcia          : C-PCM Hessian, Gaussian charge scheme
   Yang Guo               : DLPNO-NEVPT2, CIM, IAO-localization
   Andreas Hansen         : Spin unrestricted coupled pair/coupled cluster methods
   Benjamin Helmich-Paris : CASSCF linear response (MC-RPA)
   Lee Huntington         : MR-EOM, pCC
   Robert Izsak           : Overlap fitted RIJCOSX, COSX-SCS-MP3, EOM
   Christian Kollmar      : KDIIS, OOCD, Brueckner-CCSD(T), CCSD density
   Simone Kossmann        : Meta GGA functionals, TD-DFT gradient, OOMP2, MP2 Hessian
   Martin Krupicka        : AUTO-CI
   Lucas Lang             : DCDCAS
   Dagmar Lenk            : GEPOL surface, SMD
   Dimitrios Liakos       : Extrapolation schemes; Compound Job, initial MDCI parallelization
   Dimitrios Manganas     : Further ROCIS development; embedding schemes
   Dimitrios Pantazis     : SARC Basis sets
   Taras Petrenko         : DFT Hessian,TD-DFT gradient, ASA, ECA, R-Raman, ABS, FL, XAS/XES, NRVS
   Peter Pinski           : DLPNO-MP2, DLPNO-MP2 Gradient
   Christoph Reimann      : Effective Core Potentials
   Marius Retegan         : Local ZFS, SOC
   Christoph Riplinger    : Optimizer, TS searches, QM/MM, DLPNO-CCSD(T), (RO)-DLPNO pert. Triples
   Tobias Risthaus        : Range-separated hybrids, TD-DFT gradient, RPA, STAB
   Michael Roemelt        : Original ROCIS implementation
   Masaaki Saitow         : Open-shell DLPNO-CCSD energy and density
   Barbara Sandhoefer     : DKH picture change effects
   Avijit Sen             : IP-ROCIS
   Kantharuban Sivalingam : CASSCF convergence, NEVPT2, FIC-MRCI
   Bernardo de Souza      : ESD, SOC TD-DFT
   Georgi Stoychev        : AutoAux, RI-MP2 NMR
   Willem Van den Heuvel  : Paramagnetic NMR
   Boris Wezisla          : Elementary symmetry handling
   Frank Wennmohs         : Technical directorship


 We gratefully acknowledge several colleagues who have allowed us to
 interface, adapt or use parts of their codes:
   Stefan Grimme, W. Hujo, H. Kruse,             : VdW corrections, initial TS optimization,
                  C. Bannwarth                     DFT functionals, gCP, sTDA/sTD-DF
   Ed Valeev, F. Pavosevic, A. Kumar             : LibInt (2-el integral package), F12 methods
   Garnet Chan, S. Sharma, J. Yang, R. Olivares  : DMRG
   Ulf Ekstrom                                   : XCFun DFT Library
   Mihaly Kallay                                 : mrcc  (arbitrary order and MRCC methods)
   Andreas Klamt, Michael Diedenhofen            : otool_cosmo (COSMO solvation model)
   Jiri Pittner, Ondrej Demel                    : Mk-CCSD
   Frank Weinhold                                : gennbo (NPA and NBO analysis)
   Christopher J. Cramer and Donald G. Truhlar   : smd solvation model
   Lars Goerigk                                  : TD-DFT with DH, B97 family of functionals
   V. Asgeirsson, H. Jonsson                     : NEB implementation
   FAccTs GmbH                                   : IRC, NEB, NEB-TS, Multilevel, MM, QM/MM, CI optimization
   S Lehtola, MJT Oliveira, MAL Marques          : LibXC Library


 Your calculation uses the libint2 library for the computation of 2-el integrals
 For citations please refer to: http://libint.valeyev.net

 Your ORCA version has been built with support for libXC version: 4.2.3
 For citations please refer to: https://tddft.org/programs/libxc/

 This ORCA versions uses:
   CBLAS   interface :  Fast vector & matrix operations
   LAPACKE interface :  Fast linear algebra routines
   SCALAPACK package :  Parallel linear algebra routines


----- Orbital basis set information -----
Your calculation utilizes the basis: cc-pVTZ 
       H, B-Ne : Obtained from the ccRepo (grant-hill.group.shef.ac.uk/ccrepo) Feb. 2017
                 T. H. Dunning, Jr., J. Chem. Phys. 90, 1007 (1989)
            He : Obtained from the ccRepo (grant-hill.group.shef.ac.uk/ccrepo) Feb. 2017
                 D. E. Woon, T. H. Dunning, Jr., J. Chem. Phys. 100, 2975 (1994)
  Li-Be, Na-Mg : Obtained from the ccRepo (grant-hill.group.shef.ac.uk/ccrepo) Feb. 2017
                 B. P. Prascher, D. E. Woon, K. A. Peterson, T. H. Dunning, Jr., A. K. Wilson, Theor. Chem. Acc. 128, 69 (2011)
         Al-Ar : Obtained from the ccRepo (grant-hill.group.shef.ac.uk/ccrepo) Feb. 2017
                 D. E. Woon, T. H. Dunning, Jr., J. Chem. Phys. 98, 1358 (1993)
            Ca : Obtained from the Peterson Research Group Website (tyr0.chem.wsu.edu/~kipeters) Feb. 2017
                 J. Koput, K. A. Peterson, J. Phys. Chem. 106, 9595 (2002)
         Sc-Zn : Obtained from the ccRepo (grant-hill.group.shef.ac.uk/ccrepo) Feb. 2017
                 N. B. Balabanov, K. A. Peterson, J. Chem. Phys. 123, 064107 (2005)
                 N. B. Balabanov, K. A. Peterson, J. Chem. Phys. 125, 074110 (2006)
         Ga-Kr : Obtained from the ccRepo (grant-hill.group.shef.ac.uk/ccrepo) Feb. 2017
                 A. K. Wilson, D. E. Woon, K. A. Peterson, T. H. Dunning, Jr., J. Chem. Phys. 110, 7667 (1999)
             Y : Obtained from the ccRepo (grant-hill.group.shef.ac.uk/ccrepo) Feb. 2017
                 K. A. Peterson, D. Figgen, M. Dolg, H. Stoll, J. Chem. Phys. 126, 124101 (2007)
        Ag, Au : Obtained from the Peterson Research Group Website (tyr0.chem.wsu.edu/~kipeters) Feb. 2017
                 K. A. Peterson, C. Puzzarini, Theor. Chem. Acc. 114, 283 (2005)

----- AuxC basis set information -----
Your calculation utilizes the auxiliary basis: cc-pVTZ/C 
  Obtained from the EMSL Basis Set Exchange (bse.pnl.gov) Feb. 2017
  H-He, B-F, Al-Ar, Ga-Kr : F. Weigend, A. Kohn, C. Hattig, J. Chem. Phys. 116, 3175 (2002)
             Li-Be, Na-Mg : C. Haettig, Phys. Chem. Chem. Phys. 7, 59 (2005)
                       Ne : C. Haettig, Phys. Chem. Chem. Phys. 7, 59 (2005)
                            F. Weigend, A. Kohn, C. Hattig, J. Chem. Phys. 116, 3175 (2002)
                    Sc-Zn : J. G. Hill, J. A. Platts, J. Chem. Phys. 128, 044104 (2008)

================================================================================
                                        WARNINGS
                       Please study these warnings very carefully!
================================================================================


WARNING: No MP2 level density has been requested!
         To caclulate MP2 level properties use
         %mp2 Density relaxed end
         or
         %mp2 Density unrelaxed end

WARNING: Post HF methods need fully converged wavefunctions
  ===> : Setting SCFConvForced true
         You can overwrite this default with %scf ConvForced false 


INFO   : the flag for use of LIBINT has been found!

================================================================================
                                       INPUT FILE
================================================================================
NAME = G2_CONFS/Conf1.orca
|  1> ! ri-mp2 cc-pvtz cc-pvtz/c TightSCF NoKeepInts
|  2> 
|  3> %scf
|  4>   MaxCore 4096
|  5> end
|  6> *xyz  0  1
|  7>     C       14.2576882   14.4413360   16.4347497
|  8>     C       14.3180202   15.8295193   15.7762213
|  9>     O       15.4774789   16.5003538   16.2931719
| 10>     C       15.7499338   17.7720703   15.8897860
| 11>     O       15.0425904   18.3409677   15.0743979
| 12>     C       16.9923491   18.3779772   16.4986365
| 13>     C       17.4956118   19.5619314   16.0540597
| 14>     C       17.0213102   20.3908701   14.8798231
| 15>     N       18.4144751   20.2590144   16.8593513
| 16>     C       18.5546846   20.0171529   18.2100250
| 17>     S       19.3074156   21.0813364   19.2281289
| 18>     N       18.0231085   18.8273074   18.6520427
| 19>     C       17.7524303   17.7523047   17.6904739
| 20>     C       17.2586173   16.4692092   18.3533402
| 21>     C       17.8709853   15.2348939   18.0647553
| 22>     C       17.4302515   14.0554207   18.6884427
| 23>     C       16.3708392   14.1101145   19.6101140
| 24>     C       15.7599225   15.3377325   19.9004128
| 25>     O       14.7332918   15.3922997   20.7857600
| 26>     C       16.2017794   16.5109752   19.2810778
| 27>     H       15.1785873   13.8789280   16.2367453
| 28>     H       13.4094716   13.8659660   16.0450421
| 29>     H       14.1384787   14.5370170   17.5207187
| 30>     H       14.3922854   15.7259100   14.6853812
| 31>     H       13.4082992   16.3971659   16.0143900
| 32>     H       16.0355045   20.8260294   15.0894281
| 33>     H       16.9208360   19.7704269   13.9803516
| 34>     H       17.7067035   21.2105370   14.6346975
| 35>     H       18.7864332   21.1397061   16.5403730
| 36>     H       18.1057696   18.6277101   19.6409978
| 37>     H       18.7510910   17.5187951   17.2938613
| 38>     H       18.6885999   15.1885838   17.3506163
| 39>     H       17.9086100   13.1055161   18.4565432
| 40>     H       16.0265703   13.2015402   20.0928842
| 41>     H       14.5882156   14.4941459   21.1192537
| 42>     H       15.7087572   17.4492340   19.5119439
| 43> *
| 44> 
| 45>                          ****END OF INPUT****
================================================================================

                       ****************************
                       * Single Point Calculation *
                       ****************************

---------------------------------
CARTESIAN COORDINATES (ANGSTROEM)
---------------------------------
  C     14.257688   14.441336   16.434750
  C     14.318020   15.829519   15.776221
  O     15.477479   16.500354   16.293172
  C     15.749934   17.772070   15.889786
  O     15.042590   18.340968   15.074398
  C     16.992349   18.377977   16.498636
  C     17.495612   19.561931   16.054060
  C     17.021310   20.390870   14.879823
  N     18.414475   20.259014   16.859351
  C     18.554685   20.017153   18.210025
  S     19.307416   21.081336   19.228129
  N     18.023108   18.827307   18.652043
  C     17.752430   17.752305   17.690474
  C     17.258617   16.469209   18.353340
  C     17.870985   15.234894   18.064755
  C     17.430252   14.055421   18.688443
  C     16.370839   14.110114   19.610114
  C     15.759923   15.337732   19.900413
  O     14.733292   15.392300   20.785760
  C     16.201779   16.510975   19.281078
  H     15.178587   13.878928   16.236745
  H     13.409472   13.865966   16.045042
  H     14.138479   14.537017   17.520719
  H     14.392285   15.725910   14.685381
  H     13.408299   16.397166   16.014390
  H     16.035504   20.826029   15.089428
  H     16.920836   19.770427   13.980352
  H     17.706703   21.210537   14.634697
  H     18.786433   21.139706   16.540373
  H     18.105770   18.627710   19.640998
  H     18.751091   17.518795   17.293861
  H     18.688600   15.188584   17.350616
  H     17.908610   13.105516   18.456543
  H     16.026570   13.201540   20.092884
  H     14.588216   14.494146   21.119254
  H     15.708757   17.449234   19.511944

----------------------------
CARTESIAN COORDINATES (A.U.)
----------------------------
  NO LB      ZA    FRAG     MASS         X           Y           Z
   0 C     6.0000    0    12.011   26.943126   27.290170   31.057176
   1 C     6.0000    0    12.011   27.057137   29.913456   29.812738
   2 O     8.0000    0    15.999   29.248196   31.181150   30.789633
   3 C     6.0000    0    12.011   29.763062   33.584346   30.027344
   4 O     8.0000    0    15.999   28.426376   34.659406   28.486484
   5 C     6.0000    0    12.011   32.110886   34.729344   31.177905
   6 C     6.0000    0    12.011   33.061915   36.966693   30.337776
   7 C     6.0000    0    12.011   32.165615   38.533160   28.118791
   8 N     7.0000    0    14.007   34.798315   38.283989   31.859557
   9 C     6.0000    0    12.011   35.063272   37.826937   34.411960
  10 S    16.0000    0    32.060   36.485728   39.837952   36.335898
  11 N     7.0000    0    14.007   34.058739   35.578455   35.247253
  12 C     6.0000    0    12.011   33.547231   33.546994   33.430151
  13 C     6.0000    0    12.011   32.614060   31.122295   34.682787
  14 C     6.0000    0    12.011   33.771268   28.789777   34.137440
  15 C     6.0000    0    12.011   32.938402   26.560896   35.316039
  16 C     6.0000    0    12.011   30.936403   26.664252   37.057745
  17 C     6.0000    0    12.011   29.781937   28.984114   37.606330
  18 O     8.0000    0    15.999   27.841887   29.087231   39.279394
  19 C     6.0000    0    12.011   30.616926   31.201221   36.435957
  20 H     1.0000    0     1.008   28.683373   26.227373   30.683002
  21 H     1.0000    0     1.008   25.340229   26.202878   30.320735
  22 H     1.0000    0     1.008   26.717853   27.470981   33.109360
  23 H     1.0000    0     1.008   27.197478   29.717663   27.751349
  24 H     1.0000    0     1.008   25.338013   30.986153   30.262811
  25 H     1.0000    0     1.008   30.302712   39.355492   28.514887
  26 H     1.0000    0     1.008   31.975746   37.360692   26.419036
  27 H     1.0000    0     1.008   33.460820   40.082106   27.655570
  28 H     1.0000    0     1.008   35.501214   39.948255   31.256775
  29 H     1.0000    0     1.008   34.214946   35.201271   37.116107
  30 H     1.0000    0     1.008   35.434427   33.105725   32.680662
  31 H     1.0000    0     1.008   35.316336   28.702264   32.787913
  32 H     1.0000    0     1.008   33.842368   24.765836   34.877812
  33 H     1.0000    0     1.008   30.285829   24.947296   37.970048
  34 H     1.0000    0     1.008   27.567732   27.389966   39.909606
  35 H     1.0000    0     1.008   29.685249   32.974274   36.872230

--------------------------------
INTERNAL COORDINATES (ANGSTROEM)
--------------------------------
 C      0   0   0     0.000000000000     0.00000000     0.00000000
 C      1   0   0     1.537645108024     0.00000000     0.00000000
 O      2   1   0     1.435827749501   107.41486976     0.00000000
 C      3   2   1     1.361695528826   119.42305831   181.41834597
 O      4   3   2     1.220178958543   121.15827841   358.36846935
 C      4   3   2     1.510436321230   114.82247512   179.94569992
 C      6   4   3     1.361127996923   121.42626348   170.65805614
 C      7   6   4     1.513582825253   127.87277648   354.86301432
 N      7   6   4     1.406673037350   119.05076725   163.08291166
 C      9   7   6     1.379302408083   122.69062661   341.34172350
 S     10   9   7     1.653972802445   122.42630352   197.11870611
 N     10   9   7     1.376112317754   115.27029391    17.08216358
 C     12  10   9     1.467484940330   119.61516295    19.09711435
 C     13  12  10     1.526295211538   113.01218504   175.93008417
 C     14  13  12     1.407767762007   120.48526608   231.10325040
 C     15  14  13     1.405129632774   120.56739350   179.08654421
 C     16  15  14     1.405284248255   119.66352168   359.86616893
 C     17  16  15     1.401619977577   119.90192120     0.07564780
 O     18  17  16     1.356756366503   120.01253690   179.72895831
 C     18  17  16     1.398324638775   120.35860166   359.77950088
 H      1   2   3     1.097070486917   110.64538959   302.43358597
 H      1   2   3     1.096537300284   110.60091140   182.26164852
 H      1   2   3     1.096674257750   110.46219107    62.40235947
 H      2   1   3     1.098263324866   110.05121401   120.11260879
 H      2   1   3     1.098425823619   109.94957959   239.78282489
 H      8   7   6     1.097775364341   110.50987703    69.02254352
 H      8   7   6     1.097312083504   110.79079615   310.15146696
 H      8   7   6     1.096222770433   112.77118923   189.91248561
 H      9   7   6     1.007828286205   119.53352610   180.45553253
 H     12  10   9     1.012276705964   116.92031729   180.46036401
 H     13  12  10     1.099614242130   102.96654628    62.28954020
 H     15  14  13     1.086569266460   119.96166136   358.78728632
 H     16  15  14     1.088541676613   120.00667782   179.83767035
 H     17  16  15     1.084940274916   119.89851275   179.91580635
 H     19  18  17     0.968991950534   107.49332627     1.34408228
 H     20  18  17     1.084757863119   119.19869087   179.37696914

---------------------------
INTERNAL COORDINATES (A.U.)
---------------------------
 C      0   0   0     0.000000000000     0.00000000     0.00000000
 C      1   0   0     2.905728145329     0.00000000     0.00000000
 O      2   1   0     2.713321222041   107.41486976     0.00000000
 C      3   2   1     2.573231627266   119.42305831   181.41834597
 O      4   3   2     2.305804066020   121.15827841   358.36846935
 C      4   3   2     2.854310989853   114.82247512   179.94569992
 C      6   4   3     2.572159147397   121.42626348   170.65805614
 C      7   6   4     2.860257020734   127.87277648   354.86301432
 N      7   6   4     2.658226800562   119.05076725   163.08291166
 C      9   7   6     2.606503807135   122.69062661   341.34172350
 S     10   9   7     3.125555629576   122.42630352   197.11870611
 N     10   9   7     2.600475410071   115.27029391    17.08216358
 C     12  10   9     2.773144642878   119.61516295    19.09711435
 C     13  12  10     2.884279949323   113.01218504   175.93008417
 C     14  13  12     2.660295530356   120.48526608   231.10325040
 C     15  14  13     2.655310188600   120.56739350   179.08654421
 C     16  15  14     2.655602369515   119.66352168   359.86616893
 C     17  16  15     2.648677901454   119.90192120     0.07564780
 O     18  17  16     2.563897963145   120.01253690   179.72895831
 C     18  17  16     2.642450613600   120.35860166   359.77950088
 H      1   2   3     2.073162769881   110.64538959   302.43358597
 H      1   2   3     2.072155193165   110.60091140   182.26164852
 H      1   2   3     2.072414005269   110.46219107    62.40235947
 H      2   1   3     2.075416906926   110.05121401   120.11260879
 H      2   1   3     2.075723985066   109.94957959   239.78282489
 H      8   7   6     2.074494795170   110.50987703    69.02254352
 H      8   7   6     2.073619321265   110.79079615   310.15146696
 H      8   7   6     2.071560817887   112.77118923   189.91248561
 H      9   7   6     1.904519450947   119.53352610   180.45553253
 H     12  10   9     1.912925746019   116.92031729   180.46036401
 H     13  12  10     2.077969770585   102.96654628    62.28954020
 H     15  14  13     2.053318339146   119.96166136   358.78728632
 H     16  15  14     2.057045654158   120.00667782   179.83767035
 H     17  16  15     2.050239991253   119.89851275   179.91580635
 H     19  18  17     1.831129412484   107.49332627     1.34408228
 H     20  18  17     2.049895282913   119.19869087   179.37696914

---------------------
BASIS SET INFORMATION
---------------------
There are 5 groups of distinct atoms

 Group   1 Type C   : 18s5p2d1f contracted to 4s3p2d1f pattern {8811/311/11/1}
 Group   2 Type O   : 18s5p2d1f contracted to 4s3p2d1f pattern {8811/311/11/1}
 Group   3 Type N   : 18s5p2d1f contracted to 4s3p2d1f pattern {8811/311/11/1}
 Group   4 Type S   : 41s16p2d1f contracted to 5s4p2d1f pattern {13131311/7711/11/1}
 Group   5 Type H   : 5s2p1d contracted to 3s2p1d pattern {311/11/1}

Atom   0C    basis set group =>   1
Atom   1C    basis set group =>   1
Atom   2O    basis set group =>   2
Atom   3C    basis set group =>   1
Atom   4O    basis set group =>   2
Atom   5C    basis set group =>   1
Atom   6C    basis set group =>   1
Atom   7C    basis set group =>   1
Atom   8N    basis set group =>   3
Atom   9C    basis set group =>   1
Atom  10S    basis set group =>   4
Atom  11N    basis set group =>   3
Atom  12C    basis set group =>   1
Atom  13C    basis set group =>   1
Atom  14C    basis set group =>   1
Atom  15C    basis set group =>   1
Atom  16C    basis set group =>   1
Atom  17C    basis set group =>   1
Atom  18O    basis set group =>   2
Atom  19C    basis set group =>   1
Atom  20H    basis set group =>   5
Atom  21H    basis set group =>   5
Atom  22H    basis set group =>   5
Atom  23H    basis set group =>   5
Atom  24H    basis set group =>   5
Atom  25H    basis set group =>   5
Atom  26H    basis set group =>   5
Atom  27H    basis set group =>   5
Atom  28H    basis set group =>   5
Atom  29H    basis set group =>   5
Atom  30H    basis set group =>   5
Atom  31H    basis set group =>   5
Atom  32H    basis set group =>   5
Atom  33H    basis set group =>   5
Atom  34H    basis set group =>   5
Atom  35H    basis set group =>   5
---------------------------------
AUXILIARY/C BASIS SET INFORMATION
---------------------------------
There are 5 groups of distinct atoms

 Group   1 Type C   : 8s6p5d3f1g contracted to 8s6p5d3f1g pattern {11111111/111111/11111/111/1}
 Group   2 Type O   : 8s6p5d3f1g contracted to 8s6p5d3f1g pattern {11111111/111111/11111/111/1}
 Group   3 Type N   : 8s6p5d3f1g contracted to 8s6p5d3f1g pattern {11111111/111111/11111/111/1}
 Group   4 Type S   : 10s8p7d5f2g contracted to 10s8p7d5f2g pattern {1111111111/11111111/1111111/11111/11}
 Group   5 Type H   : 4s3p2d1f contracted to 4s3p2d1f pattern {1111/111/11/1}

Atom   0C    basis set group =>   1
Atom   1C    basis set group =>   1
Atom   2O    basis set group =>   2
Atom   3C    basis set group =>   1
Atom   4O    basis set group =>   2
Atom   5C    basis set group =>   1
Atom   6C    basis set group =>   1
Atom   7C    basis set group =>   1
Atom   8N    basis set group =>   3
Atom   9C    basis set group =>   1
Atom  10S    basis set group =>   4
Atom  11N    basis set group =>   3
Atom  12C    basis set group =>   1
Atom  13C    basis set group =>   1
Atom  14C    basis set group =>   1
Atom  15C    basis set group =>   1
Atom  16C    basis set group =>   1
Atom  17C    basis set group =>   1
Atom  18O    basis set group =>   2
Atom  19C    basis set group =>   1
Atom  20H    basis set group =>   5
Atom  21H    basis set group =>   5
Atom  22H    basis set group =>   5
Atom  23H    basis set group =>   5
Atom  24H    basis set group =>   5
Atom  25H    basis set group =>   5
Atom  26H    basis set group =>   5
Atom  27H    basis set group =>   5
Atom  28H    basis set group =>   5
Atom  29H    basis set group =>   5
Atom  30H    basis set group =>   5
Atom  31H    basis set group =>   5
Atom  32H    basis set group =>   5
Atom  33H    basis set group =>   5
Atom  34H    basis set group =>   5
Atom  35H    basis set group =>   5
------------------------------------------------------------------------------
                           ORCA GTO INTEGRAL CALCULATION
------------------------------------------------------------------------------

                         BASIS SET STATISTICS AND STARTUP INFO

 # of primitive gaussian shells          ...  682
 # of primitive gaussian functions       ... 1312
 # of contracted shells                  ...  298
 # of contracted basis functions         ...  828
 Highest angular momentum                ...    3
 Maximum contraction depth               ...   13
 Integral package used                   ... LIBINT
 Integral threshhold            Thresh   ...  2.500e-11
 Primitive cut-off              TCut     ...  2.500e-12


------------------------------ INTEGRAL EVALUATION ----------------------------


 * One electron integrals 
 Pre-screening matrix                    ... done
 Shell pair data                         ... done (   0.014 sec)

-------------------------------------------------------------------------------
                                 ORCA SCF
-------------------------------------------------------------------------------

------------
SCF SETTINGS
------------
Hamiltonian:
 Ab initio Hamiltonian  Method          .... Hartree-Fock(GTOs)


General Settings:
 Integral files         IntName         .... G2_CONFS/Conf1.orca
 Hartree-Fock type      HFTyp           .... RHF
 Total Charge           Charge          ....    0
 Multiplicity           Mult            ....    1
 Number of Electrons    NEL             ....  154
 Basis Dimension        Dim             ....  828
 Nuclear Repulsion      ENuc            ....   1699.3271766471 Eh

Convergence Acceleration:
 DIIS                   CNVDIIS         .... on
   Start iteration      DIISMaxIt       ....    12
   Startup error        DIISStart       ....  0.200000
   # of expansion vecs  DIISMaxEq       ....     5
   Bias factor          DIISBfac        ....   1.050
   Max. coefficient     DIISMaxC        ....  10.000
 Newton-Raphson         CNVNR           .... off
 SOSCF                  CNVSOSCF        .... on
   Start iteration      SOSCFMaxIt      ....   150
   Startup grad/error   SOSCFStart      ....  0.003300
 Level Shifting         CNVShift        .... on
   Level shift para.    LevelShift      ....    0.2500
   Turn off err/grad.   ShiftErr        ....    0.0010
 Zerner damping         CNVZerner       .... off
 Static damping         CNVDamp         .... on
   Fraction old density DampFac         ....    0.7000
   Max. Damping (<1)    DampMax         ....    0.9800
   Min. Damping (>=0)   DampMin         ....    0.0000
   Turn off err/grad.   DampErr         ....    0.1000
 Fernandez-Rico         CNVRico         .... off

SCF Procedure:
 Maximum # iterations   MaxIter         ....   125
 SCF integral mode      SCFMode         .... Direct
   Integral package                     .... LIBINT
 Reset frequency        DirectResetFreq ....    20
 Integral Threshold     Thresh          ....  2.500e-11 Eh
 Primitive CutOff       TCut            ....  2.500e-12 Eh

Convergence Tolerance:
 Convergence Check Mode ConvCheckMode   .... Total+1el-Energy
 Convergence forced     ConvForced      .... 1
 Energy Change          TolE            ....  1.000e-08 Eh
 1-El. energy change                    ....  1.000e-05 Eh
 Orbital Gradient       TolG            ....  1.000e-05
 Orbital Rotation angle TolX            ....  1.000e-05
 DIIS Error             TolErr          ....  5.000e-07


Diagonalization of the overlap matrix:
Smallest eigenvalue                        ... 3.334e-05
Time for diagonalization                   ...    0.105 sec
Threshold for overlap eigenvalues          ... 1.000e-08
Number of eigenvalues below threshold      ... 0
Time for construction of square roots      ...    0.149 sec
Total time needed                          ...    0.256 sec

-------------------
DFT GRID GENERATION
-------------------

General Integration Accuracy     IntAcc      ...  4.340
Radial Grid Type                 RadialGrid  ... Gauss-Chebyshev
Angular Grid (max. acc.)         AngularGrid ... Lebedev-110
Angular grid pruning method      GridPruning ... 3 (G Style)
Weight generation scheme         WeightScheme... Becke
Basis function cutoff            BFCut       ...    1.0000e-11
Integration weight cutoff        WCut        ...    1.0000e-14
Grids for H and He will be reduced by one unit

# of grid points (after initial pruning)     ...  46246 (   0.0 sec)
# of grid points (after weights+screening)   ...  41298 (   0.3 sec)
nearest neighbour list constructed           ...    0.0 sec
Grid point re-assignment to atoms done       ...    0.0 sec
Grid point division into batches done        ...    0.0 sec
Reduced shell lists constructed in    0.9 sec

Total number of grid points                  ...    41298
Total number of batches                      ...      662
Average number of points per batch           ...       62
Average number of grid points per atom       ...     1147
Average number of shells per batch           ...   148.05 (49.68%)
Average number of basis functions per batch  ...   376.86 (45.52%)
Average number of large shells per batch     ...    95.01 (64.17%)
Average number of large basis fcns per batch ...   243.99 (64.74%)
Maximum spatial batch extension              ...  20.50, 19.87, 19.49 au
Average spatial batch extension              ...   3.33,  3.20,  3.35 au

Time for grid setup =    1.232 sec

------------------------------
INITIAL GUESS: MODEL POTENTIAL
------------------------------
Loading Hartree-Fock densities                     ... done
Calculating cut-offs                               ... done
Setting up the integral package                    ... done
Initializing the effective Hamiltonian             ... done
Starting the Coulomb interaction                   ... done (   3.0 sec)
Reading the grid                                   ... done
Mapping shells                                     ... done
Starting the XC term evaluation                    ... done (   1.3 sec)
Transforming the Hamiltonian                       ... done (   0.1 sec)
Diagonalizing the Hamiltonian                      ... done (   0.1 sec)
Back transforming the eigenvectors                 ... done (   0.0 sec)
Now organizing SCF variables                       ... done
                      ------------------
                      INITIAL GUESS DONE (   6.0 sec)
                      ------------------
--------------
SCF ITERATIONS
--------------
ITER       Energy         Delta-E        Max-DP      RMS-DP      [F,P]     Damp
               ***  Starting incremental Fock matrix formation  ***
  0  -1270.0087629256   0.000000000000 0.04930114  0.00043080  0.3056835 0.7000
  1  -1270.2760826855  -0.267319759977 0.03607291  0.00034584  0.1798215 0.7000
                               ***Turning on DIIS***
  2  -1270.4424813597  -0.166398674200 0.02583365  0.00023197  0.1096475 0.7000
  3  -1272.5759494144  -2.133468054651 0.06312946  0.00050222  0.0829767 0.0000
  4  -1270.7521274694   1.823821945045 0.00692081  0.00009188  0.0075074 0.0000
  5  -1270.8079281807  -0.055800711364 0.00321318  0.00004737  0.0046092 0.0000
                      *** Initiating the SOSCF procedure ***
                           *** Shutting down DIIS ***
                      *** Re-Reading the Fockian *** 
                      *** Removing any level shift *** 
ITER      Energy       Delta-E        Grad      Rot      Max-DP    RMS-DP
  6  -1270.78919172   0.0187364621  0.001408  0.001408  0.001647  0.000024
               *** Restarting incremental Fock matrix formation ***
  7  -1270.80369550  -0.0145037808  0.000838  0.002130  0.001228  0.000014
  8  -1270.80373696  -0.0000414639  0.000343  0.002245  0.001315  0.000014
  9  -1270.80375228  -0.0000153138  0.000137  0.000274  0.000351  0.000004
 10  -1270.80375412  -0.0000018395  0.000034  0.000101  0.000115  0.000001
 11  -1270.80375429  -0.0000001737  0.000023  0.000105  0.000050  0.000001
 12  -1270.80375435  -0.0000000587  0.000010  0.000043  0.000031  0.000000
 13  -1270.80375435  -0.0000000022  0.000004  0.000016  0.000007  0.000000
                  ***Gradient check signals convergence***
              ***Rediagonalizing the Fockian in SOSCF/NRSCF***

               *****************************************************
               *                     SUCCESS                       *
               *           SCF CONVERGED AFTER  14 CYCLES          *
               *****************************************************


----------------
TOTAL SCF ENERGY
----------------

Total Energy       :        -1270.80375434 Eh          -34580.32819 eV

Components:
Nuclear Repulsion  :         1699.32717665 Eh           46241.04333 eV
Electronic Energy  :        -2970.13093099 Eh          -80821.37151 eV
One Electron Energy:        -5119.92431133 Eh         -139320.22341 eV
Two Electron Energy:         2149.79338034 Eh           58498.85190 eV

Virial components:
Potential Energy   :        -2539.70430205 Eh          -69108.86749 eV
Kinetic Energy     :         1268.90054771 Eh           34528.53930 eV
Virial Ratio       :            2.00149989


---------------
SCF CONVERGENCE
---------------

  Last Energy change         ...    1.3299e-08  Tolerance :   1.0000e-08
  Last MAX-Density change    ...    2.1802e-06  Tolerance :   1.0000e-07
  Last RMS-Density change    ...    3.1442e-08  Tolerance :   5.0000e-09
  Last Orbital Gradient      ...    1.2002e-06  Tolerance :   1.0000e-05
  Last Orbital Rotation      ...    2.7519e-06  Tolerance :   1.0000e-05

             **** THE GBW FILE WAS UPDATED (G2_CONFS/Conf1.orca.gbw) ****
             **** DENSITY FILE WAS UPDATED (G2_CONFS/Conf1.orca.scfp) ****
             **** ENERGY FILE WAS UPDATED (G2_CONFS/Conf1.orca.en.tmp) ****
             **** THE GBW FILE WAS UPDATED (G2_CONFS/Conf1.orca.gbw) ****
             **** DENSITY FILE WAS UPDATED (G2_CONFS/Conf1.orca.scfp) ****
----------------
ORBITAL ENERGIES
----------------

  NO   OCC          E(Eh)            E(eV) 
   0   2.0000     -91.890531     -2500.4685 
   1   2.0000     -20.600164      -560.5590 
   2   2.0000     -20.597043      -560.4740 
   3   2.0000     -20.537584      -558.8561 
   4   2.0000     -15.631445      -425.3532 
   5   2.0000     -15.604564      -424.6218 
   6   2.0000     -11.391999      -309.9921 
   7   2.0000     -11.383903      -309.7718 
   8   2.0000     -11.334065      -308.4156 
   9   2.0000     -11.316285      -307.9318 
  10   2.0000     -11.308752      -307.7268 
  11   2.0000     -11.292304      -307.2792 
  12   2.0000     -11.269481      -306.6582 
  13   2.0000     -11.259346      -306.3824 
  14   2.0000     -11.258012      -306.3461 
  15   2.0000     -11.250412      -306.1393 
  16   2.0000     -11.245768      -306.0129 
  17   2.0000     -11.241750      -305.9036 
  18   2.0000     -11.240580      -305.8717 
  19   2.0000     -11.225300      -305.4559 
  20   2.0000      -8.895462      -242.0578 
  21   2.0000      -6.577011      -178.9696 
  22   2.0000      -6.575045      -178.9161 
  23   2.0000      -6.574424      -178.8992 
  24   2.0000      -1.450522       -39.4707 
  25   2.0000      -1.419802       -38.6348 
  26   2.0000      -1.350406       -36.7464 
  27   2.0000      -1.339697       -36.4550 
  28   2.0000      -1.236501       -33.6469 
  29   2.0000      -1.158593       -31.5269 
  30   2.0000      -1.117512       -30.4090 
  31   2.0000      -1.043626       -28.3985 
  32   2.0000      -1.036694       -28.2099 
  33   2.0000      -1.017975       -27.7005 
  34   2.0000      -0.996007       -27.1027 
  35   2.0000      -0.982176       -26.7264 
  36   2.0000      -0.918819       -25.0023 
  37   2.0000      -0.886937       -24.1348 
  38   2.0000      -0.847178       -23.0529 
  39   2.0000      -0.838898       -22.8276 
  40   2.0000      -0.832239       -22.6464 
  41   2.0000      -0.817030       -22.2325 
  42   2.0000      -0.764173       -20.7942 
  43   2.0000      -0.733457       -19.9584 
  44   2.0000      -0.711173       -19.3520 
  45   2.0000      -0.697455       -18.9787 
  46   2.0000      -0.688989       -18.7483 
  47   2.0000      -0.678869       -18.4730 
  48   2.0000      -0.674111       -18.3435 
  49   2.0000      -0.663107       -18.0441 
  50   2.0000      -0.656937       -17.8762 
  51   2.0000      -0.647861       -17.6292 
  52   2.0000      -0.631433       -17.1822 
  53   2.0000      -0.608846       -16.5675 
  54   2.0000      -0.603965       -16.4347 
  55   2.0000      -0.595311       -16.1992 
  56   2.0000      -0.580904       -15.8072 
  57   2.0000      -0.576526       -15.6881 
  58   2.0000      -0.571900       -15.5622 
  59   2.0000      -0.570077       -15.5126 
  60   2.0000      -0.561164       -15.2700 
  61   2.0000      -0.549180       -14.9439 
  62   2.0000      -0.541171       -14.7260 
  63   2.0000      -0.522017       -14.2048 
  64   2.0000      -0.516000       -14.0411 
  65   2.0000      -0.511097       -13.9077 
  66   2.0000      -0.509117       -13.8538 
  67   2.0000      -0.501320       -13.6416 
  68   2.0000      -0.478173       -13.0117 
  69   2.0000      -0.460501       -12.5309 
  70   2.0000      -0.455870       -12.4049 
  71   2.0000      -0.437979       -11.9180 
  72   2.0000      -0.359832        -9.7915 
  73   2.0000      -0.347586        -9.4583 
  74   2.0000      -0.330077        -8.9819 
  75   2.0000      -0.323628        -8.8064 
  76   2.0000      -0.317133        -8.6296 
  77   0.0000       0.077180         2.1002 
  78   0.0000       0.105514         2.8712 
  79   0.0000       0.121478         3.3056 
  80   0.0000       0.127036         3.4568 
  81   0.0000       0.131721         3.5843 
  82   0.0000       0.141868         3.8604 
  83   0.0000       0.148692         4.0461 
  84   0.0000       0.150561         4.0970 
  85   0.0000       0.165851         4.5130 
  86   0.0000       0.170823         4.6483 
  87   0.0000       0.178584         4.8595 
  88   0.0000       0.193216         5.2577 
  89   0.0000       0.197538         5.3753 
  90   0.0000       0.203573         5.5395 
  91   0.0000       0.212473         5.7817 
  92   0.0000       0.215539         5.8651 
  93   0.0000       0.217638         5.9222 
  94   0.0000       0.223223         6.0742 
  95   0.0000       0.230915         6.2835 
  96   0.0000       0.248387         6.7590 
  97   0.0000       0.252350         6.8668 
  98   0.0000       0.267629         7.2826 
  99   0.0000       0.274909         7.4807 
 100   0.0000       0.296238         8.0611 
 101   0.0000       0.309921         8.4334 
 102   0.0000       0.318423         8.6647 
 103   0.0000       0.319524         8.6947 
 104   0.0000       0.324906         8.8411 
 105   0.0000       0.330815         9.0019 
 106   0.0000       0.339007         9.2248 
 107   0.0000       0.343506         9.3473 
 108   0.0000       0.353066         9.6074 
 109   0.0000       0.367339         9.9958 
 110   0.0000       0.371139        10.0992 
 111   0.0000       0.381853        10.3907 
 112   0.0000       0.388346        10.5674 
 113   0.0000       0.392026        10.6676 
 114   0.0000       0.395066        10.7503 
 115   0.0000       0.399826        10.8798 
 116   0.0000       0.414489        11.2788 
 117   0.0000       0.426212        11.5978 
 118   0.0000       0.427967        11.6456 
 119   0.0000       0.433204        11.7881 
 120   0.0000       0.441957        12.0263 
 121   0.0000       0.449619        12.2348 
 122   0.0000       0.456613        12.4251 
 123   0.0000       0.459966        12.5163 
 124   0.0000       0.470823        12.8118 
 125   0.0000       0.479191        13.0395 
 126   0.0000       0.482904        13.1405 
 127   0.0000       0.485200        13.2030 
 128   0.0000       0.489954        13.3323 
 129   0.0000       0.494849        13.4655 
 130   0.0000       0.499891        13.6027 
 131   0.0000       0.512130        13.9358 
 132   0.0000       0.519129        14.1262 
 133   0.0000       0.521049        14.1785 
 134   0.0000       0.527673        14.3587 
 135   0.0000       0.536169        14.5899 
 136   0.0000       0.537250        14.6193 
 137   0.0000       0.540268        14.7014 
 138   0.0000       0.545405        14.8412 
 139   0.0000       0.550229        14.9725 
 140   0.0000       0.553386        15.0584 
 141   0.0000       0.558482        15.1971 
 142   0.0000       0.564688        15.3659 
 143   0.0000       0.569879        15.5072 
 144   0.0000       0.573294        15.6001 
 145   0.0000       0.577295        15.7090 
 146   0.0000       0.582402        15.8480 
 147   0.0000       0.586267        15.9531 
 148   0.0000       0.592363        16.1190 
 149   0.0000       0.600318        16.3355 
 150   0.0000       0.605327        16.4718 
 151   0.0000       0.607907        16.5420 
 152   0.0000       0.617569        16.8049 
 153   0.0000       0.622177        16.9303 
 154   0.0000       0.623752        16.9731 
 155   0.0000       0.630652        17.1609 
 156   0.0000       0.631401        17.1813 
 157   0.0000       0.634435        17.2639 
 158   0.0000       0.638876        17.3847 
 159   0.0000       0.643000        17.4969 
 160   0.0000       0.650406        17.6984 
 161   0.0000       0.656735        17.8707 
 162   0.0000       0.657497        17.8914 
 163   0.0000       0.663346        18.0506 
 164   0.0000       0.667481        18.1631 
 165   0.0000       0.668538        18.1918 
 166   0.0000       0.674214        18.3463 
 167   0.0000       0.676537        18.4095 
 168   0.0000       0.681904        18.5556 
 169   0.0000       0.696448        18.9513 
 170   0.0000       0.703423        19.1411 
 171   0.0000       0.707447        19.2506 
 172   0.0000       0.711758        19.3679 
 173   0.0000       0.713469        19.4145 
 174   0.0000       0.715355        19.4658 
 175   0.0000       0.727744        19.8029 
 176   0.0000       0.731689        19.9103 
 177   0.0000       0.746357        20.3094 
 178   0.0000       0.750560        20.4238 
 179   0.0000       0.754529        20.5318 
 180   0.0000       0.769718        20.9451 
 181   0.0000       0.771905        21.0046 
 182   0.0000       0.786708        21.4074 
 183   0.0000       0.789603        21.4862 
 184   0.0000       0.802883        21.8476 
 185   0.0000       0.805208        21.9108 
 186   0.0000       0.816529        22.2189 
 187   0.0000       0.818848        22.2820 
 188   0.0000       0.832630        22.6570 
 189   0.0000       0.838317        22.8118 
 190   0.0000       0.848851        23.0984 
 191   0.0000       0.857300        23.3283 
 192   0.0000       0.859648        23.3922 
 193   0.0000       0.865056        23.5394 
 194   0.0000       0.872733        23.7483 
 195   0.0000       0.874458        23.7952 
 196   0.0000       0.883668        24.0458 
 197   0.0000       0.892360        24.2824 
 198   0.0000       0.893440        24.3117 
 199   0.0000       0.902347        24.5541 
 200   0.0000       0.902941        24.5703 
 201   0.0000       0.917604        24.9693 
 202   0.0000       0.918229        24.9863 
 203   0.0000       0.931863        25.3573 
 204   0.0000       0.933923        25.4133 
 205   0.0000       0.949851        25.8468 
 206   0.0000       0.954571        25.9752 
 207   0.0000       0.960624        26.1399 
 208   0.0000       0.964823        26.2542 
 209   0.0000       0.975556        26.5462 
 210   0.0000       0.981849        26.7175 
 211   0.0000       0.989155        26.9163 
 212   0.0000       0.994021        27.0487 
 213   0.0000       1.004337        27.3294 
 214   0.0000       1.005215        27.3533 
 215   0.0000       1.007621        27.4188 
 216   0.0000       1.019062        27.7301 
 217   0.0000       1.028688        27.9920 
 218   0.0000       1.030392        28.0384 
 219   0.0000       1.036098        28.1936 
 220   0.0000       1.045073        28.4379 
 221   0.0000       1.055512        28.7219 
 222   0.0000       1.069740        29.1091 
 223   0.0000       1.072916        29.1955 
 224   0.0000       1.081202        29.4210 
 225   0.0000       1.084543        29.5119 
 226   0.0000       1.096352        29.8333 
 227   0.0000       1.101420        29.9712 
 228   0.0000       1.113932        30.3116 
 229   0.0000       1.122507        30.5450 
 230   0.0000       1.125075        30.6148 
 231   0.0000       1.127698        30.6862 
 232   0.0000       1.131984        30.8029 
 233   0.0000       1.150447        31.3052 
 234   0.0000       1.156204        31.4619 
 235   0.0000       1.159368        31.5480 
 236   0.0000       1.165260        31.7083 
 237   0.0000       1.177690        32.0466 
 238   0.0000       1.185446        32.2576 
 239   0.0000       1.188725        32.3469 
 240   0.0000       1.196435        32.5567 
 241   0.0000       1.201883        32.7049 
 242   0.0000       1.210442        32.9378 
 243   0.0000       1.214320        33.0433 
 244   0.0000       1.220830        33.2205 
 245   0.0000       1.232092        33.5269 
 246   0.0000       1.236215        33.6391 
 247   0.0000       1.242767        33.8174 
 248   0.0000       1.247118        33.9358 
 249   0.0000       1.257049        34.2060 
 250   0.0000       1.265196        34.4277 
 251   0.0000       1.277736        34.7690 
 252   0.0000       1.281761        34.8785 
 253   0.0000       1.288440        35.0602 
 254   0.0000       1.295559        35.2540 
 255   0.0000       1.313317        35.7372 
 256   0.0000       1.317937        35.8629 
 257   0.0000       1.321846        35.9693 
 258   0.0000       1.334212        36.3057 
 259   0.0000       1.338567        36.4243 
 260   0.0000       1.348347        36.6904 
 261   0.0000       1.355213        36.8772 
 262   0.0000       1.363508        37.1029 
 263   0.0000       1.370561        37.2949 
 264   0.0000       1.376525        37.4571 
 265   0.0000       1.387188        37.7473 
 266   0.0000       1.395652        37.9776 
 267   0.0000       1.404385        38.2152 
 268   0.0000       1.408657        38.3315 
 269   0.0000       1.415941        38.5297 
 270   0.0000       1.416524        38.5456 
 271   0.0000       1.431565        38.9549 
 272   0.0000       1.436936        39.1010 
 273   0.0000       1.443833        39.2887 
 274   0.0000       1.456815        39.6420 
 275   0.0000       1.459051        39.7028 
 276   0.0000       1.460704        39.7478 
 277   0.0000       1.474980        40.1362 
 278   0.0000       1.488954        40.5165 
 279   0.0000       1.497455        40.7478 
 280   0.0000       1.498682        40.7812 
 281   0.0000       1.503369        40.9087 
 282   0.0000       1.512015        41.1440 
 283   0.0000       1.514555        41.2131 
 284   0.0000       1.517198        41.2850 
 285   0.0000       1.522145        41.4197 
 286   0.0000       1.528795        41.6006 
 287   0.0000       1.530711        41.6528 
 288   0.0000       1.541955        41.9587 
 289   0.0000       1.550522        42.1918 
 290   0.0000       1.552650        42.2497 
 291   0.0000       1.558089        42.3978 
 292   0.0000       1.569635        42.7120 
 293   0.0000       1.574981        42.8574 
 294   0.0000       1.583365        43.0856 
 295   0.0000       1.584820        43.1252 
 296   0.0000       1.601663        43.5835 
 297   0.0000       1.608322        43.7647 
 298   0.0000       1.619091        44.0577 
 299   0.0000       1.625205        44.2241 
 300   0.0000       1.636413        44.5291 
 301   0.0000       1.639166        44.6040 
 302   0.0000       1.652053        44.9546 
 303   0.0000       1.657748        45.1096 
 304   0.0000       1.669077        45.4179 
 305   0.0000       1.676473        45.6192 
 306   0.0000       1.690744        46.0075 
 307   0.0000       1.699837        46.2549 
 308   0.0000       1.711883        46.5827 
 309   0.0000       1.719890        46.8006 
 310   0.0000       1.723043        46.8864 
 311   0.0000       1.733325        47.1662 
 312   0.0000       1.748546        47.5804 
 313   0.0000       1.756400        47.7941 
 314   0.0000       1.757006        47.8106 
 315   0.0000       1.780962        48.4624 
 316   0.0000       1.783948        48.5437 
 317   0.0000       1.796912        48.8965 
 318   0.0000       1.806085        49.1461 
 319   0.0000       1.813261        49.3413 
 320   0.0000       1.819382        49.5079 
 321   0.0000       1.825675        49.6791 
 322   0.0000       1.831975        49.8506 
 323   0.0000       1.847392        50.2701 
 324   0.0000       1.860463        50.6258 
 325   0.0000       1.863557        50.7100 
 326   0.0000       1.896071        51.5947 
 327   0.0000       1.905635        51.8550 
 328   0.0000       1.912769        52.0491 
 329   0.0000       1.920397        52.2567 
 330   0.0000       1.928359        52.4733 
 331   0.0000       1.935767        52.6749 
 332   0.0000       1.940363        52.8000 
 333   0.0000       1.951507        53.1032 
 334   0.0000       1.959538        53.3217 
 335   0.0000       1.970719        53.6260 
 336   0.0000       1.982999        53.9601 
 337   0.0000       1.999406        54.4066 
 338   0.0000       2.012544        54.7641 
 339   0.0000       2.016946        54.8839 
 340   0.0000       2.028014        55.1851 
 341   0.0000       2.037651        55.4473 
 342   0.0000       2.048164        55.7334 
 343   0.0000       2.063521        56.1513 
 344   0.0000       2.097694        57.0812 
 345   0.0000       2.101092        57.1736 
 346   0.0000       2.111104        57.4461 
 347   0.0000       2.135770        58.1172 
 348   0.0000       2.142992        58.3138 
 349   0.0000       2.147376        58.4331 
 350   0.0000       2.185092        59.4594 
 351   0.0000       2.190109        59.5959 
 352   0.0000       2.207514        60.0695 
 353   0.0000       2.220049        60.4106 
 354   0.0000       2.225869        60.5690 
 355   0.0000       2.251328        61.2618 
 356   0.0000       2.277365        61.9703 
 357   0.0000       2.280541        62.0567 
 358   0.0000       2.289882        62.3109 
 359   0.0000       2.301766        62.6342 
 360   0.0000       2.315919        63.0194 
 361   0.0000       2.328369        63.3581 
 362   0.0000       2.345235        63.8171 
 363   0.0000       2.352143        64.0051 
 364   0.0000       2.357115        64.1404 
 365   0.0000       2.366102        64.3849 
 366   0.0000       2.376731        64.6741 
 367   0.0000       2.401294        65.3425 
 368   0.0000       2.408594        65.5412 
 369   0.0000       2.423135        65.9368 
 370   0.0000       2.439788        66.3900 
 371   0.0000       2.447016        66.5867 
 372   0.0000       2.459771        66.9338 
 373   0.0000       2.483567        67.5813 
 374   0.0000       2.499157        68.0055 
 375   0.0000       2.503255        68.1170 
 376   0.0000       2.506044        68.1929 
 377   0.0000       2.517913        68.5159 
 378   0.0000       2.524345        68.6909 
 379   0.0000       2.537088        69.0377 
 380   0.0000       2.543621        69.2154 
 381   0.0000       2.563370        69.7529 
 382   0.0000       2.570622        69.9502 
 383   0.0000       2.589887        70.4744 
 384   0.0000       2.612329        71.0851 
 385   0.0000       2.621855        71.3443 
 386   0.0000       2.636248        71.7360 
 387   0.0000       2.645190        71.9793 
 388   0.0000       2.654417        72.2304 
 389   0.0000       2.673028        72.7368 
 390   0.0000       2.681445        72.9658 
 391   0.0000       2.687999        73.1442 
 392   0.0000       2.692944        73.2787 
 393   0.0000       2.698253        73.4232 
 394   0.0000       2.720189        74.0201 
 395   0.0000       2.723010        74.0969 
 396   0.0000       2.734260        74.4030 
 397   0.0000       2.747356        74.7593 
 398   0.0000       2.755021        74.9679 
 399   0.0000       2.767551        75.3089 
 400   0.0000       2.774487        75.4976 
 401   0.0000       2.782147        75.7061 
 402   0.0000       2.796341        76.0923 
 403   0.0000       2.797245        76.1169 
 404   0.0000       2.806209        76.3608 
 405   0.0000       2.822850        76.8137 
 406   0.0000       2.832293        77.0706 
 407   0.0000       2.840035        77.2813 
 408   0.0000       2.860655        77.8424 
 409   0.0000       2.874529        78.2199 
 410   0.0000       2.876225        78.2661 
 411   0.0000       2.886802        78.5539 
 412   0.0000       2.891512        78.6820 
 413   0.0000       2.912202        79.2450 
 414   0.0000       2.917644        79.3931 
 415   0.0000       2.918349        79.4123 
 416   0.0000       2.924241        79.5726 
 417   0.0000       2.930079        79.7315 
 418   0.0000       2.944018        80.1108 
 419   0.0000       2.956976        80.4634 
 420   0.0000       2.964195        80.6599 
 421   0.0000       2.970994        80.8449 
 422   0.0000       2.975173        80.9586 
 423   0.0000       2.986334        81.2623 
 424   0.0000       3.002216        81.6945 
 425   0.0000       3.010475        81.9192 
 426   0.0000       3.019240        82.1577 
 427   0.0000       3.021454        82.2179 
 428   0.0000       3.029248        82.4300 
 429   0.0000       3.037771        82.6619 
 430   0.0000       3.046153        82.8900 
 431   0.0000       3.056882        83.1820 
 432   0.0000       3.066046        83.4314 
 433   0.0000       3.070517        83.5530 
 434   0.0000       3.081014        83.8387 
 435   0.0000       3.088322        84.0375 
 436   0.0000       3.092538        84.1522 
 437   0.0000       3.096907        84.2711 
 438   0.0000       3.101413        84.3938 
 439   0.0000       3.108110        84.5760 
 440   0.0000       3.115555        84.7786 
 441   0.0000       3.117364        84.8278 
 442   0.0000       3.131900        85.2233 
 443   0.0000       3.137142        85.3660 
 444   0.0000       3.141605        85.4874 
 445   0.0000       3.152543        85.7850 
 446   0.0000       3.155171        85.8566 
 447   0.0000       3.166908        86.1760 
 448   0.0000       3.171274        86.2948 
 449   0.0000       3.178213        86.4836 
 450   0.0000       3.194707        86.9324 
 451   0.0000       3.208287        87.3019 
 452   0.0000       3.211384        87.3862 
 453   0.0000       3.214712        87.4768 
 454   0.0000       3.224385        87.7400 
 455   0.0000       3.232521        87.9614 
 456   0.0000       3.240680        88.1834 
 457   0.0000       3.255873        88.5968 
 458   0.0000       3.260590        88.7252 
 459   0.0000       3.269447        88.9662 
 460   0.0000       3.271684        89.0271 
 461   0.0000       3.273901        89.0874 
 462   0.0000       3.283755        89.3555 
 463   0.0000       3.293575        89.6227 
 464   0.0000       3.297254        89.7229 
 465   0.0000       3.298108        89.7461 
 466   0.0000       3.303404        89.8902 
 467   0.0000       3.308733        90.0352 
 468   0.0000       3.323397        90.4342 
 469   0.0000       3.332477        90.6813 
 470   0.0000       3.336115        90.7803 
 471   0.0000       3.345577        91.0378 
 472   0.0000       3.347232        91.0828 
 473   0.0000       3.351310        91.1938 
 474   0.0000       3.359733        91.4230 
 475   0.0000       3.369769        91.6961 
 476   0.0000       3.378075        91.9221 
 477   0.0000       3.384135        92.0870 
 478   0.0000       3.388425        92.2037 
 479   0.0000       3.390998        92.2737 
 480   0.0000       3.394177        92.3603 
 481   0.0000       3.400171        92.5233 
 482   0.0000       3.408709        92.7557 
 483   0.0000       3.410130        92.7943 
 484   0.0000       3.417992        93.0083 
 485   0.0000       3.423266        93.1518 
 486   0.0000       3.430064        93.3368 
 487   0.0000       3.435464        93.4837 
 488   0.0000       3.444259        93.7231 
 489   0.0000       3.446997        93.7976 
 490   0.0000       3.454065        93.9899 
 491   0.0000       3.461251        94.1854 
 492   0.0000       3.461937        94.2041 
 493   0.0000       3.468103        94.3719 
 494   0.0000       3.476679        94.6052 
 495   0.0000       3.485129        94.8352 
 496   0.0000       3.487560        94.9013 
 497   0.0000       3.489876        94.9644 
 498   0.0000       3.495284        95.1115 
 499   0.0000       3.508298        95.4656 
 500   0.0000       3.518544        95.7444 
 501   0.0000       3.522189        95.8436 
 502   0.0000       3.525940        95.9457 
 503   0.0000       3.537513        96.2606 
 504   0.0000       3.539959        96.3272 
 505   0.0000       3.546893        96.5159 
 506   0.0000       3.557293        96.7989 
 507   0.0000       3.562121        96.9302 
 508   0.0000       3.566445        97.0479 
 509   0.0000       3.579411        97.4007 
 510   0.0000       3.592015        97.7437 
 511   0.0000       3.597594        97.8955 
 512   0.0000       3.607862        98.1749 
 513   0.0000       3.613886        98.3388 
 514   0.0000       3.619111        98.4810 
 515   0.0000       3.625493        98.6547 
 516   0.0000       3.627893        98.7200 
 517   0.0000       3.633919        98.8840 
 518   0.0000       3.635801        98.9352 
 519   0.0000       3.638509        99.0089 
 520   0.0000       3.646643        99.2302 
 521   0.0000       3.657331        99.5210 
 522   0.0000       3.666419        99.7683 
 523   0.0000       3.668706        99.8306 
 524   0.0000       3.676494       100.0425 
 525   0.0000       3.680538       100.1525 
 526   0.0000       3.682989       100.2192 
 527   0.0000       3.690968       100.4364 
 528   0.0000       3.696488       100.5865 
 529   0.0000       3.705186       100.8232 
 530   0.0000       3.709190       100.9322 
 531   0.0000       3.720561       101.2416 
 532   0.0000       3.723266       101.3152 
 533   0.0000       3.729089       101.4737 
 534   0.0000       3.742465       101.8376 
 535   0.0000       3.747736       101.9811 
 536   0.0000       3.755552       102.1938 
 537   0.0000       3.758795       102.2820 
 538   0.0000       3.769669       102.5779 
 539   0.0000       3.772486       102.6546 
 540   0.0000       3.778532       102.8191 
 541   0.0000       3.788223       103.0828 
 542   0.0000       3.799228       103.3822 
 543   0.0000       3.800351       103.4128 
 544   0.0000       3.815121       103.8147 
 545   0.0000       3.818570       103.9086 
 546   0.0000       3.824282       104.0640 
 547   0.0000       3.825734       104.1035 
 548   0.0000       3.831572       104.2624 
 549   0.0000       3.835692       104.3745 
 550   0.0000       3.844658       104.6185 
 551   0.0000       3.855747       104.9202 
 552   0.0000       3.865334       105.1811 
 553   0.0000       3.868144       105.2575 
 554   0.0000       3.873085       105.3920 
 555   0.0000       3.880217       105.5861 
 556   0.0000       3.885616       105.7330 
 557   0.0000       3.901237       106.1581 
 558   0.0000       3.913602       106.4945 
 559   0.0000       3.926842       106.8548 
 560   0.0000       3.937490       107.1445 
 561   0.0000       3.943651       107.3122 
 562   0.0000       3.955501       107.6347 
 563   0.0000       3.968080       107.9769 
 564   0.0000       3.983679       108.4014 
 565   0.0000       3.989818       108.5685 
 566   0.0000       3.998863       108.8146 
 567   0.0000       4.004590       108.9704 
 568   0.0000       4.008018       109.0637 
 569   0.0000       4.024427       109.5102 
 570   0.0000       4.029539       109.6493 
 571   0.0000       4.041379       109.9715 
 572   0.0000       4.048660       110.1696 
 573   0.0000       4.057633       110.4138 
 574   0.0000       4.065835       110.6370 
 575   0.0000       4.078385       110.9785 
 576   0.0000       4.086917       111.2107 
 577   0.0000       4.091262       111.3289 
 578   0.0000       4.103108       111.6512 
 579   0.0000       4.104947       111.7013 
 580   0.0000       4.114330       111.9566 
 581   0.0000       4.130429       112.3947 
 582   0.0000       4.134090       112.4943 
 583   0.0000       4.139102       112.6307 
 584   0.0000       4.147742       112.8658 
 585   0.0000       4.154420       113.0475 
 586   0.0000       4.155993       113.0903 
 587   0.0000       4.168069       113.4189 
 588   0.0000       4.175429       113.6192 
 589   0.0000       4.177917       113.6869 
 590   0.0000       4.181193       113.7760 
 591   0.0000       4.190823       114.0381 
 592   0.0000       4.197693       114.2250 
 593   0.0000       4.200822       114.3102 
 594   0.0000       4.207799       114.5000 
 595   0.0000       4.214828       114.6913 
 596   0.0000       4.219883       114.8289 
 597   0.0000       4.226309       115.0037 
 598   0.0000       4.227347       115.0319 
 599   0.0000       4.235577       115.2559 
 600   0.0000       4.241734       115.4234 
 601   0.0000       4.252275       115.7103 
 602   0.0000       4.258120       115.8693 
 603   0.0000       4.267777       116.1321 
 604   0.0000       4.275690       116.3474 
 605   0.0000       4.285803       116.6226 
 606   0.0000       4.300019       117.0095 
 607   0.0000       4.308133       117.2303 
 608   0.0000       4.322523       117.6218 
 609   0.0000       4.329459       117.8106 
 610   0.0000       4.331988       117.8794 
 611   0.0000       4.337172       118.0205 
 612   0.0000       4.342800       118.1736 
 613   0.0000       4.346525       118.2750 
 614   0.0000       4.356007       118.5330 
 615   0.0000       4.380025       119.1865 
 616   0.0000       4.384641       119.3121 
 617   0.0000       4.390928       119.4832 
 618   0.0000       4.393888       119.5638 
 619   0.0000       4.407417       119.9319 
 620   0.0000       4.413635       120.1011 
 621   0.0000       4.425148       120.4144 
 622   0.0000       4.434220       120.6613 
 623   0.0000       4.437127       120.7404 
 624   0.0000       4.446299       120.9900 
 625   0.0000       4.460292       121.3707 
 626   0.0000       4.468207       121.5861 
 627   0.0000       4.472383       121.6997 
 628   0.0000       4.478620       121.8694 
 629   0.0000       4.482025       121.9621 
 630   0.0000       4.495333       122.3242 
 631   0.0000       4.504174       122.5648 
 632   0.0000       4.513659       122.8229 
 633   0.0000       4.525649       123.1492 
 634   0.0000       4.538881       123.5092 
 635   0.0000       4.545947       123.7015 
 636   0.0000       4.552767       123.8871 
 637   0.0000       4.562712       124.1577 
 638   0.0000       4.568582       124.3174 
 639   0.0000       4.569722       124.3484 
 640   0.0000       4.580416       124.6394 
 641   0.0000       4.584725       124.7567 
 642   0.0000       4.594418       125.0205 
 643   0.0000       4.607332       125.3719 
 644   0.0000       4.613096       125.5287 
 645   0.0000       4.620905       125.7412 
 646   0.0000       4.626615       125.8966 
 647   0.0000       4.634690       126.1163 
 648   0.0000       4.645436       126.4087 
 649   0.0000       4.653989       126.6415 
 650   0.0000       4.660704       126.8242 
 651   0.0000       4.662906       126.8841 
 652   0.0000       4.673194       127.1641 
 653   0.0000       4.688702       127.5861 
 654   0.0000       4.695889       127.7816 
 655   0.0000       4.701574       127.9363 
 656   0.0000       4.708477       128.1242 
 657   0.0000       4.727373       128.6384 
 658   0.0000       4.742431       129.0481 
 659   0.0000       4.745463       129.1306 
 660   0.0000       4.761132       129.5570 
 661   0.0000       4.774163       129.9116 
 662   0.0000       4.787645       130.2784 
 663   0.0000       4.793326       130.4330 
 664   0.0000       4.807179       130.8100 
 665   0.0000       4.814425       131.0072 
 666   0.0000       4.825319       131.3036 
 667   0.0000       4.848530       131.9352 
 668   0.0000       4.883515       132.8872 
 669   0.0000       4.890224       133.0698 
 670   0.0000       4.910962       133.6341 
 671   0.0000       4.920688       133.8987 
 672   0.0000       4.944697       134.5520 
 673   0.0000       4.953107       134.7809 
 674   0.0000       4.993656       135.8843 
 675   0.0000       5.009421       136.3133 
 676   0.0000       5.015000       136.4651 
 677   0.0000       5.028897       136.8432 
 678   0.0000       5.039656       137.1360 
 679   0.0000       5.049747       137.4106 
 680   0.0000       5.056310       137.5892 
 681   0.0000       5.059344       137.6717 
 682   0.0000       5.069916       137.9594 
 683   0.0000       5.080361       138.2437 
 684   0.0000       5.083335       138.3246 
 685   0.0000       5.103838       138.8825 
 686   0.0000       5.114313       139.1675 
 687   0.0000       5.133175       139.6808 
 688   0.0000       5.155443       140.2867 
 689   0.0000       5.162936       140.4906 
 690   0.0000       5.172228       140.7435 
 691   0.0000       5.183693       141.0555 
 692   0.0000       5.191942       141.2799 
 693   0.0000       5.204467       141.6207 
 694   0.0000       5.206903       141.6870 
 695   0.0000       5.212339       141.8350 
 696   0.0000       5.224123       142.1556 
 697   0.0000       5.226441       142.2187 
 698   0.0000       5.232887       142.3941 
 699   0.0000       5.247784       142.7995 
 700   0.0000       5.273990       143.5126 
 701   0.0000       5.282119       143.7338 
 702   0.0000       5.294629       144.0742 
 703   0.0000       5.313790       144.5956 
 704   0.0000       5.321066       144.7936 
 705   0.0000       5.324891       144.8977 
 706   0.0000       5.344148       145.4217 
 707   0.0000       5.361553       145.8953 
 708   0.0000       5.365947       146.0148 
 709   0.0000       5.387732       146.6076 
 710   0.0000       5.413499       147.3088 
 711   0.0000       5.434696       147.8856 
 712   0.0000       5.442429       148.0960 
 713   0.0000       5.454956       148.4369 
 714   0.0000       5.473150       148.9320 
 715   0.0000       5.478513       149.0779 
 716   0.0000       5.490099       149.3932 
 717   0.0000       5.511755       149.9825 
 718   0.0000       5.521640       150.2515 
 719   0.0000       5.529430       150.4634 
 720   0.0000       5.544789       150.8814 
 721   0.0000       5.551353       151.0600 
 722   0.0000       5.557859       151.2370 
 723   0.0000       5.565128       151.4348 
 724   0.0000       5.579777       151.8335 
 725   0.0000       5.588594       152.0734 
 726   0.0000       5.596751       152.2953 
 727   0.0000       5.623499       153.0232 
 728   0.0000       5.630953       153.2260 
 729   0.0000       5.648307       153.6982 
 730   0.0000       5.660770       154.0374 
 731   0.0000       5.675947       154.4504 
 732   0.0000       5.683111       154.6453 
 733   0.0000       5.694220       154.9476 
 734   0.0000       5.703469       155.1993 
 735   0.0000       5.711687       155.4229 
 736   0.0000       5.724241       155.7645 
 737   0.0000       5.753844       156.5701 
 738   0.0000       5.755478       156.6145 
 739   0.0000       5.766012       156.9012 
 740   0.0000       5.791408       157.5922 
 741   0.0000       5.795505       157.7037 
 742   0.0000       5.804459       157.9474 
 743   0.0000       5.823901       158.4764 
 744   0.0000       5.827588       158.5767 
 745   0.0000       5.846921       159.1028 
 746   0.0000       5.876041       159.8952 
 747   0.0000       5.906695       160.7293 
 748   0.0000       5.919076       161.0662 
 749   0.0000       5.935366       161.5095 
 750   0.0000       5.953436       162.0012 
 751   0.0000       5.969885       162.4488 
 752   0.0000       5.978016       162.6701 
 753   0.0000       5.980048       162.7254 
 754   0.0000       6.034313       164.2020 
 755   0.0000       6.041336       164.3931 
 756   0.0000       6.054230       164.7440 
 757   0.0000       6.072434       165.2393 
 758   0.0000       6.087206       165.6413 
 759   0.0000       6.109319       166.2430 
 760   0.0000       6.132146       166.8642 
 761   0.0000       6.156904       167.5379 
 762   0.0000       6.170736       167.9143 
 763   0.0000       6.200598       168.7268 
 764   0.0000       6.236301       169.6984 
 765   0.0000       6.282445       170.9540 
 766   0.0000       6.294226       171.2746 
 767   0.0000       6.326548       172.1541 
 768   0.0000       6.344509       172.6429 
 769   0.0000       6.349329       172.7740 
 770   0.0000       6.357005       172.9829 
 771   0.0000       6.379801       173.6032 
 772   0.0000       6.394429       174.0013 
 773   0.0000       6.462618       175.8568 
 774   0.0000       6.464355       175.9040 
 775   0.0000       6.496660       176.7831 
 776   0.0000       6.508602       177.1081 
 777   0.0000       6.534764       177.8200 
 778   0.0000       6.548830       178.2027 
 779   0.0000       6.571427       178.8176 
 780   0.0000       6.632918       180.4909 
 781   0.0000       6.687386       181.9730 
 782   0.0000       6.699308       182.2974 
 783   0.0000       6.741393       183.4426 
 784   0.0000       6.752142       183.7351 
 785   0.0000       6.879017       187.1876 
 786   0.0000       6.912185       188.0901 
 787   0.0000       6.915170       188.1713 
 788   0.0000       6.918315       188.2569 
 789   0.0000       7.046901       191.7559 
 790   0.0000       7.055278       191.9839 
 791   0.0000       7.075917       192.5455 
 792   0.0000       7.080221       192.6626 
 793   0.0000       7.104281       193.3173 
 794   0.0000       7.249109       197.2583 
 795   0.0000       7.255769       197.4395 
 796   0.0000       7.280188       198.1040 
 797   0.0000       7.314591       199.0402 
 798   0.0000       7.345906       199.8923 
 799   0.0000       7.363293       200.3654 
 800   0.0000       7.459662       202.9877 
 801   0.0000       7.481162       203.5728 
 802   0.0000       7.582631       206.3339 
 803   0.0000       7.592144       206.5927 
 804   0.0000       7.697658       209.4639 
 805   0.0000       7.824266       212.9091 
 806   0.0000       7.863505       213.9768 
 807   0.0000       7.930747       215.8066 
 808   0.0000       7.972850       216.9523 
 809   0.0000       9.411692       256.1052 
 810   0.0000       9.593544       261.0536 
 811   0.0000      10.577201       287.8203 
 812   0.0000      11.325796       308.1906 
 813   0.0000      11.979652       325.9829 
 814   0.0000      12.690446       345.3246 
 815   0.0000      12.922760       351.6462 
 816   0.0000      12.989199       353.4541 
 817   0.0000      13.164349       358.2201 
 818   0.0000      13.234482       360.1286 
 819   0.0000      13.383887       364.1941 
 820   0.0000      13.431698       365.4951 
 821   0.0000      13.734243       373.7278 
 822   0.0000      13.837677       376.5423 
 823   0.0000      14.030654       381.7935 
 824   0.0000      14.055628       382.4731 
 825   0.0000      14.267394       388.2355 
 826   0.0000      14.669946       399.1895 
 827   0.0000      15.999763       435.3757 

                    ********************************
                    * MULLIKEN POPULATION ANALYSIS *
                    ********************************

-----------------------
MULLIKEN ATOMIC CHARGES
-----------------------
   0 C :   -0.280313
   1 C :    0.042686
   2 O :   -0.326366
   3 C :    0.456602
   4 O :   -0.436596
   5 C :   -0.150964
   6 C :    0.120957
   7 C :   -0.268046
   8 N :   -0.147396
   9 C :    0.213486
  10 S :   -0.433388
  11 N :   -0.203870
  12 C :    0.014232
  13 C :    0.064863
  14 C :   -0.210118
  15 C :   -0.137205
  16 C :   -0.272514
  17 C :    0.294660
  18 O :   -0.363566
  19 C :   -0.214724
  20 H :    0.095846
  21 H :    0.104031
  22 H :    0.102657
  23 H :    0.095088
  24 H :    0.093646
  25 H :    0.137949
  26 H :    0.126613
  27 H :    0.092345
  28 H :    0.197752
  29 H :    0.203992
  30 H :    0.129043
  31 H :    0.147423
  32 H :    0.164104
  33 H :    0.132841
  34 H :    0.241868
  35 H :    0.172381
Sum of atomic charges:   -0.0000000

--------------------------------
MULLIKEN REDUCED ORBITAL CHARGES
--------------------------------
  0 C s       :     3.255134  s :     3.255134
      pz      :     1.002636  p :     2.946379
      px      :     1.019330
      py      :     0.924413
      dz2     :     0.024465  d :     0.074299
      dxz     :     0.006921
      dyz     :     0.012326
      dx2y2   :     0.011876
      dxy     :     0.018712
      f0      :     0.001284  f :     0.004501
      f+1     :     0.000144
      f-1     :     0.000572
      f+2     :     0.000636
      f-2     :     0.000199
      f+3     :     0.000343
      f-3     :     0.001324
  1 C s       :     3.172874  s :     3.172874
      pz      :     0.961482  p :     2.623528
      px      :     0.772834
      py      :     0.889212
      dz2     :     0.038723  d :     0.149226
      dxz     :     0.018752
      dyz     :     0.021032
      dx2y2   :     0.028823
      dxy     :     0.041896
      f0      :     0.001653  f :     0.011686
      f+1     :     0.001575
      f-1     :     0.001081
      f+2     :     0.001421
      f-2     :     0.001589
      f+3     :     0.002126
      f-3     :     0.002240
  2 O s       :     3.707040  s :     3.707040
      pz      :     1.717152  p :     4.581690
      px      :     1.530708
      py      :     1.333830
      dz2     :     0.004125  d :     0.035336
      dxz     :     0.005709
      dyz     :     0.007354
      dx2y2   :     0.012387
      dxy     :     0.005762
      f0      :     0.000267  f :     0.002299
      f+1     :     0.000141
      f-1     :     0.000284
      f+2     :     0.000350
      f-2     :     0.000286
      f+3     :     0.000423
      f-3     :     0.000548
  3 C s       :     3.060266  s :     3.060266
      pz      :     0.696372  p :     2.154629
      px      :     0.783667
      py      :     0.674590
      dz2     :     0.061565  d :     0.302080
      dxz     :     0.039057
      dyz     :     0.061370
      dx2y2   :     0.084970
      dxy     :     0.055118
      f0      :     0.002608  f :     0.026422
      f+1     :     0.003009
      f-1     :     0.003780
      f+2     :     0.005154
      f-2     :     0.003298
      f+3     :     0.004655
      f-3     :     0.003918
  4 O s       :     3.767827  s :     3.767827
      pz      :     1.408852  p :     4.631480
      px      :     1.543447
      py      :     1.679181
      dz2     :     0.009455  d :     0.034884
      dxz     :     0.007981
      dyz     :     0.006392
      dx2y2   :     0.004075
      dxy     :     0.006981
      f0      :     0.000289  f :     0.002404
      f+1     :     0.000413
      f-1     :     0.000324
      f+2     :     0.000320
      f-2     :     0.000600
      f+3     :     0.000205
      f-3     :     0.000253
  5 C s       :     3.174478  s :     3.174478
      pz      :     0.981109  p :     2.890725
      px      :     0.983337
      py      :     0.926278
      dz2     :     0.015363  d :     0.075403
      dxz     :     0.009110
      dyz     :     0.022168
      dx2y2   :     0.013277
      dxy     :     0.015486
      f0      :     0.000991  f :     0.010358
      f+1     :     0.001269
      f-1     :     0.001333
      f+2     :     0.001308
      f-2     :     0.002125
      f+3     :     0.001179
      f-3     :     0.002153
  6 C s       :     3.208501  s :     3.208501
      pz      :     0.894207  p :     2.482268
      px      :     0.753853
      py      :     0.834208
      dz2     :     0.028071  d :     0.173985
      dxz     :     0.028698
      dyz     :     0.043641
      dx2y2   :     0.045441
      dxy     :     0.028133
      f0      :     0.001387  f :     0.014289
      f+1     :     0.001455
      f-1     :     0.002311
      f+2     :     0.002505
      f-2     :     0.002756
      f+3     :     0.001585
      f-3     :     0.002289
  7 C s       :     3.267873  s :     3.267873
      pz      :     0.934735  p :     2.925353
      px      :     1.019374
      py      :     0.971244
      dz2     :     0.016685  d :     0.070145
      dxz     :     0.008297
      dyz     :     0.017780
      dx2y2   :     0.006319
      dxy     :     0.021064
      f0      :     0.000306  f :     0.004675
      f+1     :     0.000438
      f-1     :     0.001560
      f+2     :     0.000536
      f-2     :     0.000898
      f+3     :     0.000363
      f-3     :     0.000572
  8 N s       :     3.358507  s :     3.358507
      pz      :     1.063635  p :     3.724616
      px      :     1.425933
      py      :     1.235048
      dz2     :     0.017989  d :     0.059480
      dxz     :     0.012646
      dyz     :     0.014339
      dx2y2   :     0.007902
      dxy     :     0.006604
      f0      :     0.001128  f :     0.004793
      f+1     :     0.000861
      f-1     :     0.000755
      f+2     :     0.000424
      f-2     :     0.000673
      f+3     :     0.000544
      f-3     :     0.000408
  9 C s       :     3.154509  s :     3.154509
      pz      :     0.804922  p :     2.357792
      px      :     0.715925
      py      :     0.836945
      dz2     :     0.069723  d :     0.256833
      dxz     :     0.045260
      dyz     :     0.051367
      dx2y2   :     0.049776
      dxy     :     0.040706
      f0      :     0.003386  f :     0.017380
      f+1     :     0.002818
      f-1     :     0.003190
      f+2     :     0.001727
      f-2     :     0.001721
      f+3     :     0.001692
      f-3     :     0.002846
 10 S s       :     5.855654  s :     5.855654
      pz      :     3.535648  p :    10.482474
      px      :     3.470504
      py      :     3.476322
      dz2     :     0.005682  d :     0.085138
      dxz     :     0.018468
      dyz     :     0.032301
      dx2y2   :     0.011637
      dxy     :     0.017050
      f0      :     0.001135  f :     0.010122
      f+1     :     0.000697
      f-1     :     0.001602
      f+2     :     0.001682
      f-2     :     0.003162
      f+3     :     0.000882
      f-3     :     0.000962
 11 N s       :     3.385728  s :     3.385728
      pz      :     1.088704  p :     3.756439
      px      :     1.584593
      py      :     1.083143
      dz2     :     0.014542  d :     0.057190
      dxz     :     0.005193
      dyz     :     0.017375
      dx2y2   :     0.009663
      dxy     :     0.010417
      f0      :     0.000598  f :     0.004513
      f+1     :     0.000214
      f-1     :     0.000743
      f+2     :     0.000683
      f-2     :     0.000617
      f+3     :     0.000896
      f-3     :     0.000762
 12 C s       :     3.181152  s :     3.181152
      pz      :     0.820689  p :     2.617947
      px      :     0.995863
      py      :     0.801396
      dz2     :     0.031923  d :     0.175398
      dxz     :     0.035176
      dyz     :     0.041437
      dx2y2   :     0.030308
      dxy     :     0.036554
      f0      :     0.001196  f :     0.011270
      f+1     :     0.000862
      f-1     :     0.001970
      f+2     :     0.002396
      f-2     :     0.002339
      f+3     :     0.001418
      f-3     :     0.001090
 13 C s       :     3.102382  s :     3.102382
      pz      :     0.909891  p :     2.709254
      px      :     0.906897
      py      :     0.892466
      dz2     :     0.022620  d :     0.112214
      dxz     :     0.010666
      dyz     :     0.027519
      dx2y2   :     0.026961
      dxy     :     0.024446
      f0      :     0.001237  f :     0.011287
      f+1     :     0.001676
      f-1     :     0.000967
[...]
      f-1     :     0.007603
      f+2     :     0.004821
      f-2     :     0.006338
      f+3     :     0.006443
      f-3     :     0.010149
 15 C s       :     2.705494  s :     2.705494
      pz      :     0.898378  p :     2.792656
      px      :     0.915694
      py      :     0.978584
      dz2     :     0.089151  d :     0.416493
      dxz     :     0.056981
      dyz     :     0.076617
      dx2y2   :     0.090140
      dxy     :     0.103604
      f0      :     0.003890  f :     0.041098
      f+1     :     0.004616
      f-1     :     0.006169
      f+2     :     0.005634
      f-2     :     0.007545
      f+3     :     0.006434
      f-3     :     0.006811
 16 C s       :     2.701608  s :     2.701608
      pz      :     0.943333  p :     2.867084
      px      :     0.958034
      py      :     0.965716
      dz2     :     0.055693  d :     0.390466
      dxz     :     0.053931
      dyz     :     0.090189
      dx2y2   :     0.091685
      dxy     :     0.098968
      f0      :     0.005125  f :     0.040336
      f+1     :     0.004476
      f-1     :     0.003662
      f+2     :     0.004914
      f-2     :     0.007868
      f+3     :     0.006204
      f-3     :     0.008087
 17 C s       :     2.701946  s :     2.701946
      pz      :     0.816678  p :     2.682195
      px      :     0.818189
      py      :     1.047328
      dz2     :     0.137725  d :     0.709355
      dxz     :     0.115091
      dyz     :     0.140004
      dx2y2   :     0.163612
      dxy     :     0.152923
      f0      :     0.011750  f :     0.099308
      f+1     :     0.015843
      f-1     :     0.010612
      f+2     :     0.013050
      f-2     :     0.018118
      f+3     :     0.012237
      f-3     :     0.017699
 18 O s       :     3.176934  s :     3.176934
      pz      :     1.462036  p :     4.346785
      px      :     1.465875
      py      :     1.418873
      dz2     :     0.012229  d :     0.075601
      dxz     :     0.018659
      dyz     :     0.013148
      dx2y2   :     0.021303
      dxy     :     0.010263
      f0      :     0.000546  f :     0.005068
      f+1     :     0.000943
      f-1     :     0.000331
      f+2     :     0.001047
      f-2     :     0.000741
      f+3     :     0.000613
      f-3     :     0.000847
 19 C s       :     2.696082  s :     2.696082
      pz      :     0.937532  p :     2.847656
      px      :     0.941153
      py      :     0.968972
      dz2     :     0.069340  d :     0.386930
      dxz     :     0.056721
      dyz     :     0.078369
      dx2y2   :     0.082783
      dxy     :     0.099717
      f0      :     0.003886  f :     0.040648
      f+1     :     0.004683
      f-1     :     0.005636
      f+2     :     0.005901
      f-2     :     0.007893
      f+3     :     0.006321
      f-3     :     0.006328
 20 H s       :     0.848986  s :     0.848986
      pz      :     0.040079  p :     0.151055
      px      :     0.063541
      py      :     0.047436
      dz2     :     0.003131  d :     0.027560
      dxz     :     0.006256
      dyz     :     0.002497
      dx2y2   :     0.008217
      dxy     :     0.007458
 21 H s       :     0.847673  s :     0.847673
      pz      :     0.043817  p :     0.151004
      px      :     0.059109
      py      :     0.048078
      dz2     :     0.004539  d :     0.027384
      dxz     :     0.005254
      dyz     :     0.003237
      dx2y2   :     0.007786
      dxy     :     0.006567
 22 H s       :     0.847043  s :     0.847043
      pz      :     0.074804  p :     0.152795
      px      :     0.039828
      py      :     0.038162
      dz2     :     0.009303  d :     0.027615
      dxz     :     0.009049
      dyz     :     0.008804
      dx2y2   :     0.000116
      dxy     :     0.000343
 23 H s       :     0.857511  s :     0.857511
      pz      :     0.080307  p :     0.144999
      px      :     0.028228
      py      :     0.036464
      dz2     :     0.010460  d :     0.026980
      dxz     :     0.007077
      dyz     :     0.009026
      dx2y2   :     0.000077
      dxy     :     0.000340
 24 H s       :     0.856833  s :     0.856833
      pz      :     0.037793  p :     0.144866
      px      :     0.060526
      py      :     0.046547
      dz2     :     0.003674  d :     0.026968
      dxz     :     0.006148
      dyz     :     0.002398
      dx2y2   :     0.007195
      dxy     :     0.007552
 25 H s       :     0.823260  s :     0.823260
      pz      :     0.038663  p :     0.151570
      px      :     0.069922
      py      :     0.042984
      dz2     :     0.002751  d :     0.027729
      dxz     :     0.006796
      dyz     :     0.002228
      dx2y2   :     0.007569
      dxy     :     0.008386
 26 H s       :     0.829542  s :     0.829542
      pz      :     0.060625  p :     0.149939
      px      :     0.040196
      py      :     0.049118
      dz2     :     0.008385  d :     0.027723
      dxz     :     0.006101
      dyz     :     0.007274
      dx2y2   :     0.002264
      dxy     :     0.003698
 27 H s       :     0.845610  s :     0.845610
      pz      :     0.039333  p :     0.150605
      px      :     0.052504
      py      :     0.058769
      dz2     :     0.002671  d :     0.027692
      dxz     :     0.003838
      dyz     :     0.005957
      dx2y2   :     0.008766
      dxy     :     0.006461
 28 H s       :     0.744829  s :     0.744829
      pz      :     0.051856  p :     0.252601
      px      :     0.083240
      py      :     0.117505
      dz2     :     0.007532  d :     0.061681
      dxz     :     0.005229
      dyz     :     0.013730
      dx2y2   :     0.018667
      dxy     :     0.016522
 29 H s       :     0.750771  s :     0.750771
      pz      :     0.119815  p :     0.257626
      px      :     0.088261
      py      :     0.049551
      dz2     :     0.020737  d :     0.061193
      dxz     :     0.022503
      dyz     :     0.015954
      dx2y2   :     0.000732
      dxy     :     0.001268
 30 H s       :     0.832552  s :     0.832552
      pz      :     0.043636  p :     0.154235
      px      :     0.075006
      py      :     0.035593
      dz2     :     0.003670  d :     0.029481
      dxz     :     0.008518
      dyz     :     0.002410
      dx2y2   :     0.007163
      dxy     :     0.007720
 31 H s       :     0.844293  s :     0.844293
      pz      :     0.060901  p :     0.157473
      px      :     0.064614
      py      :     0.031958
      dz2     :     0.006490  d :     0.027542
      dxz     :     0.007500
      dyz     :     0.003853
      dx2y2   :     0.004683
      dxy     :     0.005016
 32 H s       :     0.842524  s :     0.842524
      pz      :     0.038878  p :     0.151325
      px      :     0.044658
      py      :     0.067789
      dz2     :     0.002963  d :     0.026465
      dxz     :     0.001976
      dyz     :     0.006324
      dx2y2   :     0.007750
      dxy     :     0.007452
 33 H s       :     0.848422  s :     0.848422
      pz      :     0.050287  p :     0.159356
      px      :     0.043748
      py      :     0.065321
      dz2     :     0.004624  d :     0.027793
      dxz     :     0.002528
      dyz     :     0.007195
      dx2y2   :     0.006731
      dxy     :     0.006716
 34 H s       :     0.706296  s :     0.706296
      pz      :     0.094430  p :     0.347753
      px      :     0.084494
      py      :     0.168828
      dz2     :     0.014700  d :     0.099560
      dxz     :     0.004700
      dyz     :     0.028273
      dx2y2   :     0.024592
      dxy     :     0.027295
 35 H s       :     0.838459  s :     0.838459
      pz      :     0.042358  p :     0.158106
      px      :     0.047423
      py      :     0.068325
      dz2     :     0.003090  d :     0.027992
      dxz     :     0.002157
      dyz     :     0.006873
      dx2y2   :     0.008060
      dxy     :     0.007811


                      *****************************
                      * MAYER POPULATION ANALYSIS *
                      *****************************

  NA   - Mulliken gross atomic population
  ZA   - Total nuclear charge
  QA   - Mulliken gross atomic charge
  VA   - Mayer's total valence
  BVA  - Mayer's bonded valence
  FA   - Mayer's free valence

  ATOM       NA         ZA         QA         VA         BVA        FA
  0 C      6.2803     6.0000    -0.2803     3.8825     3.8825     0.0000
  1 C      5.9573     6.0000     0.0427     3.8740     3.8740     0.0000
  2 O      8.3264     8.0000    -0.3264     2.0770     2.0770    -0.0000
  3 C      5.5434     6.0000     0.4566     4.1988     4.1988    -0.0000
  4 O      8.4366     8.0000    -0.4366     2.0731     2.0731     0.0000
  5 C      6.1510     6.0000    -0.1510     3.6090     3.6090     0.0000
  6 C      5.8790     6.0000     0.1210     3.8688     3.8688     0.0000
  7 C      6.2680     6.0000    -0.2680     3.9079     3.9079     0.0000
  8 N      7.1474     7.0000    -0.1474     3.2944     3.2944     0.0000
  9 C      5.7865     6.0000     0.2135     4.1662     4.1662     0.0000
 10 S     16.4334    16.0000    -0.4334     1.7617     1.7617     0.0000
 11 N      7.2039     7.0000    -0.2039     3.2123     3.2123    -0.0000
 12 C      5.9858     6.0000     0.0142     3.9657     3.9657    -0.0000
 13 C      5.9351     6.0000     0.0649     3.7596     3.7596    -0.0000
 14 C      6.2101     6.0000    -0.2101     3.8887     3.8887     0.0000
 15 C      6.1372     6.0000    -0.1372     3.7996     3.7996     0.0000
 16 C      6.2725     6.0000    -0.2725     3.7916     3.7916    -0.0000
 17 C      5.7053     6.0000     0.2947     3.8571     3.8571    -0.0000
 18 O      8.3636     8.0000    -0.3636     2.1077     2.1077     0.0000
 19 C      6.2147     6.0000    -0.2147     3.8069     3.8069     0.0000
 20 H      0.9042     1.0000     0.0958     0.9856     0.9856     0.0000
 21 H      0.8960     1.0000     0.1040     0.9823     0.9823     0.0000
 22 H      0.8973     1.0000     0.1027     0.9759     0.9759    -0.0000
 23 H      0.9049     1.0000     0.0951     0.9820     0.9820     0.0000
 24 H      0.9064     1.0000     0.0936     0.9809     0.9809    -0.0000
 25 H      0.8621     1.0000     0.1379     0.9796     0.9796     0.0000
 26 H      0.8734     1.0000     0.1266     0.9822     0.9822     0.0000
 27 H      0.9077     1.0000     0.0923     0.9842     0.9842     0.0000
 28 H      0.8022     1.0000     0.1978     1.0213     1.0213     0.0000
 29 H      0.7960     1.0000     0.2040     1.0124     1.0124    -0.0000
 30 H      0.8710     1.0000     0.1290     0.9775     0.9775     0.0000
 31 H      0.8526     1.0000     0.1474     0.9879     0.9879     0.0000
 32 H      0.8359     1.0000     0.1641     0.9760     0.9760    -0.0000
 33 H      0.8672     1.0000     0.1328     0.9906     0.9906     0.0000
 34 H      0.7581     1.0000     0.2419     1.0094     1.0094     0.0000
 35 H      0.8276     1.0000     0.1724     0.9891     0.9891     0.0000

  Mayer bond orders larger than 0.100000
B(  0-C ,  1-C ) :   0.9715 B(  0-C , 20-H ) :   0.9747 B(  0-C , 21-H ) :   0.9810 
B(  0-C , 22-H ) :   0.9757 B(  1-C ,  2-O ) :   0.9070 B(  1-C , 23-H ) :   0.9799 
B(  1-C , 24-H ) :   0.9772 B(  2-O ,  3-C ) :   1.1883 B(  3-C ,  4-O ) :   1.9575 
B(  3-C ,  5-C ) :   1.0256 B(  5-C ,  6-C ) :   1.6897 B(  5-C , 12-C ) :   0.9284 
B(  6-C ,  7-C ) :   0.9741 B(  6-C ,  8-N ) :   1.1282 B(  7-C , 25-H ) :   0.9539 
B(  7-C , 26-H ) :   0.9674 B(  7-C , 27-H ) :   0.9858 B(  8-N ,  9-C ) :   1.1897 
B(  8-N , 28-H ) :   0.9510 B(  9-C , 10-S ) :   1.6140 B(  9-C , 11-N ) :   1.3050 
B( 11-N , 12-C ) :   0.9425 B( 11-N , 29-H ) :   0.9377 B( 12-C , 13-C ) :   1.0286 
B( 12-C , 30-H ) :   0.9934 B( 13-C , 14-C ) :   1.3729 B( 13-C , 19-C ) :   1.3324 
B( 14-C , 15-C ) :   1.3975 B( 14-C , 31-H ) :   0.9754 B( 15-C , 16-C ) :   1.3546 
B( 15-C , 32-H ) :   0.9706 B( 16-C , 17-C ) :   1.3365 B( 16-C , 33-H ) :   0.9848 
B( 17-C , 18-O ) :   1.0924 B( 17-C , 19-C ) :   1.3679 B( 18-O , 34-H ) :   0.9790 
B( 19-C , 35-H ) :   0.9563 

-------
TIMINGS
-------

Total SCF time: 0 days 1 hours 31 min 19 sec 

Total time                  ....    5479.228 sec
Sum of individual times     ....    5473.561 sec  ( 99.9%)

Fock matrix formation       ....    5462.135 sec  ( 99.7%)
Diagonalization             ....       1.174 sec  (  0.0%)
Density matrix formation    ....       0.210 sec  (  0.0%)
Population analysis         ....       0.255 sec  (  0.0%)
Initial guess               ....       4.779 sec  (  0.1%)
Orbital Transformation      ....       0.000 sec  (  0.0%)
Orbital Orthonormalization  ....       0.000 sec  (  0.0%)
DIIS solution               ....       1.889 sec  (  0.0%)
SOSCF solution              ....       1.888 sec  (  0.0%)

------------------------------------------------------------------------------
                                ORCA  MP2 
------------------------------------------------------------------------------

Freezing NCore=48 chemical core electrons

-------------
RI-MP2 ENERGY
-------------
Dimension of the basis                    ...  828
Memory devoted to MP2                     ...  256 MB   
Data format for buffers                   ... DOUBLE
Compression type for matrix containers    ... UNCOMPRESSED
Overall scaling of the MP2 energy         ...   1.000e+00
Calculating two index integrals           ... done (    0.039 sec)
Cholesky decomposition of V**-1           ... done (    0.288 sec)

-----------------
RI-TRANSFORMATION (AUX index driven)
-----------------

Dimension of the orbital-basis         ... 828
Dimension of the aux-basis             ... 2141
Transformation of internal/external MOs...   24-  76 to   77- 827
Number Format for Storage              ... Double (8 Byte)
Integral mode                          ... Direct

First Phase: integral generation and transformation of MO indices
  Aux angular momentum 0               ... done (    4.362 sec)
  Aux angular momentum 1               ... done (    6.920 sec)
  Aux angular momentum 2               ... done (    8.916 sec)
  Aux angular momentum 3               ... done (    7.001 sec)
  Aux angular momentum 4               ... done (    2.480 sec)
Closing buffer VIA ( 0.63 GB; CompressionRatio= 1.00)
  Phase 1 completed in    30.043 sec
Second Phase: sorting and transformation of aux index

IA-Transformation
Memory available                       ... 167 MB 
Max. # MO pairs treated in a batch     ... 12    
# of internal orbitals                 ... 53
# batches for internal orbitals        ... 5
Closing buffer IAV ( 0.63 GB; CompressionRatio= 1.00)
(ia|v) transformation done in    17.910 sec

  Phase 2 completed in    17.913 sec
RI-Integral transformation completed in    47.974 sec
Opening buffers                              ... done

Starting loop over batches of integrals:

Operator 0  - window                       ... ( 24- 76)x( 77-827)
Operator 0  - Memory available             ...   256 MB
Operator 0  - Memory needed per MO         ...  12.3 MB
Operator 0  - Number of orbitals per batch ... 13
Operator 0  - Number of batches            ... 5

OPERATOR  0   PASS   0:  MOs    24 ...   36
  Reading integrals       ... ok
  Internal MO  26
  Internal MO  29
  Internal MO  32
  Internal MO  35
OPERATOR  0   PASS   1:  MOs    37 ...   49
  Reading integrals       ... ok
  Internal MO  38
  Internal MO  41
  Internal MO  44
  Internal MO  47
OPERATOR  0   PASS   2:  MOs    50 ...   62
  Reading integrals       ... ok
  Internal MO  50
  Internal MO  53
  Internal MO  56
  Internal MO  59
  Internal MO  62
OPERATOR  0   PASS   3:  MOs    63 ...   75
  Reading integrals       ... ok
  Internal MO  65
  Internal MO  68
  Internal MO  71
  Internal MO  74
OPERATOR  0   PASS   4:  MOs    76 ...   76
  Reading integrals       ... ok
Time spent in pair loops =    76.756 sec
Deleting buffer (Ka|jb)[aa] ...done

-----------------------------------------------
 RI-MP2 CORRELATION ENERGY:     -3.536106114 Eh
-----------------------------------------------


-------
TIMINGS
-------

Total time                :  125.199 sec
Integral trafo            :   47.983 sec ( 38.3%)
I/O of integrals          :    2.688 sec (  2.1%)
K(i,j) Operators          :   46.256 sec ( 36.9%)
T(i,j) pair energies      :    8.467 sec (  6.8%)
V-calculation             :    0.039 sec (  0.0%)
V**(-1/2)                 :    0.288 sec (  0.2%)
Gamma(ia|P)               :    0.000 sec (  0.0%)
Gamma-Trafo               :    0.000 sec (  0.0%)
D(virtual)                :    0.000 sec (  0.0%)
D(internal)               :    0.000 sec (  0.0%)
W(virtual)                :    0.000 sec (  0.0%)
W(internal)               :    0.000 sec (  0.0%)
L(virtual)                :    0.000 sec (  0.0%)
L(internal)               :    0.000 sec (  0.0%)
G(D)                      :    0.000 sec (  0.0%)
G(Z)                      :    0.000 sec (  0.0%)
Z-Vector Solution         :    0.000 sec (  0.0%)
3-Index Derivative        :    0.000 sec (  0.0%)
2-Index Derivative        :    0.000 sec (  0.0%)
Separable Gradient        :    0.000 sec (  0.0%)


---------------------------------------
MP2 TOTAL ENERGY:    -1274.339860452 Eh
---------------------------------------

-------------------------   --------------------
FINAL SINGLE POINT ENERGY     -1274.339860452390
-------------------------   --------------------


                            ***************************************
                            *     ORCA property calculations      *
                            ***************************************


  WARNING: The energy has been calculated at the MP2 level but the densities
           used in the property calculations are still SCF densities
           MP2 response densities have not been calculated 
           use %mp2 Density relaxed end
           or  %mp2 Density unrelaxed end

                                    ---------------------
                                    Active property flags
                                    ---------------------
   (+) Dipole Moment


------------------------------------------------------------------------------
                       ORCA ELECTRIC PROPERTIES CALCULATION
------------------------------------------------------------------------------

Dipole Moment Calculation                       ... on
Quadrupole Moment Calculation                   ... off
Polarizability Calculation                      ... off
GBWName                                         ... G2_CONFS/Conf1.orca.gbw
Electron density file                           ... G2_CONFS/Conf1.orca.scfp
The origin for moment calculation is the CENTER OF MASS  = (31.764618, 33.153366 33.426845)

-------------
DIPOLE MOMENT
-------------
                                X             Y             Z
Electronic contribution:      8.31853      10.97602       7.50767
Nuclear contribution   :     -8.75664     -13.03162      -8.31925
                        -----------------------------------------
Total Dipole Moment    :     -0.43810      -2.05560      -0.81158
                        -----------------------------------------
Magnitude (a.u.)       :      2.25302
Magnitude (Debye)      :      5.72671



--------------------
Rotational spectrum 
--------------------
 
Rotational constants in cm-1:     0.014189     0.007709     0.005652 
Rotational constants in MHz :   425.374129   231.098546   169.432632 

 Dipole components along the rotational axes: 
x,y,z [a.u.] :    -1.909827     0.708238    -0.962830 
x,y,z [Debye]:    -4.854395     1.800198    -2.447320 

 

Timings for individual modules:

Sum of individual times         ...     5606.359 sec (=  93.439 min)
GTO integral calculation        ...        1.480 sec (=   0.025 min)   0.0 %
SCF iterations                  ...     5479.273 sec (=  91.321 min)  97.7 %
MP2 module                      ...      125.606 sec (=   2.093 min)   2.2 %
                             ****ORCA TERMINATED NORMALLY****
TOTAL RUN TIME: 0 days 1 hours 33 minutes 27 seconds 290 msec
