
                                 *****************
                                 * O   R   C   A *
                                 *****************

           --- An Ab Initio, DFT and Semiempirical electronic structure package ---

                  #######################################################
                  #                        -***-                        #
                  #          Department of theory and spectroscopy      #
                  #               Directorship: Frank Neese             #
                  #        Max Planck Institute fuer Kohlenforschung    #
                  #                Kaiser Wilhelm Platz 1               #
                  #                 D-45470 Muelheim/Ruhr               #
                  #                      Germany                        #
                  #                                                     #
                  #                  All rights reserved                #
                  #                        -***-                        #
                  #######################################################


                         Program Version 4.2.0 -  RELEASE  -


 With contributions from (in alphabetic order):
   Daniel Aravena         : Magnetic Suceptibility
   Michael Atanasov       : Ab Initio Ligand Field Theory (pilot matlab implementation)
   Alexander A. Auer      : GIAO ZORA, VPT2
   Ute Becker             : Parallelization
   Giovanni Bistoni       : ED, misc. LED, open-shell LED, HFLED
   Martin Brehm           : Molecular dynamics
   Dmytro Bykov           : SCF Hessian
   Vijay G. Chilkuri      : MRCI spin determinant printing, contributions to CSF-ICE
   Dipayan Datta          : RHF DLPNO-CCSD density
   Achintya Kumar Dutta   : EOM-CC, STEOM-CC
   Dmitry Ganyushin       : Spin-Orbit,Spin-Spin,Magnetic field MRCI
   Miquel Garcia          : C-PCM Hessian, Gaussian charge scheme
   Yang Guo               : DLPNO-NEVPT2, CIM, IAO-localization
   Andreas Hansen         : Spin unrestricted coupled pair/coupled cluster methods
   Benjamin Helmich-Paris : CASSCF linear response (MC-RPA)
   Lee Huntington         : MR-EOM, pCC
   Robert Izsak           : Overlap fitted RIJCOSX, COSX-SCS-MP3, EOM
   Christian Kollmar      : KDIIS, OOCD, Brueckner-CCSD(T), CCSD density
   Simone Kossmann        : Meta GGA functionals, TD-DFT gradient, OOMP2, MP2 Hessian
   Martin Krupicka        : AUTO-CI
   Lucas Lang             : DCDCAS
   Dagmar Lenk            : GEPOL surface, SMD
   Dimitrios Liakos       : Extrapolation schemes; Compound Job, initial MDCI parallelization
   Dimitrios Manganas     : Further ROCIS development; embedding schemes
   Dimitrios Pantazis     : SARC Basis sets
   Taras Petrenko         : DFT Hessian,TD-DFT gradient, ASA, ECA, R-Raman, ABS, FL, XAS/XES, NRVS
   Peter Pinski           : DLPNO-MP2, DLPNO-MP2 Gradient
   Christoph Reimann      : Effective Core Potentials
   Marius Retegan         : Local ZFS, SOC
   Christoph Riplinger    : Optimizer, TS searches, QM/MM, DLPNO-CCSD(T), (RO)-DLPNO pert. Triples
   Tobias Risthaus        : Range-separated hybrids, TD-DFT gradient, RPA, STAB
   Michael Roemelt        : Original ROCIS implementation
   Masaaki Saitow         : Open-shell DLPNO-CCSD energy and density
   Barbara Sandhoefer     : DKH picture change effects
   Avijit Sen             : IP-ROCIS
   Kantharuban Sivalingam : CASSCF convergence, NEVPT2, FIC-MRCI
   Bernardo de Souza      : ESD, SOC TD-DFT
   Georgi Stoychev        : AutoAux, RI-MP2 NMR
   Willem Van den Heuvel  : Paramagnetic NMR
   Boris Wezisla          : Elementary symmetry handling
   Frank Wennmohs         : Technical directorship


 We gratefully acknowledge several colleagues who have allowed us to
 interface, adapt or use parts of their codes:
   Stefan Grimme, W. Hujo, H. Kruse,             : VdW corrections, initial TS optimization,
                  C. Bannwarth                     DFT functionals, gCP, sTDA/sTD-DF
   Ed Valeev, F. Pavosevic, A. Kumar             : LibInt (2-el integral package), F12 methods
   Garnet Chan, S. Sharma, J. Yang, R. Olivares  : DMRG
   Ulf Ekstrom                                   : XCFun DFT Library
   Mihaly Kallay                                 : mrcc  (arbitrary order and MRCC methods)
   Andreas Klamt, Michael Diedenhofen            : otool_cosmo (COSMO solvation model)
   Jiri Pittner, Ondrej Demel                    : Mk-CCSD
   Frank Weinhold                                : gennbo (NPA and NBO analysis)
   Christopher J. Cramer and Donald G. Truhlar   : smd solvation model
   Lars Goerigk                                  : TD-DFT with DH, B97 family of functionals
   V. Asgeirsson, H. Jonsson                     : NEB implementation
   FAccTs GmbH                                   : IRC, NEB, NEB-TS, Multilevel, MM, QM/MM, CI optimization
   S Lehtola, MJT Oliveira, MAL Marques          : LibXC Library


 Your calculation uses the libint2 library for the computation of 2-el integrals
 For citations please refer to: http://libint.valeyev.net

 Your ORCA version has been built with support for libXC version: 4.2.3
 For citations please refer to: https://tddft.org/programs/libxc/

 This ORCA versions uses:
   CBLAS   interface :  Fast vector & matrix operations
   LAPACKE interface :  Fast linear algebra routines
   SCALAPACK package :  Parallel linear algebra routines


----- Orbital basis set information -----
Your calculation utilizes the basis: cc-pVTZ 
       H, B-Ne : Obtained from the ccRepo (grant-hill.group.shef.ac.uk/ccrepo) Feb. 2017
                 T. H. Dunning, Jr., J. Chem. Phys. 90, 1007 (1989)
            He : Obtained from the ccRepo (grant-hill.group.shef.ac.uk/ccrepo) Feb. 2017
                 D. E. Woon, T. H. Dunning, Jr., J. Chem. Phys. 100, 2975 (1994)
  Li-Be, Na-Mg : Obtained from the ccRepo (grant-hill.group.shef.ac.uk/ccrepo) Feb. 2017
                 B. P. Prascher, D. E. Woon, K. A. Peterson, T. H. Dunning, Jr., A. K. Wilson, Theor. Chem. Acc. 128, 69 (2011)
         Al-Ar : Obtained from the ccRepo (grant-hill.group.shef.ac.uk/ccrepo) Feb. 2017
                 D. E. Woon, T. H. Dunning, Jr., J. Chem. Phys. 98, 1358 (1993)
            Ca : Obtained from the Peterson Research Group Website (tyr0.chem.wsu.edu/~kipeters) Feb. 2017
                 J. Koput, K. A. Peterson, J. Phys. Chem. 106, 9595 (2002)
         Sc-Zn : Obtained from the ccRepo (grant-hill.group.shef.ac.uk/ccrepo) Feb. 2017
                 N. B. Balabanov, K. A. Peterson, J. Chem. Phys. 123, 064107 (2005)
                 N. B. Balabanov, K. A. Peterson, J. Chem. Phys. 125, 074110 (2006)
         Ga-Kr : Obtained from the ccRepo (grant-hill.group.shef.ac.uk/ccrepo) Feb. 2017
                 A. K. Wilson, D. E. Woon, K. A. Peterson, T. H. Dunning, Jr., J. Chem. Phys. 110, 7667 (1999)
             Y : Obtained from the ccRepo (grant-hill.group.shef.ac.uk/ccrepo) Feb. 2017
                 K. A. Peterson, D. Figgen, M. Dolg, H. Stoll, J. Chem. Phys. 126, 124101 (2007)
        Ag, Au : Obtained from the Peterson Research Group Website (tyr0.chem.wsu.edu/~kipeters) Feb. 2017
                 K. A. Peterson, C. Puzzarini, Theor. Chem. Acc. 114, 283 (2005)

----- AuxC basis set information -----
Your calculation utilizes the auxiliary basis: cc-pVTZ/C 
  Obtained from the EMSL Basis Set Exchange (bse.pnl.gov) Feb. 2017
  H-He, B-F, Al-Ar, Ga-Kr : F. Weigend, A. Kohn, C. Hattig, J. Chem. Phys. 116, 3175 (2002)
             Li-Be, Na-Mg : C. Haettig, Phys. Chem. Chem. Phys. 7, 59 (2005)
                       Ne : C. Haettig, Phys. Chem. Chem. Phys. 7, 59 (2005)
                            F. Weigend, A. Kohn, C. Hattig, J. Chem. Phys. 116, 3175 (2002)
                    Sc-Zn : J. G. Hill, J. A. Platts, J. Chem. Phys. 128, 044104 (2008)

================================================================================
                                        WARNINGS
                       Please study these warnings very carefully!
================================================================================


WARNING: No MP2 level density has been requested!
         To caclulate MP2 level properties use
         %mp2 Density relaxed end
         or
         %mp2 Density unrelaxed end

WARNING: Post HF methods need fully converged wavefunctions
  ===> : Setting SCFConvForced true
         You can overwrite this default with %scf ConvForced false 


INFO   : the flag for use of LIBINT has been found!

================================================================================
                                       INPUT FILE
================================================================================
NAME = G2_CONFS/Conf14.orca
|  1> ! ri-mp2 cc-pvtz cc-pvtz/c TightSCF NoKeepInts
|  2> 
|  3> %scf
|  4>   MaxCore 4096
|  5> end
|  6> *xyz  0  1
|  7>     C       13.3792465   15.9053423   15.5318470
|  8>     C       14.5557488   16.0470679   14.5449998
|  9>     O       15.4941428   17.0083275   15.0654008
| 10>     C       16.3297377   16.6700128   16.0935814
| 11>     O       16.3841566   15.5328334   16.5275382
| 12>     C       17.1544941   17.8195223   16.6143693
| 13>     C       17.3772613   18.9760090   15.9310226
| 14>     C       17.0002779   19.3197309   14.5053496
| 15>     N       17.8382664   20.1004259   16.6399885
| 16>     C       17.7317016   20.2130394   18.0112887
| 17>     S       17.8729192   21.6644202   18.7918252
| 18>     N       17.4926532   19.0346895   18.6816841
| 19>     C       17.7774742   17.7560383   18.0207021
| 20>     C       17.5074276   16.5412378   18.9024236
| 21>     C       18.5010530   15.5640634   19.0996170
| 22>     C       18.2563993   14.4536907   19.9253188
| 23>     C       17.0093367   14.3196266   20.5593577
| 24>     C       16.0186140   15.2919415   20.3649918
| 25>     O       14.8136494   15.1645619   20.9764718
| 26>     C       16.2669656   16.4009563   19.5506221
| 27>     H       13.7132806   15.4818680   16.4876203
| 28>     H       12.6120044   15.2393826   15.1190703
| 29>     H       12.9173605   16.8807762   15.7280260
| 30>     H       15.0398211   15.0744199   14.3809661
| 31>     H       14.1707159   16.4028239   13.5808776
| 32>     H       15.9290970   19.5466681   14.4311853
| 33>     H       17.2168938   18.4830019   13.8297319
| 34>     H       17.5544110   20.1870684   14.1268094
| 35>     H       17.9980113   20.9669126   16.1507666
| 36>     H       17.4001753   19.0863111   19.6884700
| 37>     H       18.8645529   17.7916451   17.8601800
| 38>     H       19.4622206   15.6592798   18.6026108
| 39>     H       19.0277718   13.6988084   20.0647085
| 40>     H       16.8145266   13.4610189   21.1928439
| 41>     H       14.8201835   14.3190157   21.4492102
| 42>     H       15.4844456   17.1374585   19.4065246
| 43> *
| 44> 
| 45>                          ****END OF INPUT****
================================================================================

                       ****************************
                       * Single Point Calculation *
                       ****************************

---------------------------------
CARTESIAN COORDINATES (ANGSTROEM)
---------------------------------
  C     13.379247   15.905342   15.531847
  C     14.555749   16.047068   14.545000
  O     15.494143   17.008328   15.065401
  C     16.329738   16.670013   16.093581
  O     16.384157   15.532833   16.527538
  C     17.154494   17.819522   16.614369
  C     17.377261   18.976009   15.931023
  C     17.000278   19.319731   14.505350
  N     17.838266   20.100426   16.639989
  C     17.731702   20.213039   18.011289
  S     17.872919   21.664420   18.791825
  N     17.492653   19.034689   18.681684
  C     17.777474   17.756038   18.020702
  C     17.507428   16.541238   18.902424
  C     18.501053   15.564063   19.099617
  C     18.256399   14.453691   19.925319
  C     17.009337   14.319627   20.559358
  C     16.018614   15.291942   20.364992
  O     14.813649   15.164562   20.976472
  C     16.266966   16.400956   19.550622
  H     13.713281   15.481868   16.487620
  H     12.612004   15.239383   15.119070
  H     12.917360   16.880776   15.728026
  H     15.039821   15.074420   14.380966
  H     14.170716   16.402824   13.580878
  H     15.929097   19.546668   14.431185
  H     17.216894   18.483002   13.829732
  H     17.554411   20.187068   14.126809
  H     17.998011   20.966913   16.150767
  H     17.400175   19.086311   19.688470
  H     18.864553   17.791645   17.860180
  H     19.462221   15.659280   18.602611
  H     19.027772   13.698808   20.064708
  H     16.814527   13.461019   21.192844
  H     14.820183   14.319016   21.449210
  H     15.484446   17.137459   19.406525

----------------------------
CARTESIAN COORDINATES (A.U.)
----------------------------
  NO LB      ZA    FRAG     MASS         X           Y           Z
   0 C     6.0000    0    12.011   25.283112   30.056741   29.350937
   1 C     6.0000    0    12.011   27.506379   30.324564   27.486066
   2 O     8.0000    0    15.999   29.279687   32.141081   28.469482
   3 C     6.0000    0    12.011   30.858732   31.501759   30.412461
   4 O     8.0000    0    15.999   30.961569   29.352801   31.232521
   5 C     6.0000    0    12.011   32.417296   33.674017   31.396608
   6 C     6.0000    0    12.011   32.838265   35.859460   30.105270
   7 C     6.0000    0    12.011   32.125869   36.509000   27.411138
   8 N     7.0000    0    14.007   33.709438   37.984300   31.445021
   9 C     6.0000    0    12.011   33.508060   38.197109   34.036403
  10 S    16.0000    0    32.060   33.774923   40.939821   35.511403
  11 N     7.0000    0    14.007   33.056324   35.970350   35.303267
  12 C     6.0000    0    12.011   33.594558   33.554050   34.054192
  13 C     6.0000    0    12.011   33.084243   31.258409   35.720404
  14 C     6.0000    0    12.011   34.961923   29.411817   36.093045
  15 C     6.0000    0    12.011   34.499595   27.313517   37.653396
  16 C     6.0000    0    12.011   32.142988   27.060173   38.851556
  17 C     6.0000    0    12.011   30.270794   28.897581   38.484257
  18 O     8.0000    0    15.999   27.993740   28.656869   39.639787
  19 C     6.0000    0    12.011   30.740110   30.993316   36.945322
  20 H     1.0000    0     1.008   25.914345   29.256491   31.157087
  21 H     1.0000    0     1.008   23.833234   28.798260   28.570902
  22 H     1.0000    0     1.008   24.410274   31.900044   29.721662
  23 H     1.0000    0     1.008   28.421143   28.486525   27.176087
  24 H     1.0000    0     1.008   26.778772   30.996845   25.664139
  25 H     1.0000    0     1.008   30.101631   36.937850   27.270988
  26 H     1.0000    0     1.008   32.535214   34.927812   26.134406
  27 H     1.0000    0     1.008   33.173029   38.148031   26.695801
  28 H     1.0000    0     1.008   34.011312   39.621723   30.520526
  29 H     1.0000    0     1.008   32.881566   36.067901   37.205816
  30 H     1.0000    0     1.008   35.648839   33.621337   33.750849
  31 H     1.0000    0     1.008   36.778267   29.591750   35.153840
  32 H     1.0000    0     1.008   35.957278   25.886996   37.916804
  33 H     1.0000    0     1.008   31.774850   25.437639   40.048671
  34 H     1.0000    0     1.008   28.006088   27.059018   40.533133
  35 H     1.0000    0     1.008   29.261362   32.385103   36.673017

--------------------------------
INTERNAL COORDINATES (ANGSTROEM)
--------------------------------
 C      0   0   0     0.000000000000     0.00000000     0.00000000
 C      1   0   0     1.542112578169     0.00000000     0.00000000
 O      2   1   0     1.440631985841   109.09314348     0.00000000
 C      3   2   1     1.367417646280   120.30280370    75.61013213
 O      4   3   2     1.218382907270   121.73746696     5.85338322
 C      4   3   2     1.507585900278   113.91614614   185.69326940
 C      6   4   3     1.361634835436   124.31509034   341.50976187
 C      7   6   4     1.514201020784   128.65162072   353.18304157
 N      7   6   4     1.406936997379   118.65295034   162.79869280
 C      9   7   6     1.380036990628   122.72660294   341.78350722
 S     10   9   7     1.653990890238   122.27179866   197.49362588
 N     10   9   7     1.376619997208   115.30669453    17.15464441
 C     12  10   9     1.467299934446   119.52737206    18.85802486
 C     13  12  10     1.525155147693   113.53474980   178.05051789
 C     14  13  12     1.407496529496   120.59635341   232.93201054
 C     15  14  13     1.405192665919   120.53178736   179.22003490
 C     16  15  14     1.405398035412   119.66752743   359.95846623
 C     17  16  15     1.401679648186   119.89749306     0.00000000
 O     18  17  16     1.357229914255   119.99586387   180.00928174
 C     18  17  16     1.398138173472   120.36116935   359.54222738
 H      1   2   3     1.097456998573   111.13513288   295.05914357
 H      1   2   3     1.096607206843   110.40834260   175.43109036
 H      1   2   3     1.096948572316   110.72970085    55.59028851
 H      2   1   3     1.098761656715   110.50515890   122.24172275
 H      2   1   3     1.097426208067   108.92454134   240.83155281
 H      8   7   6     1.097464968308   110.70576495    76.46454073
 H      8   7   6     1.097040174345   110.95006244   316.58118873
 H      8   7   6     1.096645117820   112.25510161   197.02932622
 H      9   7   6     1.007797450777   119.63393021   180.69295347
 H     12  10   9     1.012341246820   117.16335631   180.59717692
 H     13  12  10     1.099443172150   103.26632368    63.06602782
 H     15  14  13     1.086243288107   119.98050052   358.52715810
 H     16  15  14     1.088251951101   119.99887763   179.45920616
 H     17  16  15     1.084648755659   119.89251545   179.64155486
 H     19  18  17     0.968747988711   107.20460941   356.50211079
 H     20  18  17     1.084221900955   119.21116379   179.48836521

---------------------------
INTERNAL COORDINATES (A.U.)
---------------------------
 C      0   0   0     0.000000000000     0.00000000     0.00000000
 C      1   0   0     2.914170440416     0.00000000     0.00000000
 O      2   1   0     2.722399913007   109.09314348     0.00000000
 C      3   2   1     2.584044862161   120.30280370    75.61013213
 O      4   3   2     2.302410020991   121.73746696     5.85338322
 C      4   3   2     2.848924474887   113.91614614   185.69326940
 C      6   4   3     2.573116933382   124.31509034   341.50976187
 C      7   6   4     2.861425240986   128.65162072   353.18304157
 N      7   6   4     2.658725612728   118.65295034   162.79869280
 C      9   7   6     2.607891966968   122.72660294   341.78350722
 S     10   9   7     3.125589810551   122.27179866   197.49362588
 N     10   9   7     2.601434785203   115.30669453    17.15464441
 C     12  10   9     2.772795032424   119.52737206    18.85802486
 C     13  12  10     2.882125540880   113.53474980   178.05051789
 C     14  13  12     2.659782975193   120.59635341   232.93201054
 C     15  14  13     2.655429303981   120.53178736   179.22003490
 C     16  15  14     2.655817396080   119.66752743   359.95846623
 C     17  16  15     2.648790662563   119.89749306     0.00000000
 O     18  17  16     2.564792838708   119.99586387   180.00928174
 C     18  17  16     2.642098245243   120.36116935   359.54222738
 H      1   2   3     2.073893171058   111.13513288   295.05914357
 H      1   2   3     2.072287297417   110.40834260   175.43109036
 H      1   2   3     2.072932384673   110.72970085    55.59028851
 H      2   1   3     2.076358617645   110.50515890   122.24172275
 H      2   1   3     2.073834985433   108.92454134   240.83155281
 H      8   7   6     2.073908231675   110.70576495    76.46454073
 H      8   7   6     2.073105487421   110.95006244   316.58118873
 H      8   7   6     2.072358938781   112.25510161   197.02932622
 H      9   7   6     1.904461180432   119.63393021   180.69295347
 H     12  10   9     1.913047710563   117.16335631   180.59717692
 H     13  12  10     2.077646495174   103.26632368    63.06602782
 H     15  14  13     2.052702329332   119.98050052   358.52715810
 H     16  15  14     2.056498152287   119.99887763   179.45920616
 H     17  16  15     2.049689099693   119.89251545   179.64155486
 H     19  18  17     1.830668391451   107.20460941   356.50211079
 H     20  18  17     2.048882461205   119.21116379   179.48836521

---------------------
BASIS SET INFORMATION
---------------------
There are 5 groups of distinct atoms

 Group   1 Type C   : 18s5p2d1f contracted to 4s3p2d1f pattern {8811/311/11/1}
 Group   2 Type O   : 18s5p2d1f contracted to 4s3p2d1f pattern {8811/311/11/1}
 Group   3 Type N   : 18s5p2d1f contracted to 4s3p2d1f pattern {8811/311/11/1}
 Group   4 Type S   : 41s16p2d1f contracted to 5s4p2d1f pattern {13131311/7711/11/1}
 Group   5 Type H   : 5s2p1d contracted to 3s2p1d pattern {311/11/1}

Atom   0C    basis set group =>   1
Atom   1C    basis set group =>   1
Atom   2O    basis set group =>   2
Atom   3C    basis set group =>   1
Atom   4O    basis set group =>   2
Atom   5C    basis set group =>   1
Atom   6C    basis set group =>   1
Atom   7C    basis set group =>   1
Atom   8N    basis set group =>   3
Atom   9C    basis set group =>   1
Atom  10S    basis set group =>   4
Atom  11N    basis set group =>   3
Atom  12C    basis set group =>   1
Atom  13C    basis set group =>   1
Atom  14C    basis set group =>   1
Atom  15C    basis set group =>   1
Atom  16C    basis set group =>   1
Atom  17C    basis set group =>   1
Atom  18O    basis set group =>   2
Atom  19C    basis set group =>   1
Atom  20H    basis set group =>   5
Atom  21H    basis set group =>   5
Atom  22H    basis set group =>   5
Atom  23H    basis set group =>   5
Atom  24H    basis set group =>   5
Atom  25H    basis set group =>   5
Atom  26H    basis set group =>   5
Atom  27H    basis set group =>   5
Atom  28H    basis set group =>   5
Atom  29H    basis set group =>   5
Atom  30H    basis set group =>   5
Atom  31H    basis set group =>   5
Atom  32H    basis set group =>   5
Atom  33H    basis set group =>   5
Atom  34H    basis set group =>   5
Atom  35H    basis set group =>   5
---------------------------------
AUXILIARY/C BASIS SET INFORMATION
---------------------------------
There are 5 groups of distinct atoms

 Group   1 Type C   : 8s6p5d3f1g contracted to 8s6p5d3f1g pattern {11111111/111111/11111/111/1}
 Group   2 Type O   : 8s6p5d3f1g contracted to 8s6p5d3f1g pattern {11111111/111111/11111/111/1}
 Group   3 Type N   : 8s6p5d3f1g contracted to 8s6p5d3f1g pattern {11111111/111111/11111/111/1}
 Group   4 Type S   : 10s8p7d5f2g contracted to 10s8p7d5f2g pattern {1111111111/11111111/1111111/11111/11}
 Group   5 Type H   : 4s3p2d1f contracted to 4s3p2d1f pattern {1111/111/11/1}

Atom   0C    basis set group =>   1
Atom   1C    basis set group =>   1
Atom   2O    basis set group =>   2
Atom   3C    basis set group =>   1
Atom   4O    basis set group =>   2
Atom   5C    basis set group =>   1
Atom   6C    basis set group =>   1
Atom   7C    basis set group =>   1
Atom   8N    basis set group =>   3
Atom   9C    basis set group =>   1
Atom  10S    basis set group =>   4
Atom  11N    basis set group =>   3
Atom  12C    basis set group =>   1
Atom  13C    basis set group =>   1
Atom  14C    basis set group =>   1
Atom  15C    basis set group =>   1
Atom  16C    basis set group =>   1
Atom  17C    basis set group =>   1
Atom  18O    basis set group =>   2
Atom  19C    basis set group =>   1
Atom  20H    basis set group =>   5
Atom  21H    basis set group =>   5
Atom  22H    basis set group =>   5
Atom  23H    basis set group =>   5
Atom  24H    basis set group =>   5
Atom  25H    basis set group =>   5
Atom  26H    basis set group =>   5
Atom  27H    basis set group =>   5
Atom  28H    basis set group =>   5
Atom  29H    basis set group =>   5
Atom  30H    basis set group =>   5
Atom  31H    basis set group =>   5
Atom  32H    basis set group =>   5
Atom  33H    basis set group =>   5
Atom  34H    basis set group =>   5
Atom  35H    basis set group =>   5
------------------------------------------------------------------------------
                           ORCA GTO INTEGRAL CALCULATION
------------------------------------------------------------------------------

                         BASIS SET STATISTICS AND STARTUP INFO

 # of primitive gaussian shells          ...  682
 # of primitive gaussian functions       ... 1312
 # of contracted shells                  ...  298
 # of contracted basis functions         ...  828
 Highest angular momentum                ...    3
 Maximum contraction depth               ...   13
 Integral package used                   ... LIBINT
 Integral threshhold            Thresh   ...  2.500e-11
 Primitive cut-off              TCut     ...  2.500e-12


------------------------------ INTEGRAL EVALUATION ----------------------------


 * One electron integrals 
 Pre-screening matrix                    ... done
 Shell pair data                         ... done (   0.013 sec)

-------------------------------------------------------------------------------
                                 ORCA SCF
-------------------------------------------------------------------------------

------------
SCF SETTINGS
------------
Hamiltonian:
 Ab initio Hamiltonian  Method          .... Hartree-Fock(GTOs)


General Settings:
 Integral files         IntName         .... G2_CONFS/Conf14.orca
 Hartree-Fock type      HFTyp           .... RHF
 Total Charge           Charge          ....    0
 Multiplicity           Mult            ....    1
 Number of Electrons    NEL             ....  154
 Basis Dimension        Dim             ....  828
 Nuclear Repulsion      ENuc            ....   1682.9043967755 Eh

Convergence Acceleration:
 DIIS                   CNVDIIS         .... on
   Start iteration      DIISMaxIt       ....    12
   Startup error        DIISStart       ....  0.200000
   # of expansion vecs  DIISMaxEq       ....     5
   Bias factor          DIISBfac        ....   1.050
   Max. coefficient     DIISMaxC        ....  10.000
 Newton-Raphson         CNVNR           .... off
 SOSCF                  CNVSOSCF        .... on
   Start iteration      SOSCFMaxIt      ....   150
   Startup grad/error   SOSCFStart      ....  0.003300
 Level Shifting         CNVShift        .... on
   Level shift para.    LevelShift      ....    0.2500
   Turn off err/grad.   ShiftErr        ....    0.0010
 Zerner damping         CNVZerner       .... off
 Static damping         CNVDamp         .... on
   Fraction old density DampFac         ....    0.7000
   Max. Damping (<1)    DampMax         ....    0.9800
   Min. Damping (>=0)   DampMin         ....    0.0000
   Turn off err/grad.   DampErr         ....    0.1000
 Fernandez-Rico         CNVRico         .... off

SCF Procedure:
 Maximum # iterations   MaxIter         ....   125
 SCF integral mode      SCFMode         .... Direct
   Integral package                     .... LIBINT
 Reset frequency        DirectResetFreq ....    20
 Integral Threshold     Thresh          ....  2.500e-11 Eh
 Primitive CutOff       TCut            ....  2.500e-12 Eh

Convergence Tolerance:
 Convergence Check Mode ConvCheckMode   .... Total+1el-Energy
 Convergence forced     ConvForced      .... 1
 Energy Change          TolE            ....  1.000e-08 Eh
 1-El. energy change                    ....  1.000e-05 Eh
 Orbital Gradient       TolG            ....  1.000e-05
 Orbital Rotation angle TolX            ....  1.000e-05
 DIIS Error             TolErr          ....  5.000e-07


Diagonalization of the overlap matrix:
Smallest eigenvalue                        ... 3.505e-05
Time for diagonalization                   ...    0.111 sec
Threshold for overlap eigenvalues          ... 1.000e-08
Number of eigenvalues below threshold      ... 0
Time for construction of square roots      ...    0.062 sec
Total time needed                          ...    0.176 sec

-------------------
DFT GRID GENERATION
-------------------

General Integration Accuracy     IntAcc      ...  4.340
Radial Grid Type                 RadialGrid  ... Gauss-Chebyshev
Angular Grid (max. acc.)         AngularGrid ... Lebedev-110
Angular grid pruning method      GridPruning ... 3 (G Style)
Weight generation scheme         WeightScheme... Becke
Basis function cutoff            BFCut       ...    1.0000e-11
Integration weight cutoff        WCut        ...    1.0000e-14
Grids for H and He will be reduced by one unit

# of grid points (after initial pruning)     ...  46246 (   0.0 sec)
# of grid points (after weights+screening)   ...  41425 (   0.3 sec)
nearest neighbour list constructed           ...    0.0 sec
Grid point re-assignment to atoms done       ...    0.0 sec
Grid point division into batches done        ...    0.0 sec
Reduced shell lists constructed in    0.9 sec

Total number of grid points                  ...    41425
Total number of batches                      ...      666
Average number of points per batch           ...       62
Average number of grid points per atom       ...     1151
Average number of shells per batch           ...   143.54 (48.17%)
Average number of basis functions per batch  ...   364.31 (44.00%)
Average number of large shells per batch     ...    91.63 (63.84%)
Average number of large basis fcns per batch ...   236.52 (64.92%)
Maximum spatial batch extension              ...  25.60, 21.87, 25.60 au
Average spatial batch extension              ...   3.55,  3.33,  3.40 au

Time for grid setup =    1.238 sec

------------------------------
INITIAL GUESS: MODEL POTENTIAL
------------------------------
Loading Hartree-Fock densities                     ... done
Calculating cut-offs                               ... done
Setting up the integral package                    ... done
Initializing the effective Hamiltonian             ... done
Starting the Coulomb interaction                   ... done (   3.0 sec)
Reading the grid                                   ... done
Mapping shells                                     ... done
Starting the XC term evaluation                    ... done (   1.2 sec)
Transforming the Hamiltonian                       ... done (   0.1 sec)
Diagonalizing the Hamiltonian                      ... done (   0.1 sec)
Back transforming the eigenvectors                 ... done (   0.0 sec)
Now organizing SCF variables                       ... done
                      ------------------
                      INITIAL GUESS DONE (   5.8 sec)
                      ------------------
--------------
SCF ITERATIONS
--------------
ITER       Energy         Delta-E        Max-DP      RMS-DP      [F,P]     Damp
               ***  Starting incremental Fock matrix formation  ***
  0  -1270.0015356238   0.000000000000 0.04929994  0.00043183  0.3108828 0.7000
  1  -1270.2710021811  -0.269466557214 0.03606680  0.00034601  0.1797374 0.7000
                               ***Turning on DIIS***
  2  -1270.4384915494  -0.167489368364 0.02582556  0.00023066  0.1097891 0.7000
  3  -1272.6023773749  -2.163885825511 0.06309145  0.00049937  0.0829776 0.0000
  4  -1270.7443919181   1.857985456860 0.00769142  0.00009458  0.0080504 0.0000
  5  -1270.8106375072  -0.066245589150 0.00337140  0.00004953  0.0049094 0.0000
                      *** Initiating the SOSCF procedure ***
                           *** Shutting down DIIS ***
                      *** Re-Reading the Fockian *** 
                      *** Removing any level shift *** 
ITER      Energy       Delta-E        Grad      Rot      Max-DP    RMS-DP
  6  -1270.78765287   0.0229846336  0.001662  0.001662  0.001824  0.000025
               *** Restarting incremental Fock matrix formation ***
  7  -1270.80171790  -0.0140650273  0.000923  0.002349  0.001223  0.000015
  8  -1270.80176389  -0.0000459896  0.000417  0.002712  0.001353  0.000016
  9  -1270.80178127  -0.0000173836  0.000145  0.000286  0.000367  0.000004
 10  -1270.80178336  -0.0000020811  0.000054  0.000146  0.000113  0.000001
 11  -1270.80178356  -0.0000002040  0.000023  0.000128  0.000069  0.000001
 12  -1270.80178362  -0.0000000575  0.000010  0.000036  0.000024  0.000000
 13  -1270.80178362  -0.0000000002  0.000003  0.000011  0.000006  0.000000
                  ***Gradient check signals convergence***
              ***Rediagonalizing the Fockian in SOSCF/NRSCF***

               *****************************************************
               *                     SUCCESS                       *
               *           SCF CONVERGED AFTER  14 CYCLES          *
               *****************************************************


----------------
TOTAL SCF ENERGY
----------------

Total Energy       :        -1270.80178360 Eh          -34580.27456 eV

Components:
Nuclear Repulsion  :         1682.90439678 Eh           45794.15677 eV
Electronic Energy  :        -2953.70618038 Eh          -80374.43133 eV
One Electron Energy:        -5087.41003267 Eh         -138435.46491 eV
Two Electron Energy:         2133.70385229 Eh           58061.03359 eV

Virial components:
Potential Energy   :        -2539.68322308 Eh          -69108.29390 eV
Kinetic Energy     :         1268.88143947 Eh           34528.01934 eV
Virial Ratio       :            2.00151341


---------------
SCF CONVERGENCE
---------------

  Last Energy change         ...    1.1945e-08  Tolerance :   1.0000e-08
  Last MAX-Density change    ...    2.1176e-06  Tolerance :   1.0000e-07
  Last RMS-Density change    ...    2.9972e-08  Tolerance :   5.0000e-09
  Last Orbital Gradient      ...    9.6397e-07  Tolerance :   1.0000e-05
  Last Orbital Rotation      ...    3.2318e-06  Tolerance :   1.0000e-05

             **** THE GBW FILE WAS UPDATED (G2_CONFS/Conf14.orca.gbw) ****
             **** DENSITY FILE WAS UPDATED (G2_CONFS/Conf14.orca.scfp) ****
             **** ENERGY FILE WAS UPDATED (G2_CONFS/Conf14.orca.en.tmp) ****
             **** THE GBW FILE WAS UPDATED (G2_CONFS/Conf14.orca.gbw) ****
             **** DENSITY FILE WAS UPDATED (G2_CONFS/Conf14.orca.scfp) ****
----------------
ORBITAL ENERGIES
----------------

  NO   OCC          E(Eh)            E(eV) 
   0   2.0000     -91.889789     -2500.4483 
   1   2.0000     -20.599881      -560.5513 
   2   2.0000     -20.591868      -560.3332 
   3   2.0000     -20.539891      -558.9188 
   4   2.0000     -15.630810      -425.3360 
   5   2.0000     -15.603406      -424.5903 
   6   2.0000     -11.393044      -310.0205 
   7   2.0000     -11.383197      -309.7525 
   8   2.0000     -11.333949      -308.4124 
   9   2.0000     -11.307775      -307.7002 
  10   2.0000     -11.305460      -307.6372 
  11   2.0000     -11.297853      -307.4302 
  12   2.0000     -11.261091      -306.4299 
  13   2.0000     -11.259073      -306.3750 
  14   2.0000     -11.257644      -306.3361 
  15   2.0000     -11.249067      -306.1027 
  16   2.0000     -11.237401      -305.7852 
  17   2.0000     -11.233442      -305.6775 
  18   2.0000     -11.232785      -305.6596 
  19   2.0000     -11.223600      -305.4097 
  20   2.0000      -8.894734      -242.0380 
  21   2.0000      -6.576285      -178.9498 
  22   2.0000      -6.574318      -178.8963 
  23   2.0000      -6.573700      -178.8795 
  24   2.0000      -1.450286       -39.4643 
  25   2.0000      -1.411471       -38.4081 
  26   2.0000      -1.352121       -36.7931 
  27   2.0000      -1.338948       -36.4346 
  28   2.0000      -1.235139       -33.6098 
  29   2.0000      -1.151077       -31.3224 
  30   2.0000      -1.117493       -30.4085 
  31   2.0000      -1.041407       -28.3381 
  32   2.0000      -1.031174       -28.0597 
  33   2.0000      -1.010351       -27.4931 
  34   2.0000      -0.997602       -27.1461 
  35   2.0000      -0.980860       -26.6905 
  36   2.0000      -0.917141       -24.9567 
  37   2.0000      -0.892013       -24.2729 
  38   2.0000      -0.846064       -23.0226 
  39   2.0000      -0.833086       -22.6694 
  40   2.0000      -0.826228       -22.4828 
  41   2.0000      -0.819120       -22.2894 
  42   2.0000      -0.751980       -20.4624 
  43   2.0000      -0.727439       -19.7946 
  44   2.0000      -0.722866       -19.6702 
  45   2.0000      -0.693515       -18.8715 
  46   2.0000      -0.685286       -18.6476 
  47   2.0000      -0.677626       -18.4391 
  48   2.0000      -0.669259       -18.2115 
  49   2.0000      -0.653152       -17.7732 
  50   2.0000      -0.651883       -17.7386 
  51   2.0000      -0.645060       -17.5530 
  52   2.0000      -0.629644       -17.1335 
  53   2.0000      -0.613261       -16.6877 
  54   2.0000      -0.601085       -16.3564 
  55   2.0000      -0.596105       -16.2208 
  56   2.0000      -0.594431       -16.1753 
  57   2.0000      -0.579006       -15.7556 
  58   2.0000      -0.571166       -15.5422 
  59   2.0000      -0.562381       -15.3032 
  60   2.0000      -0.558129       -15.1875 
  61   2.0000      -0.542671       -14.7668 
  62   2.0000      -0.535462       -14.5707 
  63   2.0000      -0.524895       -14.2831 
  64   2.0000      -0.515282       -14.0215 
  65   2.0000      -0.511973       -13.9315 
  66   2.0000      -0.498127       -13.5547 
  67   2.0000      -0.493937       -13.4407 
  68   2.0000      -0.484000       -13.1703 
  69   2.0000      -0.458337       -12.4720 
  70   2.0000      -0.452576       -12.3152 
  71   2.0000      -0.440463       -11.9856 
  72   2.0000      -0.359730        -9.7888 
  73   2.0000      -0.338983        -9.2242 
  74   2.0000      -0.328909        -8.9501 
  75   2.0000      -0.316256        -8.6058 
  76   2.0000      -0.314619        -8.5612 
  77   0.0000       0.077361         2.1051 
  78   0.0000       0.113969         3.1013 
  79   0.0000       0.122142         3.3236 
  80   0.0000       0.134149         3.6504 
  81   0.0000       0.137544         3.7428 
  82   0.0000       0.144038         3.9195 
  83   0.0000       0.144317         3.9271 
  84   0.0000       0.157414         4.2834 
  85   0.0000       0.160264         4.3610 
  86   0.0000       0.173365         4.7175 
  87   0.0000       0.178776         4.8647 
  88   0.0000       0.180854         4.9213 
  89   0.0000       0.192780         5.2458 
  90   0.0000       0.203854         5.5472 
  91   0.0000       0.209691         5.7060 
  92   0.0000       0.213353         5.8056 
  93   0.0000       0.216993         5.9047 
  94   0.0000       0.231968         6.3122 
  95   0.0000       0.233904         6.3648 
  96   0.0000       0.243083         6.6146 
  97   0.0000       0.247597         6.7375 
  98   0.0000       0.255335         6.9480 
  99   0.0000       0.272794         7.4231 
 100   0.0000       0.290903         7.9159 
 101   0.0000       0.306882         8.3507 
 102   0.0000       0.321277         8.7424 
 103   0.0000       0.324227         8.8227 
 104   0.0000       0.328566         8.9407 
 105   0.0000       0.332684         9.0528 
 106   0.0000       0.342211         9.3120 
 107   0.0000       0.352374         9.5886 
 108   0.0000       0.358717         9.7612 
 109   0.0000       0.365685         9.9508 
 110   0.0000       0.368960        10.0399 
 111   0.0000       0.372814        10.1448 
 112   0.0000       0.387427        10.5424 
 113   0.0000       0.392170        10.6715 
 114   0.0000       0.401037        10.9128 
 115   0.0000       0.410533        11.1712 
 116   0.0000       0.412930        11.2364 
 117   0.0000       0.424683        11.5562 
 118   0.0000       0.437822        11.9138 
 119   0.0000       0.441988        12.0271 
 120   0.0000       0.442749        12.0478 
 121   0.0000       0.452163        12.3040 
 122   0.0000       0.458712        12.4822 
 123   0.0000       0.461263        12.5516 
 124   0.0000       0.464260        12.6332 
 125   0.0000       0.469494        12.7756 
 126   0.0000       0.478587        13.0230 
 127   0.0000       0.486070        13.2266 
 128   0.0000       0.493816        13.4374 
 129   0.0000       0.497182        13.5290 
 130   0.0000       0.505321        13.7505 
 131   0.0000       0.508101        13.8261 
 132   0.0000       0.515048        14.0152 
 133   0.0000       0.518242        14.1021 
 134   0.0000       0.526699        14.3322 
 135   0.0000       0.531949        14.4751 
 136   0.0000       0.536831        14.6079 
 137   0.0000       0.537794        14.6341 
 138   0.0000       0.545163        14.8346 
 139   0.0000       0.549640        14.9565 
 140   0.0000       0.550918        14.9912 
 141   0.0000       0.557927        15.1820 
 142   0.0000       0.566208        15.4073 
 143   0.0000       0.567800        15.4506 
 144   0.0000       0.572805        15.5868 
 145   0.0000       0.577867        15.7246 
 146   0.0000       0.580550        15.7976 
 147   0.0000       0.585112        15.9217 
 148   0.0000       0.587344        15.9824 
 149   0.0000       0.593531        16.1508 
 150   0.0000       0.599444        16.3117 
 151   0.0000       0.608921        16.5696 
 152   0.0000       0.611687        16.6449 
 153   0.0000       0.616809        16.7842 
 154   0.0000       0.620583        16.8869 
 155   0.0000       0.623666        16.9708 
 156   0.0000       0.628721        17.1084 
 157   0.0000       0.632775        17.2187 
 158   0.0000       0.635764        17.3000 
 159   0.0000       0.640250        17.4221 
 160   0.0000       0.643624        17.5139 
 161   0.0000       0.649589        17.6762 
 162   0.0000       0.654854        17.8195 
 163   0.0000       0.659517        17.9464 
 164   0.0000       0.666119        18.1260 
 165   0.0000       0.667010        18.1503 
 166   0.0000       0.673457        18.3257 
 167   0.0000       0.675216        18.3736 
 168   0.0000       0.680696        18.5227 
 169   0.0000       0.691714        18.8225 
 170   0.0000       0.693174        18.8622 
 171   0.0000       0.703330        19.1386 
 172   0.0000       0.711565        19.3627 
 173   0.0000       0.720442        19.6042 
 174   0.0000       0.728513        19.8238 
 175   0.0000       0.729847        19.8601 
 176   0.0000       0.734564        19.9885 
 177   0.0000       0.744526        20.2596 
 178   0.0000       0.745105        20.2753 
 179   0.0000       0.758374        20.6364 
 180   0.0000       0.765877        20.8406 
 181   0.0000       0.769505        20.9393 
 182   0.0000       0.779123        21.2010 
 183   0.0000       0.781606        21.2686 
 184   0.0000       0.793285        21.5864 
 185   0.0000       0.800194        21.7744 
 186   0.0000       0.812302        22.1039 
 187   0.0000       0.815973        22.2038 
 188   0.0000       0.834383        22.7047 
 189   0.0000       0.840868        22.8812 
 190   0.0000       0.844952        22.9923 
 191   0.0000       0.851658        23.1748 
 192   0.0000       0.861065        23.4308 
 193   0.0000       0.862386        23.4667 
 194   0.0000       0.866164        23.5695 
 195   0.0000       0.878394        23.9023 
 196   0.0000       0.884888        24.0790 
 197   0.0000       0.888669        24.1819 
 198   0.0000       0.896285        24.3891 
 199   0.0000       0.903148        24.5759 
 200   0.0000       0.905193        24.6315 
 201   0.0000       0.908843        24.7309 
 202   0.0000       0.920032        25.0353 
 203   0.0000       0.923972        25.1425 
 204   0.0000       0.930940        25.3322 
 205   0.0000       0.939761        25.5722 
 206   0.0000       0.955263        25.9940 
 207   0.0000       0.966445        26.2983 
 208   0.0000       0.970136        26.3987 
 209   0.0000       0.976527        26.5727 
 210   0.0000       0.983194        26.7541 
 211   0.0000       0.993145        27.0248 
 212   0.0000       1.000821        27.2337 
 213   0.0000       1.003423        27.3045 
 214   0.0000       1.010891        27.5077 
 215   0.0000       1.018870        27.7249 
 216   0.0000       1.021192        27.7880 
 217   0.0000       1.028195        27.9786 
 218   0.0000       1.033050        28.1107 
 219   0.0000       1.047971        28.5167 
 220   0.0000       1.052291        28.6343 
 221   0.0000       1.057896        28.7868 
 222   0.0000       1.059282        28.8245 
 223   0.0000       1.071300        29.1516 
 224   0.0000       1.080635        29.4056 
 225   0.0000       1.085604        29.5408 
 226   0.0000       1.089474        29.6461 
 227   0.0000       1.108271        30.1576 
 228   0.0000       1.110735        30.2246 
 229   0.0000       1.116430        30.3796 
 230   0.0000       1.126159        30.6444 
 231   0.0000       1.129036        30.7226 
 232   0.0000       1.134763        30.8785 
 233   0.0000       1.144726        31.1496 
 234   0.0000       1.153505        31.3885 
 235   0.0000       1.159121        31.5413 
 236   0.0000       1.165306        31.7096 
 237   0.0000       1.171830        31.8871 
 238   0.0000       1.184488        32.2315 
 239   0.0000       1.188891        32.3514 
 240   0.0000       1.198639        32.6166 
 241   0.0000       1.203415        32.7466 
 242   0.0000       1.212016        32.9806 
 243   0.0000       1.212855        33.0035 
 244   0.0000       1.218663        33.1615 
 245   0.0000       1.228795        33.4372 
 246   0.0000       1.238048        33.6890 
 247   0.0000       1.238997        33.7148 
 248   0.0000       1.248594        33.9760 
 249   0.0000       1.249566        34.0024 
 250   0.0000       1.257800        34.2265 
 251   0.0000       1.267337        34.4860 
 252   0.0000       1.271573        34.6013 
 253   0.0000       1.276911        34.7465 
 254   0.0000       1.282522        34.8992 
 255   0.0000       1.288894        35.0726 
 256   0.0000       1.299000        35.3476 
 257   0.0000       1.320793        35.9406 
 258   0.0000       1.331072        36.2203 
 259   0.0000       1.334862        36.3235 
 260   0.0000       1.343838        36.5677 
 261   0.0000       1.348835        36.7037 
 262   0.0000       1.356615        36.9154 
 263   0.0000       1.365663        37.1616 
 264   0.0000       1.373354        37.3708 
 265   0.0000       1.377199        37.4755 
 266   0.0000       1.386973        37.7415 
 267   0.0000       1.394652        37.9504 
 268   0.0000       1.402541        38.1651 
 269   0.0000       1.409672        38.3591 
 270   0.0000       1.414067        38.4787 
 271   0.0000       1.426578        38.8192 
 272   0.0000       1.432512        38.9806 
 273   0.0000       1.434794        39.0427 
 274   0.0000       1.451586        39.4997 
 275   0.0000       1.460079        39.7308 
 276   0.0000       1.462087        39.7854 
 277   0.0000       1.466832        39.9145 
 278   0.0000       1.479291        40.2536 
 279   0.0000       1.490035        40.5459 
 280   0.0000       1.492606        40.6159 
 281   0.0000       1.495483        40.6942 
 282   0.0000       1.502517        40.8856 
 283   0.0000       1.511970        41.1428 
 284   0.0000       1.521846        41.4115 
 285   0.0000       1.525475        41.5103 
 286   0.0000       1.531014        41.6610 
 287   0.0000       1.534062        41.7440 
 288   0.0000       1.537860        41.8473 
 289   0.0000       1.547093        42.0985 
 290   0.0000       1.556980        42.3676 
 291   0.0000       1.562387        42.5147 
 292   0.0000       1.573357        42.8132 
 293   0.0000       1.584757        43.1234 
 294   0.0000       1.589785        43.2602 
 295   0.0000       1.593004        43.3478 
 296   0.0000       1.600875        43.5620 
 297   0.0000       1.609551        43.7981 
 298   0.0000       1.614582        43.9350 
 299   0.0000       1.622093        44.1394 
 300   0.0000       1.636638        44.5352 
 301   0.0000       1.644458        44.7480 
 302   0.0000       1.648291        44.8523 
 303   0.0000       1.649476        44.8845 
 304   0.0000       1.656457        45.0745 
 305   0.0000       1.662680        45.2438 
 306   0.0000       1.679275        45.6954 
 307   0.0000       1.695416        46.1346 
 308   0.0000       1.704709        46.3875 
 309   0.0000       1.708782        46.4983 
 310   0.0000       1.718568        46.7646 
 311   0.0000       1.732287        47.1379 
 312   0.0000       1.742031        47.4031 
 313   0.0000       1.753354        47.7112 
 314   0.0000       1.756461        47.7957 
 315   0.0000       1.765384        48.0385 
 316   0.0000       1.773152        48.2499 
 317   0.0000       1.783575        48.5335 
 318   0.0000       1.795083        48.8467 
 319   0.0000       1.806196        49.1491 
 320   0.0000       1.809431        49.2371 
 321   0.0000       1.822949        49.6050 
 322   0.0000       1.826698        49.7070 
 323   0.0000       1.841966        50.1224 
 324   0.0000       1.845608        50.2215 
 325   0.0000       1.869369        50.8681 
 326   0.0000       1.890655        51.4473 
 327   0.0000       1.897579        51.6358 
 328   0.0000       1.911140        52.0048 
 329   0.0000       1.913269        52.0627 
 330   0.0000       1.922884        52.3243 
 331   0.0000       1.935008        52.6542 
 332   0.0000       1.937647        52.7261 
 333   0.0000       1.943349        52.8812 
 334   0.0000       1.953472        53.1567 
 335   0.0000       1.969482        53.5923 
 336   0.0000       1.991295        54.1859 
 337   0.0000       2.008652        54.6582 
 338   0.0000       2.010986        54.7217 
 339   0.0000       2.022065        55.0232 
 340   0.0000       2.038231        55.4631 
 341   0.0000       2.046585        55.6904 
 342   0.0000       2.054277        55.8997 
 343   0.0000       2.068835        56.2958 
 344   0.0000       2.078393        56.5559 
 345   0.0000       2.106262        57.3143 
 346   0.0000       2.118069        57.6356 
 347   0.0000       2.139535        58.2197 
 348   0.0000       2.144460        58.3537 
 349   0.0000       2.148764        58.4708 
 350   0.0000       2.156716        58.6872 
 351   0.0000       2.186066        59.4859 
 352   0.0000       2.195894        59.7533 
 353   0.0000       2.214210        60.2517 
 354   0.0000       2.222033        60.4646 
 355   0.0000       2.231775        60.7297 
 356   0.0000       2.252295        61.2881 
 357   0.0000       2.259236        61.4769 
 358   0.0000       2.288615        62.2764 
 359   0.0000       2.297157        62.5088 
 360   0.0000       2.311156        62.8897 
 361   0.0000       2.323296        63.2201 
 362   0.0000       2.328863        63.3716 
 363   0.0000       2.349169        63.9241 
 364   0.0000       2.360646        64.2364 
 365   0.0000       2.373014        64.5730 
 366   0.0000       2.380176        64.7679 
 367   0.0000       2.390144        65.0391 
 368   0.0000       2.411875        65.6305 
 369   0.0000       2.425927        66.0128 
 370   0.0000       2.426978        66.0414 
 371   0.0000       2.450339        66.6771 
 372   0.0000       2.460809        66.9620 
 373   0.0000       2.474304        67.3292 
 374   0.0000       2.485686        67.6390 
 375   0.0000       2.501143        68.0596 
 376   0.0000       2.510322        68.3093 
 377   0.0000       2.529715        68.8370 
 378   0.0000       2.544811        69.2478 
 379   0.0000       2.556409        69.5634 
 380   0.0000       2.558802        69.6285 
 381   0.0000       2.570451        69.9455 
 382   0.0000       2.584039        70.3153 
 383   0.0000       2.585494        70.3549 
 384   0.0000       2.599490        70.7357 
 385   0.0000       2.619130        71.2702 
 386   0.0000       2.626209        71.4628 
 387   0.0000       2.646343        72.0107 
 388   0.0000       2.651493        72.1508 
 389   0.0000       2.668870        72.6236 
 390   0.0000       2.680507        72.9403 
 391   0.0000       2.684692        73.0542 
 392   0.0000       2.698494        73.4297 
 393   0.0000       2.701520        73.5121 
 394   0.0000       2.722008        74.0696 
 395   0.0000       2.731472        74.3271 
 396   0.0000       2.739330        74.5410 
 397   0.0000       2.744326        74.6769 
 398   0.0000       2.756360        75.0044 
 399   0.0000       2.762133        75.1615 
 400   0.0000       2.774505        75.4981 
 401   0.0000       2.790070        75.9217 
 402   0.0000       2.791815        75.9691 
 403   0.0000       2.800550        76.2069 
 404   0.0000       2.806165        76.3596 
 405   0.0000       2.815834        76.6227 
 406   0.0000       2.828906        76.9784 
 407   0.0000       2.836018        77.1720 
 408   0.0000       2.854155        77.6655 
 409   0.0000       2.858915        77.7950 
 410   0.0000       2.859731        77.8172 
 411   0.0000       2.882751        78.4436 
 412   0.0000       2.891310        78.6765 
 413   0.0000       2.896038        78.8052 
 414   0.0000       2.907172        79.1082 
 415   0.0000       2.916064        79.3501 
 416   0.0000       2.921969        79.5108 
 417   0.0000       2.927741        79.6679 
 418   0.0000       2.935452        79.8777 
 419   0.0000       2.955789        80.4311 
 420   0.0000       2.959262        80.5256 
 421   0.0000       2.968544        80.7782 
 422   0.0000       2.980236        81.0964 
 423   0.0000       2.990264        81.3692 
 424   0.0000       2.998776        81.6008 
 425   0.0000       3.000261        81.6413 
 426   0.0000       3.020021        82.1789 
 427   0.0000       3.027877        82.3927 
 428   0.0000       3.029992        82.4503 
 429   0.0000       3.043190        82.8094 
 430   0.0000       3.045726        82.8784 
 431   0.0000       3.057258        83.1922 
 432   0.0000       3.061054        83.2955 
 433   0.0000       3.068625        83.5015 
 434   0.0000       3.074230        83.6541 
 435   0.0000       3.084096        83.9225 
 436   0.0000       3.089290        84.0639 
 437   0.0000       3.099260        84.3352 
 438   0.0000       3.100270        84.3626 
 439   0.0000       3.103777        84.4581 
 440   0.0000       3.112434        84.6936 
 441   0.0000       3.118760        84.8658 
 442   0.0000       3.123466        84.9938 
 443   0.0000       3.132051        85.2274 
 444   0.0000       3.138792        85.4109 
 445   0.0000       3.140249        85.4505 
 446   0.0000       3.158482        85.9467 
 447   0.0000       3.166956        86.1773 
 448   0.0000       3.174034        86.3699 
 449   0.0000       3.176404        86.4343 
 450   0.0000       3.184445        86.6532 
 451   0.0000       3.204718        87.2048 
 452   0.0000       3.206056        87.2412 
 453   0.0000       3.220989        87.6476 
 454   0.0000       3.225632        87.7739 
 455   0.0000       3.238920        88.1355 
 456   0.0000       3.241433        88.2039 
 457   0.0000       3.245234        88.3073 
 458   0.0000       3.257062        88.6292 
 459   0.0000       3.260890        88.7333 
 460   0.0000       3.270931        89.0065 
 461   0.0000       3.276610        89.1611 
 462   0.0000       3.283809        89.3570 
 463   0.0000       3.287098        89.4465 
 464   0.0000       3.297160        89.7203 
 465   0.0000       3.300742        89.8178 
 466   0.0000       3.303358        89.8889 
 467   0.0000       3.309094        90.0450 
 468   0.0000       3.313221        90.1573 
 469   0.0000       3.321936        90.3945 
 470   0.0000       3.324612        90.4673 
 471   0.0000       3.334751        90.7432 
 472   0.0000       3.346495        91.0627 
 473   0.0000       3.354048        91.2683 
 474   0.0000       3.359386        91.4135 
 475   0.0000       3.363714        91.5313 
 476   0.0000       3.370120        91.7056 
 477   0.0000       3.376829        91.8882 
 478   0.0000       3.382844        92.0519 
 479   0.0000       3.384404        92.0943 
 480   0.0000       3.396108        92.4128 
 481   0.0000       3.398471        92.4771 
 482   0.0000       3.403237        92.6068 
 483   0.0000       3.409458        92.7761 
 484   0.0000       3.415732        92.9468 
 485   0.0000       3.421853        93.1134 
 486   0.0000       3.424997        93.1989 
 487   0.0000       3.431473        93.3751 
 488   0.0000       3.434938        93.4694 
 489   0.0000       3.438939        93.5783 
 490   0.0000       3.444248        93.7228 
 491   0.0000       3.446755        93.7910 
 492   0.0000       3.461237        94.1851 
 493   0.0000       3.463418        94.2444 
 494   0.0000       3.473204        94.5107 
 495   0.0000       3.477033        94.6149 
 496   0.0000       3.487832        94.9087 
 497   0.0000       3.492460        95.0347 
 498   0.0000       3.494955        95.1026 
 499   0.0000       3.504996        95.3758 
 500   0.0000       3.510440        95.5239 
 501   0.0000       3.522928        95.8638 
 502   0.0000       3.524402        95.9039 
 503   0.0000       3.535647        96.2098 
 504   0.0000       3.544117        96.4403 
 505   0.0000       3.548845        96.5690 
 506   0.0000       3.551929        96.6529 
 507   0.0000       3.560323        96.8813 
 508   0.0000       3.566946        97.0615 
 509   0.0000       3.572316        97.2077 
 510   0.0000       3.585408        97.5639 
 511   0.0000       3.588771        97.6554 
 512   0.0000       3.599309        97.9422 
 513   0.0000       3.606927        98.1495 
 514   0.0000       3.615182        98.3741 
 515   0.0000       3.624214        98.6199 
 516   0.0000       3.627980        98.7223 
 517   0.0000       3.636347        98.9500 
 518   0.0000       3.644994        99.1853 
 519   0.0000       3.650239        99.3280 
 520   0.0000       3.653228        99.4094 
 521   0.0000       3.655972        99.4840 
 522   0.0000       3.660531        99.6081 
 523   0.0000       3.665752        99.7502 
 524   0.0000       3.675157       100.0061 
 525   0.0000       3.677619       100.0731 
 526   0.0000       3.687611       100.3450 
 527   0.0000       3.692325       100.4733 
 528   0.0000       3.697186       100.6055 
 529   0.0000       3.705212       100.8239 
 530   0.0000       3.712708       101.0279 
 531   0.0000       3.716284       101.1252 
 532   0.0000       3.720404       101.2373 
 533   0.0000       3.729058       101.4728 
 534   0.0000       3.741139       101.8016 
 535   0.0000       3.750865       102.0662 
 536   0.0000       3.756902       102.2305 
 537   0.0000       3.758646       102.2780 
 538   0.0000       3.772421       102.6528 
 539   0.0000       3.777933       102.8028 
 540   0.0000       3.780078       102.8612 
 541   0.0000       3.788811       103.0988 
 542   0.0000       3.796291       103.3023 
 543   0.0000       3.804507       103.5259 
 544   0.0000       3.808111       103.6240 
 545   0.0000       3.816098       103.8413 
 546   0.0000       3.821812       103.9968 
 547   0.0000       3.825300       104.0917 
 548   0.0000       3.831764       104.2676 
 549   0.0000       3.837908       104.4348 
 550   0.0000       3.842797       104.5678 
 551   0.0000       3.854965       104.8989 
 552   0.0000       3.860513       105.0499 
 553   0.0000       3.870677       105.3265 
 554   0.0000       3.878434       105.5375 
 555   0.0000       3.885256       105.7232 
 556   0.0000       3.892795       105.9283 
 557   0.0000       3.903393       106.2167 
 558   0.0000       3.922061       106.7247 
 559   0.0000       3.930622       106.9577 
 560   0.0000       3.931211       106.9737 
 561   0.0000       3.948862       107.4540 
 562   0.0000       3.955446       107.6332 
 563   0.0000       3.984681       108.4287 
 564   0.0000       3.986245       108.4712 
 565   0.0000       3.997909       108.7886 
 566   0.0000       4.006438       109.0207 
 567   0.0000       4.011309       109.1533 
 568   0.0000       4.013658       109.2172 
 569   0.0000       4.020292       109.3977 
 570   0.0000       4.029392       109.6453 
 571   0.0000       4.030696       109.6808 
 572   0.0000       4.043214       110.0215 
 573   0.0000       4.052898       110.2850 
 574   0.0000       4.057338       110.4058 
 575   0.0000       4.074291       110.8671 
 576   0.0000       4.076413       110.9248 
 577   0.0000       4.086667       111.2039 
 578   0.0000       4.100192       111.5719 
 579   0.0000       4.104694       111.6944 
 580   0.0000       4.109155       111.8158 
 581   0.0000       4.114003       111.9477 
 582   0.0000       4.118812       112.0786 
 583   0.0000       4.123006       112.1927 
 584   0.0000       4.137788       112.5949 
 585   0.0000       4.140302       112.6633 
 586   0.0000       4.148132       112.8764 
 587   0.0000       4.157793       113.1393 
 588   0.0000       4.160016       113.1998 
 589   0.0000       4.172568       113.5414 
 590   0.0000       4.181961       113.7969 
 591   0.0000       4.183901       113.8497 
 592   0.0000       4.188340       113.9705 
 593   0.0000       4.191783       114.0642 
 594   0.0000       4.196389       114.1896 
 595   0.0000       4.205604       114.4403 
 596   0.0000       4.210243       114.5665 
 597   0.0000       4.215609       114.7126 
 598   0.0000       4.232093       115.1611 
 599   0.0000       4.234569       115.2285 
 600   0.0000       4.243128       115.4614 
 601   0.0000       4.246803       115.5614 
 602   0.0000       4.255533       115.7989 
 603   0.0000       4.268555       116.1533 
 604   0.0000       4.276396       116.3666 
 605   0.0000       4.284494       116.5870 
 606   0.0000       4.288799       116.7042 
 607   0.0000       4.304528       117.1322 
 608   0.0000       4.313984       117.3895 
 609   0.0000       4.320278       117.5607 
 610   0.0000       4.325298       117.6973 
 611   0.0000       4.331080       117.8547 
 612   0.0000       4.345530       118.2479 
 613   0.0000       4.352457       118.4364 
 614   0.0000       4.361541       118.6836 
 615   0.0000       4.367894       118.8564 
 616   0.0000       4.374075       119.0246 
 617   0.0000       4.381075       119.2151 
 618   0.0000       4.391689       119.5039 
 619   0.0000       4.399996       119.7300 
 620   0.0000       4.406189       119.8985 
 621   0.0000       4.427279       120.4724 
 622   0.0000       4.439472       120.8042 
 623   0.0000       4.441550       120.8607 
 624   0.0000       4.447728       121.0288 
 625   0.0000       4.448334       121.0453 
 626   0.0000       4.460211       121.3685 
 627   0.0000       4.472046       121.6906 
 628   0.0000       4.478566       121.8680 
 629   0.0000       4.488029       122.1255 
 630   0.0000       4.494821       122.3103 
 631   0.0000       4.502804       122.5275 
 632   0.0000       4.515186       122.8644 
 633   0.0000       4.519049       122.9696 
 634   0.0000       4.533475       123.3621 
 635   0.0000       4.542453       123.6064 
 636   0.0000       4.549833       123.8072 
 637   0.0000       4.557049       124.0036 
 638   0.0000       4.558893       124.0538 
 639   0.0000       4.569147       124.3328 
 640   0.0000       4.579685       124.6196 
 641   0.0000       4.585176       124.7690 
 642   0.0000       4.591943       124.9531 
 643   0.0000       4.605274       125.3159 
 644   0.0000       4.617129       125.6385 
 645   0.0000       4.621693       125.7627 
 646   0.0000       4.634615       126.1143 
 647   0.0000       4.638206       126.2120 
 648   0.0000       4.645983       126.4236 
 649   0.0000       4.649351       126.5153 
 650   0.0000       4.657318       126.7321 
 651   0.0000       4.660478       126.8181 
 652   0.0000       4.672232       127.1379 
 653   0.0000       4.684139       127.4619 
 654   0.0000       4.687155       127.5440 
 655   0.0000       4.700583       127.9094 
 656   0.0000       4.719700       128.4296 
 657   0.0000       4.732423       128.7758 
 658   0.0000       4.740190       128.9871 
 659   0.0000       4.743643       129.0811 
 660   0.0000       4.751074       129.2833 
 661   0.0000       4.765953       129.6882 
 662   0.0000       4.780435       130.0822 
 663   0.0000       4.795114       130.4817 
 664   0.0000       4.803500       130.7099 
 665   0.0000       4.814370       131.0057 
 666   0.0000       4.836059       131.5958 
 667   0.0000       4.861544       132.2893 
 668   0.0000       4.876770       132.7036 
 669   0.0000       4.884706       132.9196 
 670   0.0000       4.898000       133.2813 
 671   0.0000       4.910656       133.6257 
 672   0.0000       4.943290       134.5138 
 673   0.0000       4.949357       134.6788 
 674   0.0000       4.975723       135.3963 
 675   0.0000       4.994374       135.9038 
 676   0.0000       5.007645       136.2649 
 677   0.0000       5.017804       136.5414 
 678   0.0000       5.031354       136.9101 
 679   0.0000       5.043610       137.2436 
 680   0.0000       5.053152       137.5033 
 681   0.0000       5.062972       137.7705 
 682   0.0000       5.067389       137.8907 
 683   0.0000       5.082895       138.3126 
 684   0.0000       5.097174       138.7012 
 685   0.0000       5.101768       138.8262 
 686   0.0000       5.109606       139.0395 
 687   0.0000       5.136462       139.7702 
 688   0.0000       5.150832       140.1613 
 689   0.0000       5.167855       140.6245 
 690   0.0000       5.172517       140.7513 
 691   0.0000       5.176730       140.8660 
 692   0.0000       5.182926       141.0346 
 693   0.0000       5.193309       141.3171 
 694   0.0000       5.200509       141.5130 
 695   0.0000       5.212567       141.8412 
 696   0.0000       5.221164       142.0751 
 697   0.0000       5.230890       142.3397 
 698   0.0000       5.233790       142.4187 
 699   0.0000       5.251425       142.8985 
 700   0.0000       5.280045       143.6773 
 701   0.0000       5.287352       143.8762 
 702   0.0000       5.297044       144.1399 
 703   0.0000       5.314323       144.6101 
 704   0.0000       5.319872       144.7611 
 705   0.0000       5.328573       144.9978 
 706   0.0000       5.352825       145.6578 
 707   0.0000       5.358093       145.8011 
 708   0.0000       5.361919       145.9052 
 709   0.0000       5.378527       146.3571 
 710   0.0000       5.395066       146.8072 
 711   0.0000       5.415316       147.3582 
 712   0.0000       5.425623       147.6387 
 713   0.0000       5.452993       148.3835 
 714   0.0000       5.471365       148.8834 
 715   0.0000       5.472993       148.9277 
 716   0.0000       5.485006       149.2546 
 717   0.0000       5.496754       149.5743 
 718   0.0000       5.513120       150.0196 
 719   0.0000       5.527145       150.4013 
 720   0.0000       5.531109       150.5091 
 721   0.0000       5.545012       150.8875 
 722   0.0000       5.563280       151.3845 
 723   0.0000       5.579739       151.8324 
 724   0.0000       5.588209       152.0629 
 725   0.0000       5.600633       152.4010 
 726   0.0000       5.605934       152.5452 
 727   0.0000       5.613328       152.7464 
 728   0.0000       5.630986       153.2269 
 729   0.0000       5.651525       153.7858 
 730   0.0000       5.658636       153.9793 
 731   0.0000       5.662768       154.0918 
 732   0.0000       5.675079       154.4267 
 733   0.0000       5.681661       154.6059 
 734   0.0000       5.693984       154.9412 
 735   0.0000       5.702339       155.1685 
 736   0.0000       5.705585       155.2569 
 737   0.0000       5.719561       155.6372 
 738   0.0000       5.744330       156.3112 
 739   0.0000       5.759515       156.7244 
 740   0.0000       5.776385       157.1834 
 741   0.0000       5.784247       157.3974 
 742   0.0000       5.803150       157.9117 
 743   0.0000       5.815502       158.2479 
 744   0.0000       5.831649       158.6872 
 745   0.0000       5.844184       159.0283 
 746   0.0000       5.849012       159.1597 
 747   0.0000       5.893166       160.3612 
 748   0.0000       5.919962       161.0904 
 749   0.0000       5.930008       161.3637 
 750   0.0000       5.960421       162.1913 
 751   0.0000       5.979224       162.7030 
 752   0.0000       5.985039       162.8612 
 753   0.0000       5.993615       163.0946 
 754   0.0000       6.027985       164.0298 
 755   0.0000       6.040308       164.3651 
 756   0.0000       6.057254       164.8263 
 757   0.0000       6.080615       165.4620 
 758   0.0000       6.090127       165.7208 
 759   0.0000       6.110689       166.2803 
 760   0.0000       6.124584       166.6584 
 761   0.0000       6.156698       167.5323 
 762   0.0000       6.184163       168.2796 
 763   0.0000       6.207188       168.9062 
 764   0.0000       6.232345       169.5907 
 765   0.0000       6.270783       170.6367 
 766   0.0000       6.280553       170.9025 
 767   0.0000       6.311902       171.7556 
 768   0.0000       6.338755       172.4863 
 769   0.0000       6.351456       172.8319 
 770   0.0000       6.353984       172.9007 
 771   0.0000       6.382128       173.6665 
 772   0.0000       6.402621       174.2242 
 773   0.0000       6.458328       175.7400 
 774   0.0000       6.465084       175.9239 
 775   0.0000       6.478958       176.3014 
 776   0.0000       6.496757       176.7857 
 777   0.0000       6.534507       177.8130 
 778   0.0000       6.556983       178.4246 
 779   0.0000       6.565370       178.6528 
 780   0.0000       6.641381       180.7212 
 781   0.0000       6.672876       181.5782 
 782   0.0000       6.706010       182.4798 
 783   0.0000       6.740679       183.4232 
 784   0.0000       6.757832       183.8899 
 785   0.0000       6.887252       187.4117 
 786   0.0000       6.913994       188.1393 
 787   0.0000       6.925512       188.4528 
 788   0.0000       6.954096       189.2306 
 789   0.0000       7.039151       191.5450 
 790   0.0000       7.053997       191.9490 
 791   0.0000       7.060340       192.1216 
 792   0.0000       7.087275       192.8545 
 793   0.0000       7.107647       193.4089 
 794   0.0000       7.230372       196.7484 
 795   0.0000       7.255854       197.4418 
 796   0.0000       7.267511       197.7590 
 797   0.0000       7.286167       198.2667 
 798   0.0000       7.346477       199.9078 
 799   0.0000       7.379458       200.8053 
 800   0.0000       7.449102       202.7004 
 801   0.0000       7.487385       203.7421 
 802   0.0000       7.581975       206.3160 
 803   0.0000       7.596679       206.7161 
 804   0.0000       7.683580       209.0808 
 805   0.0000       7.820104       212.7959 
 806   0.0000       7.843582       213.4347 
 807   0.0000       7.935555       215.9374 
 808   0.0000       7.970674       216.8931 
 809   0.0000       9.466544       257.5977 
 810   0.0000       9.505154       258.6484 
 811   0.0000      10.637130       289.4510 
 812   0.0000      11.176066       304.1162 
 813   0.0000      11.917464       324.2907 
 814   0.0000      12.597825       342.8042 
 815   0.0000      12.905634       351.1802 
 816   0.0000      12.953604       352.4855 
 817   0.0000      13.024035       354.4020 
 818   0.0000      13.079065       355.8995 
 819   0.0000      13.386038       364.2526 
 820   0.0000      13.424242       365.2922 
 821   0.0000      13.783378       375.0648 
 822   0.0000      13.825853       376.2206 
 823   0.0000      13.965215       380.0128 
 824   0.0000      14.064740       382.7210 
 825   0.0000      14.208167       386.6239 
 826   0.0000      14.536946       395.5704 
 827   0.0000      15.959953       434.2924 

                    ********************************
                    * MULLIKEN POPULATION ANALYSIS *
                    ********************************

-----------------------
MULLIKEN ATOMIC CHARGES
-----------------------
   0 C :   -0.295968
   1 C :    0.035525
   2 O :   -0.350074
   3 C :    0.452752
   4 O :   -0.420149
   5 C :   -0.127023
   6 C :    0.108518
   7 C :   -0.275874
   8 N :   -0.146086
   9 C :    0.214308
  10 S :   -0.435071
  11 N :   -0.204618
  12 C :    0.021843
  13 C :    0.046182
  14 C :   -0.202220
  15 C :   -0.124460
  16 C :   -0.274670
  17 C :    0.314841
  18 O :   -0.361384
  19 C :   -0.213870
  20 H :    0.121496
  21 H :    0.094443
  22 H :    0.093657
  23 H :    0.104108
  24 H :    0.105489
  25 H :    0.133284
  26 H :    0.120989
  27 H :    0.099333
  28 H :    0.196422
  29 H :    0.204856
  30 H :    0.131480
  31 H :    0.140927
  32 H :    0.157568
  33 H :    0.127395
  34 H :    0.240825
  35 H :    0.165228
Sum of atomic charges:    0.0000000

--------------------------------
MULLIKEN REDUCED ORBITAL CHARGES
--------------------------------
  0 C s       :     3.266211  s :     3.266211
      pz      :     0.990596  p :     2.954054
      px      :     0.949136
      py      :     1.014322
      dz2     :     0.014686  d :     0.071257
      dxz     :     0.018505
      dyz     :     0.013072
      dx2y2   :     0.008700
      dxy     :     0.016294
      f0      :     0.000400  f :     0.004446
      f+1     :     0.000865
      f-1     :     0.000420
      f+2     :     0.000815
      f-2     :     0.000906
      f+3     :     0.000632
      f-3     :     0.000408
  1 C s       :     3.163830  s :     3.163830
      pz      :     0.961180  p :     2.640580
      px      :     0.821787
      py      :     0.857613
      dz2     :     0.031507  d :     0.148677
      dxz     :     0.026444
      dyz     :     0.025396
      dx2y2   :     0.026722
      dxy     :     0.038609
      f0      :     0.000876  f :     0.011388
      f+1     :     0.001931
      f-1     :     0.001226
      f+2     :     0.001409
      f-2     :     0.002131
      f+3     :     0.001853
      f-3     :     0.001961
  2 O s       :     3.715606  s :     3.715606
      pz      :     1.491996  p :     4.598513
      px      :     1.481931
      py      :     1.624585
      dz2     :     0.007170  d :     0.033701
      dxz     :     0.006478
      dyz     :     0.006358
      dx2y2   :     0.004620
      dxy     :     0.009075
      f0      :     0.000281  f :     0.002255
      f+1     :     0.000545
      f-1     :     0.000165
      f+2     :     0.000346
      f-2     :     0.000487
      f+3     :     0.000212
      f-3     :     0.000219
  3 C s       :     3.069936  s :     3.069936
      pz      :     0.664420  p :     2.148587
      px      :     0.689992
      py      :     0.794175
      dz2     :     0.064366  d :     0.302388
      dxz     :     0.035243
      dyz     :     0.068041
      dx2y2   :     0.053870
      dxy     :     0.080868
      f0      :     0.003244  f :     0.026337
      f+1     :     0.002473
      f-1     :     0.004527
      f+2     :     0.004290
      f-2     :     0.003701
      f+3     :     0.004810
      f-3     :     0.003294
  4 O s       :     3.772946  s :     3.772946
      pz      :     1.590181  p :     4.609005
      px      :     1.636846
      py      :     1.381978
      dz2     :     0.004973  d :     0.035781
      dxz     :     0.001185
      dyz     :     0.010829
      dx2y2   :     0.010068
      dxy     :     0.008727
      f0      :     0.000234  f :     0.002416
      f+1     :     0.000010
      f-1     :     0.000469
      f+2     :     0.000545
      f-2     :     0.000167
      f+3     :     0.000480
      f-3     :     0.000510
  5 C s       :     3.166975  s :     3.166975
      pz      :     0.923977  p :     2.873269
      px      :     1.100085
      py      :     0.849207
      dz2     :     0.020028  d :     0.076267
      dxz     :     0.012464
      dyz     :     0.022880
      dx2y2   :     0.005564
      dxy     :     0.015330
      f0      :     0.001367  f :     0.010512
      f+1     :     0.001208
      f-1     :     0.001754
      f+2     :     0.001174
      f-2     :     0.001838
      f+3     :     0.001678
      f-3     :     0.001494
  6 C s       :     3.210250  s :     3.210250
      pz      :     0.938102  p :     2.492791
      px      :     0.772682
      py      :     0.782007
      dz2     :     0.034372  d :     0.174242
      dxz     :     0.026252
      dyz     :     0.043203
      dx2y2   :     0.029815
      dxy     :     0.040600
      f0      :     0.001716  f :     0.014199
      f+1     :     0.000995
      f-1     :     0.003184
      f+2     :     0.002327
      f-2     :     0.002432
      f+3     :     0.001627
      f-3     :     0.001919
  7 C s       :     3.270605  s :     3.270605
      pz      :     0.873966  p :     2.930740
      px      :     1.032230
      py      :     1.024544
      dz2     :     0.017489  d :     0.069845
      dxz     :     0.011916
      dyz     :     0.016439
      dx2y2   :     0.012448
      dxy     :     0.011554
      f0      :     0.001250  f :     0.004684
      f+1     :     0.000826
      f-1     :     0.000946
      f+2     :     0.000374
      f-2     :     0.000249
      f+3     :     0.000805
      f-3     :     0.000233
  8 N s       :     3.356505  s :     3.356505
      pz      :     1.035895  p :     3.725383
      px      :     1.591428
      py      :     1.098060
      dz2     :     0.016778  d :     0.059396
      dxz     :     0.008547
      dyz     :     0.020924
      dx2y2   :     0.007575
      dxy     :     0.005572
      f0      :     0.001142  f :     0.004802
      f+1     :     0.000651
      f-1     :     0.000977
      f+2     :     0.000567
      f-2     :     0.000391
      f+3     :     0.000538
      f-3     :     0.000537
  9 C s       :     3.154306  s :     3.154306
      pz      :     0.776969  p :     2.357287
      px      :     0.676065
      py      :     0.904252
      dz2     :     0.062473  d :     0.256734
      dxz     :     0.046774
      dyz     :     0.061489
      dx2y2   :     0.027024
      dxy     :     0.058974
      f0      :     0.003030  f :     0.017364
      f+1     :     0.002742
      f-1     :     0.003815
      f+2     :     0.001853
      f-2     :     0.001905
      f+3     :     0.002354
      f-3     :     0.001665
 10 S s       :     5.855488  s :     5.855488
      pz      :     3.694842  p :    10.484399
      px      :     3.608756
      py      :     3.180802
      dz2     :     0.005873  d :     0.085065
      dxz     :     0.005725
      dyz     :     0.033055
      dx2y2   :     0.023713
      dxy     :     0.016699
      f0      :     0.001483  f :     0.010118
      f+1     :     0.000027
      f-1     :     0.001120
      f+2     :     0.003119
      f-2     :     0.001266
      f+3     :     0.001428
      f-3     :     0.001675
 11 N s       :     3.386955  s :     3.386955
      pz      :     1.100079  p :     3.756153
      px      :     1.630601
      py      :     1.025473
      dz2     :     0.015510  d :     0.057004
      dxz     :     0.002294
      dyz     :     0.017570
      dx2y2   :     0.010351
      dxy     :     0.011279
      f0      :     0.000662  f :     0.004505
      f+1     :     0.000170
      f-1     :     0.000733
      f+2     :     0.000899
      f-2     :     0.000470
      f+3     :     0.000689
      f-3     :     0.000884
 12 C s       :     3.173818  s :     3.173818
      pz      :     0.840563  p :     2.615702
      px      :     0.993221
      py      :     0.781917
      dz2     :     0.038854  d :     0.177252
      dxz     :     0.026012
      dyz     :     0.037031
      dx2y2   :     0.046305
      dxy     :     0.029050
      f0      :     0.001484  f :     0.011385
      f+1     :     0.001256
      f-1     :     0.001831
      f+2     :     0.002140
      f-2     :     0.001473
      f+3     :     0.001772
      f-3     :     0.001430
 13 C s       :     3.128084  s :     3.128084
      pz      :     0.884634  p :     2.701924
      px      :     0.933919
      py      :     0.883371
      dz2     :     0.017186  d :     0.112434
      dxz     :     0.021758
      dyz     :     0.021778
      dx2y2   :     0.030230
      dxy     :     0.021482
      f0      :     0.001097  f :     0.011376
      f+1     :     0.001546
      f-1     :     0.001175
[...]
      f+2     :     0.004824
      f-2     :     0.007643
      f+3     :     0.008493
      f-3     :     0.007564
 15 C s       :     2.705417  s :     2.705417
      pz      :     0.886285  p :     2.792357
      px      :     0.964500
      py      :     0.941572
      dz2     :     0.082839  d :     0.415142
      dxz     :     0.071862
      dyz     :     0.053461
      dx2y2   :     0.078030
      dxy     :     0.128949
      f0      :     0.003070  f :     0.041019
      f+1     :     0.005678
      f-1     :     0.004803
      f+2     :     0.006653
      f-2     :     0.006462
      f+3     :     0.006588
      f-3     :     0.007763
 16 C s       :     2.701612  s :     2.701612
      pz      :     0.930585  p :     2.866212
      px      :     0.986660
      py      :     0.948967
      dz2     :     0.038074  d :     0.389789
      dxz     :     0.076710
      dyz     :     0.063466
      dx2y2   :     0.105233
      dxy     :     0.106306
      f0      :     0.003851  f :     0.040265
      f+1     :     0.006600
      f-1     :     0.001654
      f+2     :     0.004477
      f-2     :     0.006541
      f+3     :     0.007583
      f-3     :     0.009559
 17 C s       :     2.701729  s :     2.701729
      pz      :     0.848176  p :     2.679834
      px      :     0.846489
      py      :     0.985170
      dz2     :     0.115987  d :     0.707344
      dxz     :     0.149268
      dyz     :     0.092902
      dx2y2   :     0.185270
      dxy     :     0.163917
      f0      :     0.007959  f :     0.099188
      f+1     :     0.019073
      f-1     :     0.005620
      f+2     :     0.013637
      f-2     :     0.015796
      f+3     :     0.017984
      f-3     :     0.019119
 18 O s       :     3.177558  s :     3.177558
      pz      :     1.489422  p :     4.348490
      px      :     1.435277
      py      :     1.423791
      dz2     :     0.007139  d :     0.075420
      dxz     :     0.017683
      dyz     :     0.013316
      dx2y2   :     0.025352
      dxy     :     0.011931
      f0      :     0.000551  f :     0.005083
      f+1     :     0.000776
      f-1     :     0.000255
      f+2     :     0.001033
      f-2     :     0.000472
      f+3     :     0.001039
      f-3     :     0.000957
 19 C s       :     2.695454  s :     2.695454
      pz      :     0.926995  p :     2.846242
      px      :     0.968379
      py      :     0.950869
      dz2     :     0.067373  d :     0.386862
      dxz     :     0.066465
      dyz     :     0.057657
      dx2y2   :     0.078517
      dxy     :     0.116850
      f0      :     0.003193  f :     0.040701
      f+1     :     0.005420
      f-1     :     0.004577
      f+2     :     0.007017
      f-2     :     0.006671
      f+3     :     0.006256
      f-3     :     0.007568
 20 H s       :     0.842871  s :     0.842871
      pz      :     0.066512  p :     0.153416
      px      :     0.042459
      py      :     0.044445
      dz2     :     0.008866  d :     0.027511
      dxz     :     0.007236
      dyz     :     0.007149
      dx2y2   :     0.002135
      dxy     :     0.002125
 21 H s       :     0.847679  s :     0.847679
      pz      :     0.043596  p :     0.151823
      px      :     0.056138
      py      :     0.052090
      dz2     :     0.004121  d :     0.027472
      dxz     :     0.005495
      dyz     :     0.003725
      dx2y2   :     0.007959
      dxy     :     0.006172
 22 H s       :     0.850714  s :     0.850714
      pz      :     0.041312  p :     0.151379
      px      :     0.044487
      py      :     0.065580
      dz2     :     0.002419  d :     0.027579
      dxz     :     0.002313
      dyz     :     0.007494
      dx2y2   :     0.007354
      dxy     :     0.007999
 23 H s       :     0.854468  s :     0.854468
      pz      :     0.038568  p :     0.147364
      px      :     0.039667
      py      :     0.069130
      dz2     :     0.002635  d :     0.026990
      dxz     :     0.002672
      dyz     :     0.007339
      dx2y2   :     0.007199
      dxy     :     0.007145
 24 H s       :     0.855815  s :     0.855815
      pz      :     0.070157  p :     0.144319
      px      :     0.038860
      py      :     0.035302
      dz2     :     0.009847  d :     0.026890
      dxz     :     0.007508
      dyz     :     0.005827
      dx2y2   :     0.001278
      dxy     :     0.002430
 25 H s       :     0.828340  s :     0.828340
      pz      :     0.037055  p :     0.151762
      px      :     0.073995
      py      :     0.040713
      dz2     :     0.002518  d :     0.027702
      dxz     :     0.008154
      dyz     :     0.000513
      dx2y2   :     0.007157
      dxy     :     0.009359
 26 H s       :     0.833575  s :     0.833575
      pz      :     0.049032  p :     0.149887
      px      :     0.040552
      py      :     0.060303
      dz2     :     0.006580  d :     0.027714
      dxz     :     0.003343
      dyz     :     0.006953
      dx2y2   :     0.005012
      dxy     :     0.005826
 27 H s       :     0.843071  s :     0.843071
      pz      :     0.039824  p :     0.150421
      px      :     0.048979
      py      :     0.061618
      dz2     :     0.003818  d :     0.027680
      dxz     :     0.002872
      dyz     :     0.006454
      dx2y2   :     0.008489
      dxy     :     0.006047
 28 H s       :     0.745464  s :     0.745464
      pz      :     0.058582  p :     0.253166
      px      :     0.088660
      py      :     0.105923
      dz2     :     0.009334  d :     0.061707
      dxz     :     0.006060
      dyz     :     0.015897
      dx2y2   :     0.012756
      dxy     :     0.017659
 29 H s       :     0.750330  s :     0.750330
      pz      :     0.123023  p :     0.257091
      px      :     0.092583
      py      :     0.041486
      dz2     :     0.021021  d :     0.061105
      dxz     :     0.024179
      dyz     :     0.015214
      dx2y2   :     0.000420
      dxy     :     0.000272
 30 H s       :     0.832997  s :     0.832997
      pz      :     0.038578  p :     0.153043
      px      :     0.081879
      py      :     0.032586
      dz2     :     0.002773  d :     0.029310
      dxz     :     0.009426
      dyz     :     0.000657
      dx2y2   :     0.008046
      dxy     :     0.008408
 31 H s       :     0.845072  s :     0.845072
      pz      :     0.051695  p :     0.157368
      px      :     0.069834
      py      :     0.035838
      dz2     :     0.004538  d :     0.027550
      dxz     :     0.007831
      dyz     :     0.001971
      dx2y2   :     0.006419
      dxy     :     0.006791
 32 H s       :     0.843152  s :     0.843152
      pz      :     0.038036  p :     0.151245
      px      :     0.056593
      py      :     0.056616
      dz2     :     0.002709  d :     0.026487
      dxz     :     0.004051
      dyz     :     0.003959
      dx2y2   :     0.008074
      dxy     :     0.007694
 33 H s       :     0.849044  s :     0.849044
      pz      :     0.058051  p :     0.159094
      px      :     0.035482
      py      :     0.065561
      dz2     :     0.005891  d :     0.027793
      dxz     :     0.003276
      dyz     :     0.007353
      dx2y2   :     0.005525
      dxy     :     0.005748
 34 H s       :     0.706755  s :     0.706755
      pz      :     0.111483  p :     0.348257
      px      :     0.077867
      py      :     0.158907
      dz2     :     0.020223  d :     0.099710
      dxz     :     0.007927
      dyz     :     0.026649
      dx2y2   :     0.021864
      dxy     :     0.023046
 35 H s       :     0.840264  s :     0.840264
      pz      :     0.042428  p :     0.158248
      px      :     0.058027
      py      :     0.057793
      dz2     :     0.002739  d :     0.028038
      dxz     :     0.004812
      dyz     :     0.004152
      dx2y2   :     0.008633
      dxy     :     0.007702


                      *****************************
                      * MAYER POPULATION ANALYSIS *
                      *****************************

  NA   - Mulliken gross atomic population
  ZA   - Total nuclear charge
  QA   - Mulliken gross atomic charge
  VA   - Mayer's total valence
  BVA  - Mayer's bonded valence
  FA   - Mayer's free valence

  ATOM       NA         ZA         QA         VA         BVA        FA
  0 C      6.2960     6.0000    -0.2960     3.8734     3.8734    -0.0000
  1 C      5.9645     6.0000     0.0355     3.8558     3.8558     0.0000
  2 O      8.3501     8.0000    -0.3501     2.0618     2.0618    -0.0000
  3 C      5.5472     6.0000     0.4528     4.1566     4.1566     0.0000
  4 O      8.4201     8.0000    -0.4201     2.0732     2.0732     0.0000
  5 C      6.1270     6.0000    -0.1270     3.6242     3.6242     0.0000
  6 C      5.8915     6.0000     0.1085     3.8414     3.8414     0.0000
  7 C      6.2759     6.0000    -0.2759     3.8951     3.8951    -0.0000
  8 N      7.1461     7.0000    -0.1461     3.2854     3.2854     0.0000
  9 C      5.7857     6.0000     0.2143     4.1629     4.1629     0.0000
 10 S     16.4351    16.0000    -0.4351     1.7594     1.7594     0.0000
 11 N      7.2046     7.0000    -0.2046     3.2212     3.2212     0.0000
 12 C      5.9782     6.0000     0.0218     3.9571     3.9571     0.0000
 13 C      5.9538     6.0000     0.0462     3.7661     3.7661     0.0000
 14 C      6.2022     6.0000    -0.2022     3.9031     3.9031    -0.0000
 15 C      6.1245     6.0000    -0.1245     3.8169     3.8169    -0.0000
 16 C      6.2747     6.0000    -0.2747     3.8096     3.8096    -0.0000
 17 C      5.6852     6.0000     0.3148     3.8647     3.8647     0.0000
 18 O      8.3614     8.0000    -0.3614     2.1142     2.1142    -0.0000
 19 C      6.2139     6.0000    -0.2139     3.8249     3.8249     0.0000
 20 H      0.8785     1.0000     0.1215     0.9878     0.9878     0.0000
 21 H      0.9056     1.0000     0.0944     0.9842     0.9842    -0.0000
 22 H      0.9063     1.0000     0.0937     0.9839     0.9839    -0.0000
 23 H      0.8959     1.0000     0.1041     0.9853     0.9853     0.0000
 24 H      0.8945     1.0000     0.1055     0.9760     0.9760     0.0000
 25 H      0.8667     1.0000     0.1333     0.9790     0.9790    -0.0000
 26 H      0.8790     1.0000     0.1210     0.9846     0.9846    -0.0000
 27 H      0.9007     1.0000     0.0993     0.9843     0.9843     0.0000
 28 H      0.8036     1.0000     0.1964     1.0220     1.0220    -0.0000
 29 H      0.7951     1.0000     0.2049     1.0121     1.0121    -0.0000
 30 H      0.8685     1.0000     0.1315     0.9780     0.9780     0.0000
 31 H      0.8591     1.0000     0.1409     0.9902     0.9902    -0.0000
 32 H      0.8424     1.0000     0.1576     0.9783     0.9783     0.0000
 33 H      0.8726     1.0000     0.1274     0.9927     0.9927    -0.0000
 34 H      0.7592     1.0000     0.2408     1.0105     1.0105    -0.0000
 35 H      0.8348     1.0000     0.1652     0.9912     0.9912     0.0000

  Mayer bond orders larger than 0.100000
B(  0-C ,  1-C ) :   0.9638 B(  0-C , 20-H ) :   0.9734 B(  0-C , 21-H ) :   0.9764 
B(  0-C , 22-H ) :   0.9768 B(  1-C ,  2-O ) :   0.8950 B(  1-C , 23-H ) :   0.9772 
B(  1-C , 24-H ) :   0.9838 B(  2-O ,  3-C ) :   1.1536 B(  3-C ,  4-O ) :   1.9653 
B(  3-C ,  5-C ) :   1.0165 B(  5-C ,  6-C ) :   1.6802 B(  5-C , 12-C ) :   0.9409 
B(  6-C ,  7-C ) :   0.9662 B(  6-C ,  8-N ) :   1.1235 B(  7-C , 25-H ) :   0.9574 
B(  7-C , 26-H ) :   0.9734 B(  7-C , 27-H ) :   0.9841 B(  8-N ,  9-C ) :   1.1878 
B(  8-N , 28-H ) :   0.9516 B(  9-C , 10-S ) :   1.6118 B(  9-C , 11-N ) :   1.3080 
B( 11-N , 12-C ) :   0.9452 B( 11-N , 29-H ) :   0.9370 B( 12-C , 13-C ) :   1.0144 
B( 12-C , 30-H ) :   0.9937 B( 13-C , 14-C ) :   1.3759 B( 13-C , 19-C ) :   1.3375 
B( 14-C , 15-C ) :   1.4022 B( 14-C , 31-H ) :   0.9769 B( 15-C , 16-C ) :   1.3632 
B( 15-C , 32-H ) :   0.9718 B( 16-C , 17-C ) :   1.3367 B( 16-C , 33-H ) :   0.9856 
B( 17-C , 18-O ) :   1.0976 B( 17-C , 19-C ) :   1.3710 B( 18-O , 34-H ) :   0.9804 
B( 19-C , 35-H ) :   0.9566 

-------
TIMINGS
-------

Total SCF time: 0 days 1 hours 27 min 16 sec 

Total time                  ....    5236.720 sec
Sum of individual times     ....    5230.418 sec  ( 99.9%)

Fock matrix formation       ....    5218.475 sec  ( 99.7%)
Diagonalization             ....       1.170 sec  (  0.0%)
Density matrix formation    ....       0.209 sec  (  0.0%)
Population analysis         ....       0.349 sec  (  0.0%)
Initial guess               ....       4.530 sec  (  0.1%)
Orbital Transformation      ....       0.000 sec  (  0.0%)
Orbital Orthonormalization  ....       0.000 sec  (  0.0%)
DIIS solution               ....       2.576 sec  (  0.0%)
SOSCF solution              ....       1.871 sec  (  0.0%)

------------------------------------------------------------------------------
                                ORCA  MP2 
------------------------------------------------------------------------------

Freezing NCore=48 chemical core electrons

-------------
RI-MP2 ENERGY
-------------
Dimension of the basis                    ...  828
Memory devoted to MP2                     ...  256 MB   
Data format for buffers                   ... DOUBLE
Compression type for matrix containers    ... UNCOMPRESSED
Overall scaling of the MP2 energy         ...   1.000e+00
Calculating two index integrals           ... done (    0.039 sec)
Cholesky decomposition of V**-1           ... done (    0.322 sec)

-----------------
RI-TRANSFORMATION (AUX index driven)
-----------------

Dimension of the orbital-basis         ... 828
Dimension of the aux-basis             ... 2141
Transformation of internal/external MOs...   24-  76 to   77- 827
Number Format for Storage              ... Double (8 Byte)
Integral mode                          ... Direct

First Phase: integral generation and transformation of MO indices
  Aux angular momentum 0               ... done (    4.230 sec)
  Aux angular momentum 1               ... done (    6.632 sec)
  Aux angular momentum 2               ... done (    8.682 sec)
  Aux angular momentum 3               ... done (    6.865 sec)
  Aux angular momentum 4               ... done (    2.341 sec)
Closing buffer VIA ( 0.63 GB; CompressionRatio= 1.00)
  Phase 1 completed in    28.912 sec
Second Phase: sorting and transformation of aux index

IA-Transformation
Memory available                       ... 167 MB 
Max. # MO pairs treated in a batch     ... 12    
# of internal orbitals                 ... 53
# batches for internal orbitals        ... 5
Closing buffer IAV ( 0.63 GB; CompressionRatio= 1.00)
(ia|v) transformation done in    21.194 sec

  Phase 2 completed in    21.196 sec
RI-Integral transformation completed in    50.222 sec
Opening buffers                              ... done

Starting loop over batches of integrals:

Operator 0  - window                       ... ( 24- 76)x( 77-827)
Operator 0  - Memory available             ...   256 MB
Operator 0  - Memory needed per MO         ...  12.3 MB
Operator 0  - Number of orbitals per batch ... 13
Operator 0  - Number of batches            ... 5

OPERATOR  0   PASS   0:  MOs    24 ...   36
  Reading integrals       ... ok
  Internal MO  26
  Internal MO  29
  Internal MO  32
  Internal MO  35
OPERATOR  0   PASS   1:  MOs    37 ...   49
  Reading integrals       ... ok
  Internal MO  38
  Internal MO  41
  Internal MO  44
  Internal MO  47
OPERATOR  0   PASS   2:  MOs    50 ...   62
  Reading integrals       ... ok
  Internal MO  50
  Internal MO  53
  Internal MO  56
  Internal MO  59
  Internal MO  62
OPERATOR  0   PASS   3:  MOs    63 ...   75
  Reading integrals       ... ok
  Internal MO  65
  Internal MO  68
  Internal MO  71
  Internal MO  74
OPERATOR  0   PASS   4:  MOs    76 ...   76
  Reading integrals       ... ok
Time spent in pair loops =    76.760 sec
Deleting buffer (Ka|jb)[aa] ...done

-----------------------------------------------
 RI-MP2 CORRELATION ENERGY:     -3.534573433 Eh
-----------------------------------------------


-------
TIMINGS
-------

Total time                :  127.453 sec
Integral trafo            :   50.231 sec ( 39.4%)
I/O of integrals          :    4.121 sec (  3.2%)
K(i,j) Operators          :   45.845 sec ( 36.0%)
T(i,j) pair energies      :    7.977 sec (  6.3%)
V-calculation             :    0.039 sec (  0.0%)
V**(-1/2)                 :    0.322 sec (  0.3%)
Gamma(ia|P)               :    0.000 sec (  0.0%)
Gamma-Trafo               :    0.000 sec (  0.0%)
D(virtual)                :    0.000 sec (  0.0%)
D(internal)               :    0.000 sec (  0.0%)
W(virtual)                :    0.000 sec (  0.0%)
W(internal)               :    0.000 sec (  0.0%)
L(virtual)                :    0.000 sec (  0.0%)
L(internal)               :    0.000 sec (  0.0%)
G(D)                      :    0.000 sec (  0.0%)
G(Z)                      :    0.000 sec (  0.0%)
Z-Vector Solution         :    0.000 sec (  0.0%)
3-Index Derivative        :    0.000 sec (  0.0%)
2-Index Derivative        :    0.000 sec (  0.0%)
Separable Gradient        :    0.000 sec (  0.0%)


---------------------------------------
MP2 TOTAL ENERGY:    -1274.336357038 Eh
---------------------------------------

-------------------------   --------------------
FINAL SINGLE POINT ENERGY     -1274.336357037959
-------------------------   --------------------


                            ***************************************
                            *     ORCA property calculations      *
                            ***************************************


  WARNING: The energy has been calculated at the MP2 level but the densities
           used in the property calculations are still SCF densities
           MP2 response densities have not been calculated 
           use %mp2 Density relaxed end
           or  %mp2 Density unrelaxed end

                                    ---------------------
                                    Active property flags
                                    ---------------------
   (+) Dipole Moment


------------------------------------------------------------------------------
                       ORCA ELECTRIC PROPERTIES CALCULATION
------------------------------------------------------------------------------

Dipole Moment Calculation                       ... on
Quadrupole Moment Calculation                   ... off
Polarizability Calculation                      ... off
GBWName                                         ... G2_CONFS/Conf14.orca.gbw
Electron density file                           ... G2_CONFS/Conf14.orca.scfp
The origin for moment calculation is the CENTER OF MASS  = (31.653351, 32.988068 33.528905)

-------------
DIPOLE MOMENT
-------------
                                X             Y             Z
Electronic contribution:      8.25635       8.02827       9.72579
Nuclear contribution   :     -8.49822      -9.44430     -11.09660
                        -----------------------------------------
Total Dipole Moment    :     -0.24187      -1.41603      -1.37081
                        -----------------------------------------
Magnitude (a.u.)       :      1.98564
Magnitude (Debye)      :      5.04711



--------------------
Rotational spectrum 
--------------------
 
Rotational constants in cm-1:     0.011101     0.008387     0.005682 
Rotational constants in MHz :   332.787109   251.447584   170.339112 

 Dipole components along the rotational axes: 
x,y,z [a.u.] :     0.788086    -1.654621    -0.764154 
x,y,z [Debye]:     2.003155    -4.205712    -1.942324 

 

Timings for individual modules:

Sum of individual times         ...     5365.838 sec (=  89.431 min)
GTO integral calculation        ...        1.227 sec (=   0.020 min)   0.0 %
SCF iterations                  ...     5236.764 sec (=  87.279 min)  97.6 %
MP2 module                      ...      127.848 sec (=   2.131 min)   2.4 %
                             ****ORCA TERMINATED NORMALLY****
TOTAL RUN TIME: 0 days 1 hours 29 minutes 26 seconds 946 msec
