
                                 *****************
                                 * O   R   C   A *
                                 *****************

           --- An Ab Initio, DFT and Semiempirical electronic structure package ---

                  #######################################################
                  #                        -***-                        #
                  #          Department of theory and spectroscopy      #
                  #               Directorship: Frank Neese             #
                  #        Max Planck Institute fuer Kohlenforschung    #
                  #                Kaiser Wilhelm Platz 1               #
                  #                 D-45470 Muelheim/Ruhr               #
                  #                      Germany                        #
                  #                                                     #
                  #                  All rights reserved                #
                  #                        -***-                        #
                  #######################################################


                         Program Version 4.2.0 -  RELEASE  -


 With contributions from (in alphabetic order):
   Daniel Aravena         : Magnetic Suceptibility
   Michael Atanasov       : Ab Initio Ligand Field Theory (pilot matlab implementation)
   Alexander A. Auer      : GIAO ZORA, VPT2
   Ute Becker             : Parallelization
   Giovanni Bistoni       : ED, misc. LED, open-shell LED, HFLED
   Martin Brehm           : Molecular dynamics
   Dmytro Bykov           : SCF Hessian
   Vijay G. Chilkuri      : MRCI spin determinant printing, contributions to CSF-ICE
   Dipayan Datta          : RHF DLPNO-CCSD density
   Achintya Kumar Dutta   : EOM-CC, STEOM-CC
   Dmitry Ganyushin       : Spin-Orbit,Spin-Spin,Magnetic field MRCI
   Miquel Garcia          : C-PCM Hessian, Gaussian charge scheme
   Yang Guo               : DLPNO-NEVPT2, CIM, IAO-localization
   Andreas Hansen         : Spin unrestricted coupled pair/coupled cluster methods
   Benjamin Helmich-Paris : CASSCF linear response (MC-RPA)
   Lee Huntington         : MR-EOM, pCC
   Robert Izsak           : Overlap fitted RIJCOSX, COSX-SCS-MP3, EOM
   Christian Kollmar      : KDIIS, OOCD, Brueckner-CCSD(T), CCSD density
   Simone Kossmann        : Meta GGA functionals, TD-DFT gradient, OOMP2, MP2 Hessian
   Martin Krupicka        : AUTO-CI
   Lucas Lang             : DCDCAS
   Dagmar Lenk            : GEPOL surface, SMD
   Dimitrios Liakos       : Extrapolation schemes; Compound Job, initial MDCI parallelization
   Dimitrios Manganas     : Further ROCIS development; embedding schemes
   Dimitrios Pantazis     : SARC Basis sets
   Taras Petrenko         : DFT Hessian,TD-DFT gradient, ASA, ECA, R-Raman, ABS, FL, XAS/XES, NRVS
   Peter Pinski           : DLPNO-MP2, DLPNO-MP2 Gradient
   Christoph Reimann      : Effective Core Potentials
   Marius Retegan         : Local ZFS, SOC
   Christoph Riplinger    : Optimizer, TS searches, QM/MM, DLPNO-CCSD(T), (RO)-DLPNO pert. Triples
   Tobias Risthaus        : Range-separated hybrids, TD-DFT gradient, RPA, STAB
   Michael Roemelt        : Original ROCIS implementation
   Masaaki Saitow         : Open-shell DLPNO-CCSD energy and density
   Barbara Sandhoefer     : DKH picture change effects
   Avijit Sen             : IP-ROCIS
   Kantharuban Sivalingam : CASSCF convergence, NEVPT2, FIC-MRCI
   Bernardo de Souza      : ESD, SOC TD-DFT
   Georgi Stoychev        : AutoAux, RI-MP2 NMR
   Willem Van den Heuvel  : Paramagnetic NMR
   Boris Wezisla          : Elementary symmetry handling
   Frank Wennmohs         : Technical directorship


 We gratefully acknowledge several colleagues who have allowed us to
 interface, adapt or use parts of their codes:
   Stefan Grimme, W. Hujo, H. Kruse,             : VdW corrections, initial TS optimization,
                  C. Bannwarth                     DFT functionals, gCP, sTDA/sTD-DF
   Ed Valeev, F. Pavosevic, A. Kumar             : LibInt (2-el integral package), F12 methods
   Garnet Chan, S. Sharma, J. Yang, R. Olivares  : DMRG
   Ulf Ekstrom                                   : XCFun DFT Library
   Mihaly Kallay                                 : mrcc  (arbitrary order and MRCC methods)
   Andreas Klamt, Michael Diedenhofen            : otool_cosmo (COSMO solvation model)
   Jiri Pittner, Ondrej Demel                    : Mk-CCSD
   Frank Weinhold                                : gennbo (NPA and NBO analysis)
   Christopher J. Cramer and Donald G. Truhlar   : smd solvation model
   Lars Goerigk                                  : TD-DFT with DH, B97 family of functionals
   V. Asgeirsson, H. Jonsson                     : NEB implementation
   FAccTs GmbH                                   : IRC, NEB, NEB-TS, Multilevel, MM, QM/MM, CI optimization
   S Lehtola, MJT Oliveira, MAL Marques          : LibXC Library


 Your calculation uses the libint2 library for the computation of 2-el integrals
 For citations please refer to: http://libint.valeyev.net

 Your ORCA version has been built with support for libXC version: 4.2.3
 For citations please refer to: https://tddft.org/programs/libxc/

 This ORCA versions uses:
   CBLAS   interface :  Fast vector & matrix operations
   LAPACKE interface :  Fast linear algebra routines
   SCALAPACK package :  Parallel linear algebra routines


----- Orbital basis set information -----
Your calculation utilizes the basis: cc-pVTZ 
       H, B-Ne : Obtained from the ccRepo (grant-hill.group.shef.ac.uk/ccrepo) Feb. 2017
                 T. H. Dunning, Jr., J. Chem. Phys. 90, 1007 (1989)
            He : Obtained from the ccRepo (grant-hill.group.shef.ac.uk/ccrepo) Feb. 2017
                 D. E. Woon, T. H. Dunning, Jr., J. Chem. Phys. 100, 2975 (1994)
  Li-Be, Na-Mg : Obtained from the ccRepo (grant-hill.group.shef.ac.uk/ccrepo) Feb. 2017
                 B. P. Prascher, D. E. Woon, K. A. Peterson, T. H. Dunning, Jr., A. K. Wilson, Theor. Chem. Acc. 128, 69 (2011)
         Al-Ar : Obtained from the ccRepo (grant-hill.group.shef.ac.uk/ccrepo) Feb. 2017
                 D. E. Woon, T. H. Dunning, Jr., J. Chem. Phys. 98, 1358 (1993)
            Ca : Obtained from the Peterson Research Group Website (tyr0.chem.wsu.edu/~kipeters) Feb. 2017
                 J. Koput, K. A. Peterson, J. Phys. Chem. 106, 9595 (2002)
         Sc-Zn : Obtained from the ccRepo (grant-hill.group.shef.ac.uk/ccrepo) Feb. 2017
                 N. B. Balabanov, K. A. Peterson, J. Chem. Phys. 123, 064107 (2005)
                 N. B. Balabanov, K. A. Peterson, J. Chem. Phys. 125, 074110 (2006)
         Ga-Kr : Obtained from the ccRepo (grant-hill.group.shef.ac.uk/ccrepo) Feb. 2017
                 A. K. Wilson, D. E. Woon, K. A. Peterson, T. H. Dunning, Jr., J. Chem. Phys. 110, 7667 (1999)
             Y : Obtained from the ccRepo (grant-hill.group.shef.ac.uk/ccrepo) Feb. 2017
                 K. A. Peterson, D. Figgen, M. Dolg, H. Stoll, J. Chem. Phys. 126, 124101 (2007)
        Ag, Au : Obtained from the Peterson Research Group Website (tyr0.chem.wsu.edu/~kipeters) Feb. 2017
                 K. A. Peterson, C. Puzzarini, Theor. Chem. Acc. 114, 283 (2005)

----- AuxC basis set information -----
Your calculation utilizes the auxiliary basis: cc-pVTZ/C 
  Obtained from the EMSL Basis Set Exchange (bse.pnl.gov) Feb. 2017
  H-He, B-F, Al-Ar, Ga-Kr : F. Weigend, A. Kohn, C. Hattig, J. Chem. Phys. 116, 3175 (2002)
             Li-Be, Na-Mg : C. Haettig, Phys. Chem. Chem. Phys. 7, 59 (2005)
                       Ne : C. Haettig, Phys. Chem. Chem. Phys. 7, 59 (2005)
                            F. Weigend, A. Kohn, C. Hattig, J. Chem. Phys. 116, 3175 (2002)
                    Sc-Zn : J. G. Hill, J. A. Platts, J. Chem. Phys. 128, 044104 (2008)

================================================================================
                                        WARNINGS
                       Please study these warnings very carefully!
================================================================================


WARNING: No MP2 level density has been requested!
         To caclulate MP2 level properties use
         %mp2 Density relaxed end
         or
         %mp2 Density unrelaxed end

WARNING: Post HF methods need fully converged wavefunctions
  ===> : Setting SCFConvForced true
         You can overwrite this default with %scf ConvForced false 


INFO   : the flag for use of LIBINT has been found!

================================================================================
                                       INPUT FILE
================================================================================
NAME = G2_CONFS/Conf5.orca
|  1> ! ri-mp2 cc-pvtz cc-pvtz/c TightSCF NoKeepInts
|  2> 
|  3> %scf
|  4>   MaxCore 4096
|  5> end
|  6> *xyz  0  1
|  7>     C       14.1276550   15.4473069   14.2303051
|  8>     C       13.7079326   16.5455818   15.2278321
|  9>     O       14.8652792   17.3237510   15.5883804
| 10>     C       15.7821225   16.8312841   16.4755228
| 11>     O       15.6251430   15.7571351   17.0284870
| 12>     C       16.9642147   17.7405159   16.7001542
| 13>     C       17.3184270   18.7586482   15.8677798
| 14>     C       16.7419215   19.1197713   14.5148019
| 15>     N       18.1933687   19.7502433   16.3482182
| 16>     C       18.4219851   19.9557289   17.6934940
| 17>     S       19.0957470   21.3512042   18.2717507
| 18>     N       18.0446048   18.9208569   18.5189719
| 19>     C       17.8439470   17.5816605   17.9538831
| 20>     C       17.4807163   16.5289320   18.9961245
| 21>     C       18.2043267   15.3244140   19.0783572
| 22>     C       17.8819717   14.3626621   20.0507934
| 23>     C       16.8290921   14.6074404   20.9488787
| 24>     C       16.1075463   15.8065129   20.8694245
| 25>     O       15.0912788   16.0453668   21.7367260
| 26>     C       16.4351650   16.7661197   19.9067173
| 27>     H       14.8139210   14.7302411   14.6980739
| 28>     H       14.6248885   15.8854783   13.3564089
| 29>     H       13.2482363   14.8923233   13.8819743
| 30>     H       12.9685920   17.1991357   14.7475414
| 31>     H       13.2413911   16.1007875   16.1178008
| 32>     H       16.5915081   18.2232921   13.9006316
| 33>     H       17.4005635   19.7882535   13.9474057
| 34>     H       15.7717117   19.6201873   14.6274001
| 35>     H       18.4568416   20.5156687   15.7479297
| 36>     H       18.1915186   19.0452690   19.5128451
| 37>     H       18.8419257   17.3156257   17.5769954
| 38>     H       19.0122741   15.1279000   18.3794397
| 39>     H       18.4416032   13.4306945   20.1009254
| 40>     H       16.5737003   13.8654852   21.6976991
| 41>     H       14.9869765   15.2513756   22.2817945
| 42>     H       15.8589006   17.6831471   19.8565332
| 43> *
| 44> 
| 45>                          ****END OF INPUT****
================================================================================

                       ****************************
                       * Single Point Calculation *
                       ****************************

---------------------------------
CARTESIAN COORDINATES (ANGSTROEM)
---------------------------------
  C     14.127655   15.447307   14.230305
  C     13.707933   16.545582   15.227832
  O     14.865279   17.323751   15.588380
  C     15.782122   16.831284   16.475523
  O     15.625143   15.757135   17.028487
  C     16.964215   17.740516   16.700154
  C     17.318427   18.758648   15.867780
  C     16.741922   19.119771   14.514802
  N     18.193369   19.750243   16.348218
  C     18.421985   19.955729   17.693494
  S     19.095747   21.351204   18.271751
  N     18.044605   18.920857   18.518972
  C     17.843947   17.581661   17.953883
  C     17.480716   16.528932   18.996125
  C     18.204327   15.324414   19.078357
  C     17.881972   14.362662   20.050793
  C     16.829092   14.607440   20.948879
  C     16.107546   15.806513   20.869425
  O     15.091279   16.045367   21.736726
  C     16.435165   16.766120   19.906717
  H     14.813921   14.730241   14.698074
  H     14.624888   15.885478   13.356409
  H     13.248236   14.892323   13.881974
  H     12.968592   17.199136   14.747541
  H     13.241391   16.100787   16.117801
  H     16.591508   18.223292   13.900632
  H     17.400564   19.788253   13.947406
  H     15.771712   19.620187   14.627400
  H     18.456842   20.515669   15.747930
  H     18.191519   19.045269   19.512845
  H     18.841926   17.315626   17.576995
  H     19.012274   15.127900   18.379440
  H     18.441603   13.430694   20.100925
  H     16.573700   13.865485   21.697699
  H     14.986977   15.251376   22.281795
  H     15.858901   17.683147   19.856533

----------------------------
CARTESIAN COORDINATES (A.U.)
----------------------------
  NO LB      ZA    FRAG     MASS         X           Y           Z
   0 C     6.0000    0    12.011   26.697399   29.191180   26.891379
   1 C     6.0000    0    12.011   25.904238   31.266618   28.776432
   2 O     8.0000    0    15.999   28.091307   32.737145   29.457770
   3 C     6.0000    0    12.011   29.823889   31.806517   31.134226
   4 O     8.0000    0    15.999   29.527241   29.776670   32.179177
   5 C     6.0000    0    12.011   32.057720   33.524717   31.558718
   6 C     6.0000    0    12.011   32.727084   35.448708   29.985758
   7 C     6.0000    0    12.011   31.637647   36.131132   27.429000
   8 N     7.0000    0    14.007   34.380484   37.322551   30.893655
   9 C     6.0000    0    12.011   34.812507   37.710862   33.435858
  10 S    16.0000    0    32.060   36.085732   40.347929   34.528605
  11 N     7.0000    0    14.007   34.099361   35.755238   34.995785
  12 C     6.0000    0    12.011   33.720173   33.224523   33.927922
  13 C     6.0000    0    12.011   33.033766   31.235155   35.897473
  14 C     6.0000    0    12.011   34.401192   28.958946   36.052870
  15 C     6.0000    0    12.011   33.792029   27.141498   37.890508
  16 C     6.0000    0    12.011   31.802375   27.604062   39.587644
  17 C     6.0000    0    12.011   30.438851   29.869981   39.437497
  18 O     8.0000    0    15.999   28.518384   30.321349   41.076459
  19 C     6.0000    0    12.011   31.057961   31.683375   37.618244
  20 H     1.0000    0     1.008   27.994254   27.836122   27.775334
  21 H     1.0000    0     1.008   27.637034   30.019203   25.239955
  22 H     1.0000    0     1.008   25.035538   28.142413   26.233130
  23 H     1.0000    0     1.008   24.507087   32.501656   27.868814
  24 H     1.0000    0     1.008   25.022603   30.426079   30.458229
  25 H     1.0000    0     1.008   31.353406   34.437031   26.268387
  26 H     1.0000    0     1.008   32.882300   37.394380   26.356777
  27 H     1.0000    0     1.008   29.804216   37.076781   27.641780
  28 H     1.0000    0     1.008   34.878376   38.768995   29.759274
  29 H     1.0000    0     1.008   34.376988   35.990343   36.873933
  30 H     1.0000    0     1.008   35.606079   32.721790   33.215708
  31 H     1.0000    0     1.008   35.927991   28.587588   34.732108
  32 H     1.0000    0     1.008   34.849580   25.380334   37.985244
  33 H     1.0000    0     1.008   31.319755   26.201970   41.002709
  34 H     1.0000    0     1.008   28.321281   28.820923   42.106489
  35 H     1.0000    0     1.008   29.968979   33.416305   37.523410

--------------------------------
INTERNAL COORDINATES (ANGSTROEM)
--------------------------------
 C      0   0   0     0.000000000000     0.00000000     0.00000000
 C      1   0   0     1.541893240390     0.00000000     0.00000000
 O      2   1   0     1.440483784356   109.14809445     0.00000000
 C      3   2   1     1.367533152150   120.43035274   283.16041562
 O      4   3   2     1.218280773920   121.70641768   356.80428312
 C      4   3   2     1.508145782508   113.89169981   177.43853719
 C      6   4   3     1.361949659697   124.29863003   342.29216130
 C      7   6   4     1.514370391540   128.70317852   353.11533215
 N      7   6   4     1.406984320075   118.67822486   162.90297416
 C      9   7   6     1.379948103452   122.74190926   341.78453200
 S     10   9   7     1.653991300430   122.27268742   197.43048907
 N     10   9   7     1.376513607125   115.29316569    17.15651433
 C     12  10   9     1.467322698781   119.51828046    18.86623965
 C     13  12  10     1.525267508344   113.53663513   177.77970709
 C     14  13  12     1.407564506608   120.53899800   232.07682286
 C     15  14  13     1.405173165930   120.54399382   179.09382526
 C     16  15  14     1.405357276397   119.66321744   359.93216207
 C     17  16  15     1.401683335012   119.89654907     0.03171992
 O     18  17  16     1.357226108283   119.98523255   180.06783776
 C     18  17  16     1.398207558314   120.36577221   359.55724957
 H      1   2   3     1.097247480990   111.09666496    64.87347506
 H      1   2   3     1.096781608924   110.75194665   304.22496487
 H      1   2   3     1.096685183819   110.34422315   184.41893229
 H      2   1   3     1.097468167885   108.93115849   119.16882495
 H      2   1   3     1.098884537845   110.56142170   237.72842644
 H      8   7   6     1.097043437761   110.94704208   316.41603054
 H      8   7   6     1.096638583880   112.27012878   196.86069304
 H      8   7   6     1.097452315007   110.70895291    76.30104668
 H      9   7   6     1.007789807069   119.63401085   180.67933019
 H     12  10   9     1.012346765163   117.16567014   180.56512775
 H     13  12  10     1.099445468805   103.22227562    62.95315112
 H     15  14  13     1.086223929569   119.97424773   358.42166586
 H     16  15  14     1.088239054926   120.00387708   179.46827306
 H     17  16  15     1.084644864354   119.89719296   179.68421065
 H     19  18  17     0.968710826385   107.21390821   356.19543398
 H     20  18  17     1.084222465618   119.19669543   179.46778609

---------------------------
INTERNAL COORDINATES (A.U.)
---------------------------
 C      0   0   0     0.000000000000     0.00000000     0.00000000
 C      1   0   0     2.913755952082     0.00000000     0.00000000
 O      2   1   0     2.722119852788   109.14809445     0.00000000
 C      3   2   1     2.584263136621   120.43035274   283.16041562
 O      4   3   2     2.302217016930   121.70641768   356.80428312
 C      4   3   2     2.849982498969   113.89169981   177.43853719
 C      6   4   3     2.573711865015   124.29863003   342.29216130
 C      7   6   4     2.861745305329   128.70317852   353.11533215
 N      7   6   4     2.658815039664   118.67822486   162.90297416
 C      9   7   6     2.607723994549   122.74190926   341.78453200
 S     10   9   7     3.125590585700   122.27268742   197.43048907
 N     10   9   7     2.601233737082   115.29316569    17.15651433
 C     12  10   9     2.772838050783   119.51828046    18.86623965
 C     13  12  10     2.882337871738   113.53663513   177.77970709
 C     14  13  12     2.659911433316   120.53899800   232.07682286
 C     15  14  13     2.655392454342   120.54399382   179.09382526
 C     16  15  14     2.655740372705   119.66321744   359.93216207
 C     17  16  15     2.648797629655   119.89654907     0.03171992
 O     18  17  16     2.564785646462   119.98523255   180.06783776
 C     18  17  16     2.642229363593   120.36577221   359.55724957
 H      1   2   3     2.073497240206   111.09666496    64.87347506
 H      1   2   3     2.072616869589   110.75194665   304.22496487
 H      1   2   3     2.072434652546   110.34422315   184.41893229
 H      2   1   3     2.073914277998   108.93115849   119.16882495
 H      2   1   3     2.076590829327   110.56142170   237.72842644
 H      8   7   6     2.073111654384   110.94704208   316.41603054
 H      8   7   6     2.072346591425   112.27012878   196.86069304
 H      8   7   6     2.073884320402   110.70895291    76.30104668
 H      9   7   6     1.904446735917   119.63401085   180.67933019
 H     12  10   9     1.913058138718   117.16567014   180.56512775
 H     13  12  10     2.077650835222   103.22227562    62.95315112
 H     15  14  13     2.052665746998   119.97424773   358.42166586
 H     16  15  14     2.056473782047   120.00387708   179.46827306
 H     17  16  15     2.049681746194   119.89719296   179.68421065
 H     19  18  17     1.830598164832   107.21390821   356.19543398
 H     20  18  17     2.048883528263   119.19669543   179.46778609

---------------------
BASIS SET INFORMATION
---------------------
There are 5 groups of distinct atoms

 Group   1 Type C   : 18s5p2d1f contracted to 4s3p2d1f pattern {8811/311/11/1}
 Group   2 Type O   : 18s5p2d1f contracted to 4s3p2d1f pattern {8811/311/11/1}
 Group   3 Type N   : 18s5p2d1f contracted to 4s3p2d1f pattern {8811/311/11/1}
 Group   4 Type S   : 41s16p2d1f contracted to 5s4p2d1f pattern {13131311/7711/11/1}
 Group   5 Type H   : 5s2p1d contracted to 3s2p1d pattern {311/11/1}

Atom   0C    basis set group =>   1
Atom   1C    basis set group =>   1
Atom   2O    basis set group =>   2
Atom   3C    basis set group =>   1
Atom   4O    basis set group =>   2
Atom   5C    basis set group =>   1
Atom   6C    basis set group =>   1
Atom   7C    basis set group =>   1
Atom   8N    basis set group =>   3
Atom   9C    basis set group =>   1
Atom  10S    basis set group =>   4
Atom  11N    basis set group =>   3
Atom  12C    basis set group =>   1
Atom  13C    basis set group =>   1
Atom  14C    basis set group =>   1
Atom  15C    basis set group =>   1
Atom  16C    basis set group =>   1
Atom  17C    basis set group =>   1
Atom  18O    basis set group =>   2
Atom  19C    basis set group =>   1
Atom  20H    basis set group =>   5
Atom  21H    basis set group =>   5
Atom  22H    basis set group =>   5
Atom  23H    basis set group =>   5
Atom  24H    basis set group =>   5
Atom  25H    basis set group =>   5
Atom  26H    basis set group =>   5
Atom  27H    basis set group =>   5
Atom  28H    basis set group =>   5
Atom  29H    basis set group =>   5
Atom  30H    basis set group =>   5
Atom  31H    basis set group =>   5
Atom  32H    basis set group =>   5
Atom  33H    basis set group =>   5
Atom  34H    basis set group =>   5
Atom  35H    basis set group =>   5
---------------------------------
AUXILIARY/C BASIS SET INFORMATION
---------------------------------
There are 5 groups of distinct atoms

 Group   1 Type C   : 8s6p5d3f1g contracted to 8s6p5d3f1g pattern {11111111/111111/11111/111/1}
 Group   2 Type O   : 8s6p5d3f1g contracted to 8s6p5d3f1g pattern {11111111/111111/11111/111/1}
 Group   3 Type N   : 8s6p5d3f1g contracted to 8s6p5d3f1g pattern {11111111/111111/11111/111/1}
 Group   4 Type S   : 10s8p7d5f2g contracted to 10s8p7d5f2g pattern {1111111111/11111111/1111111/11111/11}
 Group   5 Type H   : 4s3p2d1f contracted to 4s3p2d1f pattern {1111/111/11/1}

Atom   0C    basis set group =>   1
Atom   1C    basis set group =>   1
Atom   2O    basis set group =>   2
Atom   3C    basis set group =>   1
Atom   4O    basis set group =>   2
Atom   5C    basis set group =>   1
Atom   6C    basis set group =>   1
Atom   7C    basis set group =>   1
Atom   8N    basis set group =>   3
Atom   9C    basis set group =>   1
Atom  10S    basis set group =>   4
Atom  11N    basis set group =>   3
Atom  12C    basis set group =>   1
Atom  13C    basis set group =>   1
Atom  14C    basis set group =>   1
Atom  15C    basis set group =>   1
Atom  16C    basis set group =>   1
Atom  17C    basis set group =>   1
Atom  18O    basis set group =>   2
Atom  19C    basis set group =>   1
Atom  20H    basis set group =>   5
Atom  21H    basis set group =>   5
Atom  22H    basis set group =>   5
Atom  23H    basis set group =>   5
Atom  24H    basis set group =>   5
Atom  25H    basis set group =>   5
Atom  26H    basis set group =>   5
Atom  27H    basis set group =>   5
Atom  28H    basis set group =>   5
Atom  29H    basis set group =>   5
Atom  30H    basis set group =>   5
Atom  31H    basis set group =>   5
Atom  32H    basis set group =>   5
Atom  33H    basis set group =>   5
Atom  34H    basis set group =>   5
Atom  35H    basis set group =>   5
------------------------------------------------------------------------------
                           ORCA GTO INTEGRAL CALCULATION
------------------------------------------------------------------------------

                         BASIS SET STATISTICS AND STARTUP INFO

 # of primitive gaussian shells          ...  682
 # of primitive gaussian functions       ... 1312
 # of contracted shells                  ...  298
 # of contracted basis functions         ...  828
 Highest angular momentum                ...    3
 Maximum contraction depth               ...   13
 Integral package used                   ... LIBINT
 Integral threshhold            Thresh   ...  2.500e-11
 Primitive cut-off              TCut     ...  2.500e-12


------------------------------ INTEGRAL EVALUATION ----------------------------


 * One electron integrals 
 Pre-screening matrix                    ... done
 Shell pair data                         ... done (   0.013 sec)

-------------------------------------------------------------------------------
                                 ORCA SCF
-------------------------------------------------------------------------------

------------
SCF SETTINGS
------------
Hamiltonian:
 Ab initio Hamiltonian  Method          .... Hartree-Fock(GTOs)


General Settings:
 Integral files         IntName         .... G2_CONFS/Conf5.orca
 Hartree-Fock type      HFTyp           .... RHF
 Total Charge           Charge          ....    0
 Multiplicity           Mult            ....    1
 Number of Electrons    NEL             ....  154
 Basis Dimension        Dim             ....  828
 Nuclear Repulsion      ENuc            ....   1675.4212737608 Eh

Convergence Acceleration:
 DIIS                   CNVDIIS         .... on
   Start iteration      DIISMaxIt       ....    12
   Startup error        DIISStart       ....  0.200000
   # of expansion vecs  DIISMaxEq       ....     5
   Bias factor          DIISBfac        ....   1.050
   Max. coefficient     DIISMaxC        ....  10.000
 Newton-Raphson         CNVNR           .... off
 SOSCF                  CNVSOSCF        .... on
   Start iteration      SOSCFMaxIt      ....   150
   Startup grad/error   SOSCFStart      ....  0.003300
 Level Shifting         CNVShift        .... on
   Level shift para.    LevelShift      ....    0.2500
   Turn off err/grad.   ShiftErr        ....    0.0010
 Zerner damping         CNVZerner       .... off
 Static damping         CNVDamp         .... on
   Fraction old density DampFac         ....    0.7000
   Max. Damping (<1)    DampMax         ....    0.9800
   Min. Damping (>=0)   DampMin         ....    0.0000
   Turn off err/grad.   DampErr         ....    0.1000
 Fernandez-Rico         CNVRico         .... off

SCF Procedure:
 Maximum # iterations   MaxIter         ....   125
 SCF integral mode      SCFMode         .... Direct
   Integral package                     .... LIBINT
 Reset frequency        DirectResetFreq ....    20
 Integral Threshold     Thresh          ....  2.500e-11 Eh
 Primitive CutOff       TCut            ....  2.500e-12 Eh

Convergence Tolerance:
 Convergence Check Mode ConvCheckMode   .... Total+1el-Energy
 Convergence forced     ConvForced      .... 1
 Energy Change          TolE            ....  1.000e-08 Eh
 1-El. energy change                    ....  1.000e-05 Eh
 Orbital Gradient       TolG            ....  1.000e-05
 Orbital Rotation angle TolX            ....  1.000e-05
 DIIS Error             TolErr          ....  5.000e-07


Diagonalization of the overlap matrix:
Smallest eigenvalue                        ... 3.516e-05
Time for diagonalization                   ...    0.102 sec
Threshold for overlap eigenvalues          ... 1.000e-08
Number of eigenvalues below threshold      ... 0
Time for construction of square roots      ...    0.127 sec
Total time needed                          ...    0.231 sec

-------------------
DFT GRID GENERATION
-------------------

General Integration Accuracy     IntAcc      ...  4.340
Radial Grid Type                 RadialGrid  ... Gauss-Chebyshev
Angular Grid (max. acc.)         AngularGrid ... Lebedev-110
Angular grid pruning method      GridPruning ... 3 (G Style)
Weight generation scheme         WeightScheme... Becke
Basis function cutoff            BFCut       ...    1.0000e-11
Integration weight cutoff        WCut        ...    1.0000e-14
Grids for H and He will be reduced by one unit

# of grid points (after initial pruning)     ...  46246 (   0.0 sec)
# of grid points (after weights+screening)   ...  41456 (   0.3 sec)
nearest neighbour list constructed           ...    0.0 sec
Grid point re-assignment to atoms done       ...    0.0 sec
Grid point division into batches done        ...    0.0 sec
Reduced shell lists constructed in    0.9 sec

Total number of grid points                  ...    41456
Total number of batches                      ...      664
Average number of points per batch           ...       62
Average number of grid points per atom       ...     1152
Average number of shells per batch           ...   142.19 (47.71%)
Average number of basis functions per batch  ...   361.25 (43.63%)
Average number of large shells per batch     ...    90.94 (63.96%)
Average number of large basis fcns per batch ...   235.24 (65.12%)
Maximum spatial batch extension              ...  19.74, 22.53, 21.52 au
Average spatial batch extension              ...   3.48,  3.38,  3.41 au

Time for grid setup =    1.230 sec

------------------------------
INITIAL GUESS: MODEL POTENTIAL
------------------------------
Loading Hartree-Fock densities                     ... done
Calculating cut-offs                               ... done
Setting up the integral package                    ... done
Initializing the effective Hamiltonian             ... done
Starting the Coulomb interaction                   ... done (   2.9 sec)
Reading the grid                                   ... done
Mapping shells                                     ... done
Starting the XC term evaluation                    ... done (   1.2 sec)
Transforming the Hamiltonian                       ... done (   0.1 sec)
Diagonalizing the Hamiltonian                      ... done (   0.1 sec)
Back transforming the eigenvectors                 ... done (   0.0 sec)
Now organizing SCF variables                       ... done
                      ------------------
                      INITIAL GUESS DONE (   5.9 sec)
                      ------------------
--------------
SCF ITERATIONS
--------------
ITER       Energy         Delta-E        Max-DP      RMS-DP      [F,P]     Damp
               ***  Starting incremental Fock matrix formation  ***
