
                                 *****************
                                 * O   R   C   A *
                                 *****************

           --- An Ab Initio, DFT and Semiempirical electronic structure package ---

                  #######################################################
                  #                        -***-                        #
                  #          Department of theory and spectroscopy      #
                  #               Directorship: Frank Neese             #
                  #        Max Planck Institute fuer Kohlenforschung    #
                  #                Kaiser Wilhelm Platz 1               #
                  #                 D-45470 Muelheim/Ruhr               #
                  #                      Germany                        #
                  #                                                     #
                  #                  All rights reserved                #
                  #                        -***-                        #
                  #######################################################


                         Program Version 4.2.0 -  RELEASE  -


 With contributions from (in alphabetic order):
   Daniel Aravena         : Magnetic Suceptibility
   Michael Atanasov       : Ab Initio Ligand Field Theory (pilot matlab implementation)
   Alexander A. Auer      : GIAO ZORA, VPT2
   Ute Becker             : Parallelization
   Giovanni Bistoni       : ED, misc. LED, open-shell LED, HFLED
   Martin Brehm           : Molecular dynamics
   Dmytro Bykov           : SCF Hessian
   Vijay G. Chilkuri      : MRCI spin determinant printing, contributions to CSF-ICE
   Dipayan Datta          : RHF DLPNO-CCSD density
   Achintya Kumar Dutta   : EOM-CC, STEOM-CC
   Dmitry Ganyushin       : Spin-Orbit,Spin-Spin,Magnetic field MRCI
   Miquel Garcia          : C-PCM Hessian, Gaussian charge scheme
   Yang Guo               : DLPNO-NEVPT2, CIM, IAO-localization
   Andreas Hansen         : Spin unrestricted coupled pair/coupled cluster methods
   Benjamin Helmich-Paris : CASSCF linear response (MC-RPA)
   Lee Huntington         : MR-EOM, pCC
   Robert Izsak           : Overlap fitted RIJCOSX, COSX-SCS-MP3, EOM
   Christian Kollmar      : KDIIS, OOCD, Brueckner-CCSD(T), CCSD density
   Simone Kossmann        : Meta GGA functionals, TD-DFT gradient, OOMP2, MP2 Hessian
   Martin Krupicka        : AUTO-CI
   Lucas Lang             : DCDCAS
   Dagmar Lenk            : GEPOL surface, SMD
   Dimitrios Liakos       : Extrapolation schemes; Compound Job, initial MDCI parallelization
   Dimitrios Manganas     : Further ROCIS development; embedding schemes
   Dimitrios Pantazis     : SARC Basis sets
   Taras Petrenko         : DFT Hessian,TD-DFT gradient, ASA, ECA, R-Raman, ABS, FL, XAS/XES, NRVS
   Peter Pinski           : DLPNO-MP2, DLPNO-MP2 Gradient
   Christoph Reimann      : Effective Core Potentials
   Marius Retegan         : Local ZFS, SOC
   Christoph Riplinger    : Optimizer, TS searches, QM/MM, DLPNO-CCSD(T), (RO)-DLPNO pert. Triples
   Tobias Risthaus        : Range-separated hybrids, TD-DFT gradient, RPA, STAB
   Michael Roemelt        : Original ROCIS implementation
   Masaaki Saitow         : Open-shell DLPNO-CCSD energy and density
   Barbara Sandhoefer     : DKH picture change effects
   Avijit Sen             : IP-ROCIS
   Kantharuban Sivalingam : CASSCF convergence, NEVPT2, FIC-MRCI
   Bernardo de Souza      : ESD, SOC TD-DFT
   Georgi Stoychev        : AutoAux, RI-MP2 NMR
   Willem Van den Heuvel  : Paramagnetic NMR
   Boris Wezisla          : Elementary symmetry handling
   Frank Wennmohs         : Technical directorship


 We gratefully acknowledge several colleagues who have allowed us to
 interface, adapt or use parts of their codes:
   Stefan Grimme, W. Hujo, H. Kruse,             : VdW corrections, initial TS optimization,
                  C. Bannwarth                     DFT functionals, gCP, sTDA/sTD-DF
   Ed Valeev, F. Pavosevic, A. Kumar             : LibInt (2-el integral package), F12 methods
   Garnet Chan, S. Sharma, J. Yang, R. Olivares  : DMRG
   Ulf Ekstrom                                   : XCFun DFT Library
   Mihaly Kallay                                 : mrcc  (arbitrary order and MRCC methods)
   Andreas Klamt, Michael Diedenhofen            : otool_cosmo (COSMO solvation model)
   Jiri Pittner, Ondrej Demel                    : Mk-CCSD
   Frank Weinhold                                : gennbo (NPA and NBO analysis)
   Christopher J. Cramer and Donald G. Truhlar   : smd solvation model
   Lars Goerigk                                  : TD-DFT with DH, B97 family of functionals
   V. Asgeirsson, H. Jonsson                     : NEB implementation
   FAccTs GmbH                                   : IRC, NEB, NEB-TS, Multilevel, MM, QM/MM, CI optimization
   S Lehtola, MJT Oliveira, MAL Marques          : LibXC Library


 Your calculation uses the libint2 library for the computation of 2-el integrals
 For citations please refer to: http://libint.valeyev.net

 Your ORCA version has been built with support for libXC version: 4.2.3
 For citations please refer to: https://tddft.org/programs/libxc/

 This ORCA versions uses:
   CBLAS   interface :  Fast vector & matrix operations
   LAPACKE interface :  Fast linear algebra routines
   SCALAPACK package :  Parallel linear algebra routines


----- Orbital basis set information -----
Your calculation utilizes the basis: cc-pVTZ 
       H, B-Ne : Obtained from the ccRepo (grant-hill.group.shef.ac.uk/ccrepo) Feb. 2017
                 T. H. Dunning, Jr., J. Chem. Phys. 90, 1007 (1989)
            He : Obtained from the ccRepo (grant-hill.group.shef.ac.uk/ccrepo) Feb. 2017
                 D. E. Woon, T. H. Dunning, Jr., J. Chem. Phys. 100, 2975 (1994)
  Li-Be, Na-Mg : Obtained from the ccRepo (grant-hill.group.shef.ac.uk/ccrepo) Feb. 2017
                 B. P. Prascher, D. E. Woon, K. A. Peterson, T. H. Dunning, Jr., A. K. Wilson, Theor. Chem. Acc. 128, 69 (2011)
         Al-Ar : Obtained from the ccRepo (grant-hill.group.shef.ac.uk/ccrepo) Feb. 2017
                 D. E. Woon, T. H. Dunning, Jr., J. Chem. Phys. 98, 1358 (1993)
            Ca : Obtained from the Peterson Research Group Website (tyr0.chem.wsu.edu/~kipeters) Feb. 2017
                 J. Koput, K. A. Peterson, J. Phys. Chem. 106, 9595 (2002)
         Sc-Zn : Obtained from the ccRepo (grant-hill.group.shef.ac.uk/ccrepo) Feb. 2017
                 N. B. Balabanov, K. A. Peterson, J. Chem. Phys. 123, 064107 (2005)
                 N. B. Balabanov, K. A. Peterson, J. Chem. Phys. 125, 074110 (2006)
         Ga-Kr : Obtained from the ccRepo (grant-hill.group.shef.ac.uk/ccrepo) Feb. 2017
                 A. K. Wilson, D. E. Woon, K. A. Peterson, T. H. Dunning, Jr., J. Chem. Phys. 110, 7667 (1999)
             Y : Obtained from the ccRepo (grant-hill.group.shef.ac.uk/ccrepo) Feb. 2017
                 K. A. Peterson, D. Figgen, M. Dolg, H. Stoll, J. Chem. Phys. 126, 124101 (2007)
        Ag, Au : Obtained from the Peterson Research Group Website (tyr0.chem.wsu.edu/~kipeters) Feb. 2017
                 K. A. Peterson, C. Puzzarini, Theor. Chem. Acc. 114, 283 (2005)

----- AuxC basis set information -----
Your calculation utilizes the auxiliary basis: cc-pVTZ/C 
  Obtained from the EMSL Basis Set Exchange (bse.pnl.gov) Feb. 2017
  H-He, B-F, Al-Ar, Ga-Kr : F. Weigend, A. Kohn, C. Hattig, J. Chem. Phys. 116, 3175 (2002)
             Li-Be, Na-Mg : C. Haettig, Phys. Chem. Chem. Phys. 7, 59 (2005)
                       Ne : C. Haettig, Phys. Chem. Chem. Phys. 7, 59 (2005)
                            F. Weigend, A. Kohn, C. Hattig, J. Chem. Phys. 116, 3175 (2002)
                    Sc-Zn : J. G. Hill, J. A. Platts, J. Chem. Phys. 128, 044104 (2008)

================================================================================
                                        WARNINGS
                       Please study these warnings very carefully!
================================================================================


WARNING: No MP2 level density has been requested!
         To caclulate MP2 level properties use
         %mp2 Density relaxed end
         or
         %mp2 Density unrelaxed end

WARNING: Post HF methods need fully converged wavefunctions
  ===> : Setting SCFConvForced true
         You can overwrite this default with %scf ConvForced false 


INFO   : the flag for use of LIBINT has been found!

================================================================================
                                       INPUT FILE
================================================================================
NAME = G2_CONFS/Conf2.orca
|  1> ! ri-mp2 cc-pvtz cc-pvtz/c TightSCF NoKeepInts
|  2> 
|  3> %scf
|  4>   MaxCore 4096
|  5> end
|  6> *xyz  0  1
|  7>     C       14.3925847   15.0104233   14.9089774
|  8>     C       14.1698475   15.6556409   16.2912477
|  9>     O       15.3543415   16.3784453   16.6710358
| 10>     C       15.6389916   17.5985315   16.1324742
| 11>     O       14.8903536   18.1332100   15.3311073
| 12>     C       16.9479865   18.1980726   16.5896985
| 13>     C       17.4680312   19.3055798   15.9936585
| 14>     C       16.9461516   20.0366244   14.7754639
| 15>     N       18.4721611   20.0315964   16.6594928
| 16>     C       18.6999150   19.9167728   18.0150852
| 17>     S       19.5700418   21.0367436   18.8660914
| 18>     N       18.1515317   18.8040896   18.6109892
| 19>     C       17.7654077   17.6549065   17.7841583
| 20>     C       17.2618671   16.4706925   18.6045071
| 21>     C       17.7970166   15.1840255   18.4049944
| 22>     C       17.3374006   14.0939134   19.1631197
| 23>     C       16.3364665   14.2915335   20.1295995
| 24>     C       15.8037078   15.5719731   20.3324029
| 25>     O       14.8356674   15.7649850   21.2633113
| 26>     C       16.2654577   16.6565268   19.5802162
| 27>     H       14.5138318   15.7744864   14.1311647
| 28>     H       13.5337370   14.3853072   14.6367235
| 29>     H       15.2885887   14.3777096   14.9178340
| 30>     H       13.2943299   16.3190024   16.2729032
| 31>     H       13.9824028   14.8641133   17.0281358
| 32>     H       16.7450953   19.3346940   13.9563554
| 33>     H       17.6507737   20.7859450   14.3963911
| 34>     H       16.0025080   20.5469381   15.0083848
| 35>     H       18.8569636   20.8572319   16.2282690
| 36>     H       18.2970192   18.6989806   19.6072186
| 37>     H       18.7214414   17.3327603   17.3467343
| 38>     H       18.5668932   15.0267299   17.6545190
| 39>     H       17.7552130   13.1021457   18.9993562
| 40>     H       15.9777572   13.4521658   20.7160700
| 41>     H       14.6634610   14.9101572   21.6858563
| 42>     H       15.8320565   17.6373490   19.7444488
| 43> *
| 44> 
| 45>                          ****END OF INPUT****
================================================================================

                       ****************************
                       * Single Point Calculation *
                       ****************************

---------------------------------
CARTESIAN COORDINATES (ANGSTROEM)
---------------------------------
  C     14.392585   15.010423   14.908977
  C     14.169847   15.655641   16.291248
  O     15.354342   16.378445   16.671036
  C     15.638992   17.598531   16.132474
  O     14.890354   18.133210   15.331107
  C     16.947986   18.198073   16.589699
  C     17.468031   19.305580   15.993659
  C     16.946152   20.036624   14.775464
  N     18.472161   20.031596   16.659493
  C     18.699915   19.916773   18.015085
  S     19.570042   21.036744   18.866091
  N     18.151532   18.804090   18.610989
  C     17.765408   17.654906   17.784158
  C     17.261867   16.470692   18.604507
  C     17.797017   15.184026   18.404994
  C     17.337401   14.093913   19.163120
  C     16.336467   14.291533   20.129600
  C     15.803708   15.571973   20.332403
  O     14.835667   15.764985   21.263311
  C     16.265458   16.656527   19.580216
  H     14.513832   15.774486   14.131165
  H     13.533737   14.385307   14.636724
  H     15.288589   14.377710   14.917834
  H     13.294330   16.319002   16.272903
  H     13.982403   14.864113   17.028136
  H     16.745095   19.334694   13.956355
  H     17.650774   20.785945   14.396391
  H     16.002508   20.546938   15.008385
  H     18.856964   20.857232   16.228269
  H     18.297019   18.698981   19.607219
  H     18.721441   17.332760   17.346734
  H     18.566893   15.026730   17.654519
  H     17.755213   13.102146   18.999356
  H     15.977757   13.452166   20.716070
  H     14.663461   14.910157   21.685856
  H     15.832056   17.637349   19.744449

----------------------------
CARTESIAN COORDINATES (A.U.)
----------------------------
  NO LB      ZA    FRAG     MASS         X           Y           Z
   0 C     6.0000    0    12.011   27.198043   28.365589   28.173884
   1 C     6.0000    0    12.011   26.777131   29.584874   30.785997
   2 O     8.0000    0    15.999   29.015500   30.950776   31.503692
   3 C     6.0000    0    12.011   29.553411   33.256405   30.485958
   4 O     8.0000    0    15.999   28.138690   34.266801   28.971594
   5 C     6.0000    0    12.011   32.027053   34.389373   31.349987
   6 C     6.0000    0    12.011   33.009795   36.482259   30.223634
   7 C     6.0000    0    12.011   32.023586   37.863733   27.921580
   8 N     7.0000    0    14.007   34.907326   37.854231   31.481879
   9 C     6.0000    0    12.011   35.337718   37.637246   34.043577
  10 S    16.0000    0    32.060   36.982019   39.753684   35.651746
  11 N     7.0000    0    14.007   34.301424   35.534580   35.169673
  12 C     6.0000    0    12.011   33.571755   33.362938   33.607189
  13 C     6.0000    0    12.011   32.620201   31.125098   35.157423
  14 C     6.0000    0    12.011   33.631487   28.693650   34.780399
  15 C     6.0000    0    12.011   32.762939   26.633636   36.213048
  16 C     6.0000    0    12.011   30.871448   27.007084   38.039430
  17 C     6.0000    0    12.011   29.864680   29.426765   38.422673
  18 O     8.0000    0    15.999   28.035348   29.791504   40.181835
  19 C     6.0000    0    12.011   30.737260   31.476274   37.001246
  20 H     1.0000    0     1.008   27.427167   29.809459   26.704031
  21 H     1.0000    0     1.008   25.575056   27.184291   27.659399
  22 H     1.0000    0     1.008   28.891246   27.169934   28.190621
  23 H     1.0000    0     1.008   25.122643   30.838445   30.751330
  24 H     1.0000    0     1.008   26.422912   28.089103   32.178513
  25 H     1.0000    0     1.008   31.643644   36.537277   26.373690
  26 H     1.0000    0     1.008   33.355128   39.279743   27.205236
  27 H     1.0000    0     1.008   30.240358   38.828086   28.361737
  28 H     1.0000    0     1.008   35.634497   39.414456   30.666984
  29 H     1.0000    0     1.008   34.576355   35.335952   37.052273
  30 H     1.0000    0     1.008   35.378397   32.754170   32.780577
  31 H     1.0000    0     1.008   35.086343   28.396404   33.362206
  32 H     1.0000    0     1.008   33.552490   24.759467   35.903580
  33 H     1.0000    0     1.008   30.193585   25.420909   39.147699
  34 H     1.0000    0     1.008   27.709925   28.176114   40.980329
  35 H     1.0000    0     1.008   29.918251   33.329759   37.311601

--------------------------------
INTERNAL COORDINATES (ANGSTROEM)
--------------------------------
 C      0   0   0     0.000000000000     0.00000000     0.00000000
 C      1   0   0     1.541618887363     0.00000000     0.00000000
 O      2   1   0     1.438649101622   109.14881512     0.00000000
 C      3   2   1     1.363702537893   121.13852934    77.17851037
 O      4   3   2     1.220052811079   121.56108722     1.44318654
 C      4   3   2     1.510619488596   114.60919664   182.53826668
 C      6   4   3     1.360985808027   121.43421580   169.84864750
 C      7   6   4     1.513533153768   127.86351936   354.76457483
 N      7   6   4     1.406667080231   119.04283254   163.03545698
 C      9   7   6     1.379379227414   122.68903522   341.36973719
 S     10   9   7     1.653985124894   122.42138869   197.10528929
 N     10   9   7     1.376186660485   115.28072150    17.08371436
 C     12  10   9     1.467434113647   119.60689804    19.07977469
 C     13  12  10     1.526069489671   113.05594277   176.14231910
 C     14  13  12     1.407729474615   120.50645269   231.19463128
 C     15  14  13     1.405113955707   120.54947023   179.77355330
 C     16  15  14     1.405349059940   119.66526380   359.90738295
 C     17  16  15     1.401601448603   119.91380717   359.96029084
 O     18  17  16     1.356814747401   120.02806705   179.88876935
 C     18  17  16     1.398304162187   120.34579302   359.82305461
 H      1   2   3     1.097035038785   111.11221974   294.96167918
 H      1   2   3     1.096590943032   110.36735767   175.29033230
 H      1   2   3     1.096917605633   110.62153225    55.53079408
 H      2   1   3     1.098597318526   110.66435648   122.34855039
 H      2   1   3     1.097568006568   108.95525048   241.06582369
 H      8   7   6     1.097300622886   110.79469888   310.72770857
 H      8   7   6     1.096207030215   112.75874383   190.48110752
 H      8   7   6     1.097786619469   110.49650665    69.57965695
 H      9   7   6     1.007819879023   119.52788953   180.50796064
 H     12  10   9     1.012268507839   116.92554279   180.49190463
 H     13  12  10     1.099599184015   102.99105232    62.36942491
 H     15  14  13     1.086584194166   119.97003976   359.32370479
 H     16  15  14     1.088571934366   120.00725154   179.80807388
 H     17  16  15     1.084969190844   119.89592341   179.90881404
 H     19  18  17     0.968983946657   107.48693428     0.96575886
 H     20  18  17     1.084813871167   119.20275256   179.30050468

---------------------------
INTERNAL COORDINATES (A.U.)
---------------------------
 C      0   0   0     0.000000000000     0.00000000     0.00000000
 C      1   0   0     2.913237499997     0.00000000     0.00000000
 O      2   1   0     2.718652804877   109.14881512     0.00000000
 C      3   2   1     2.577024324751   121.13852934    77.17851037
 O      4   3   2     2.305565681860   121.56108722     1.44318654
 C      4   3   2     2.854657126010   114.60919664   182.53826668
 C      6   4   3     2.571890449324   121.43421580   169.84864750
 C      7   6   4     2.860163155231   127.86351936   354.76457483
 N      7   6   4     2.658215543240   119.04283254   163.03545698
 C      9   7   6     2.606648974631   122.68903522   341.36973719
 S     10   9   7     3.125578915628   122.42138869   197.10528929
 N     10   9   7     2.600615897473   115.28072150    17.08371436
 C     12  10   9     2.773048594367   119.60689804    19.07977469
 C     13  12  10     2.883853396812   113.05594277   176.14231910
 C     14  13  12     2.660223177672   120.50645269   231.19463128
 C     15  14  13     2.655280563237   120.54947023   179.77355330
 C     16  15  14     2.655724845851   119.66526380   359.90738295
 C     17  16  15     2.648642886767   119.91380717   359.96029084
 O     18  17  16     2.564008287053   120.02806705   179.88876935
 C     18  17  16     2.642411918456   120.34579302   359.82305461
 H      1   2   3     2.073095782619   111.11221974   294.96167918
 H      1   2   3     2.072256563269   110.36735767   175.29033230
 H      1   2   3     2.072873866123   110.62153225    55.53079408
 H      2   1   3     2.076048063474   110.66435648   122.34855039
 H      2   1   3     2.074102945767   108.95525048   241.06582369
 H      8   7   6     2.073597663836   110.79469888   310.72770857
 H      8   7   6     2.071531073185   112.75874383   190.48110752
 H      8   7   6     2.074516064280   110.49650665    69.57965695
 H      9   7   6     1.904503563674   119.52788953   180.50796064
 H     12  10   9     1.912910253808   116.92554279   180.49190463
 H     13  12  10     2.077941314871   102.99105232    62.36942491
 H     15  14  13     2.053346548422   119.97003976   359.32370479
 H     16  15  14     2.057102833025   120.00725154   179.80807388
 H     17  16  15     2.050294634437   119.89592341   179.90881404
 H     19  18  17     1.831114287348   107.48693428     0.96575886
 H     20  18  17     2.050001122785   119.20275256   179.30050468

---------------------
BASIS SET INFORMATION
---------------------
There are 5 groups of distinct atoms

 Group   1 Type C   : 18s5p2d1f contracted to 4s3p2d1f pattern {8811/311/11/1}
 Group   2 Type O   : 18s5p2d1f contracted to 4s3p2d1f pattern {8811/311/11/1}
 Group   3 Type N   : 18s5p2d1f contracted to 4s3p2d1f pattern {8811/311/11/1}
 Group   4 Type S   : 41s16p2d1f contracted to 5s4p2d1f pattern {13131311/7711/11/1}
 Group   5 Type H   : 5s2p1d contracted to 3s2p1d pattern {311/11/1}

Atom   0C    basis set group =>   1
Atom   1C    basis set group =>   1
Atom   2O    basis set group =>   2
Atom   3C    basis set group =>   1
Atom   4O    basis set group =>   2
Atom   5C    basis set group =>   1
Atom   6C    basis set group =>   1
Atom   7C    basis set group =>   1
Atom   8N    basis set group =>   3
Atom   9C    basis set group =>   1
Atom  10S    basis set group =>   4
Atom  11N    basis set group =>   3
Atom  12C    basis set group =>   1
Atom  13C    basis set group =>   1
Atom  14C    basis set group =>   1
Atom  15C    basis set group =>   1
Atom  16C    basis set group =>   1
Atom  17C    basis set group =>   1
Atom  18O    basis set group =>   2
Atom  19C    basis set group =>   1
Atom  20H    basis set group =>   5
Atom  21H    basis set group =>   5
Atom  22H    basis set group =>   5
Atom  23H    basis set group =>   5
Atom  24H    basis set group =>   5
Atom  25H    basis set group =>   5
Atom  26H    basis set group =>   5
Atom  27H    basis set group =>   5
Atom  28H    basis set group =>   5
Atom  29H    basis set group =>   5
Atom  30H    basis set group =>   5
Atom  31H    basis set group =>   5
Atom  32H    basis set group =>   5
Atom  33H    basis set group =>   5
Atom  34H    basis set group =>   5
Atom  35H    basis set group =>   5
---------------------------------
AUXILIARY/C BASIS SET INFORMATION
---------------------------------
There are 5 groups of distinct atoms

 Group   1 Type C   : 8s6p5d3f1g contracted to 8s6p5d3f1g pattern {11111111/111111/11111/111/1}
 Group   2 Type O   : 8s6p5d3f1g contracted to 8s6p5d3f1g pattern {11111111/111111/11111/111/1}
 Group   3 Type N   : 8s6p5d3f1g contracted to 8s6p5d3f1g pattern {11111111/111111/11111/111/1}
 Group   4 Type S   : 10s8p7d5f2g contracted to 10s8p7d5f2g pattern {1111111111/11111111/1111111/11111/11}
 Group   5 Type H   : 4s3p2d1f contracted to 4s3p2d1f pattern {1111/111/11/1}

Atom   0C    basis set group =>   1
Atom   1C    basis set group =>   1
Atom   2O    basis set group =>   2
Atom   3C    basis set group =>   1
Atom   4O    basis set group =>   2
Atom   5C    basis set group =>   1
Atom   6C    basis set group =>   1
Atom   7C    basis set group =>   1
Atom   8N    basis set group =>   3
Atom   9C    basis set group =>   1
Atom  10S    basis set group =>   4
Atom  11N    basis set group =>   3
Atom  12C    basis set group =>   1
Atom  13C    basis set group =>   1
Atom  14C    basis set group =>   1
Atom  15C    basis set group =>   1
Atom  16C    basis set group =>   1
Atom  17C    basis set group =>   1
Atom  18O    basis set group =>   2
Atom  19C    basis set group =>   1
Atom  20H    basis set group =>   5
Atom  21H    basis set group =>   5
Atom  22H    basis set group =>   5
Atom  23H    basis set group =>   5
Atom  24H    basis set group =>   5
Atom  25H    basis set group =>   5
Atom  26H    basis set group =>   5
Atom  27H    basis set group =>   5
Atom  28H    basis set group =>   5
Atom  29H    basis set group =>   5
Atom  30H    basis set group =>   5
Atom  31H    basis set group =>   5
Atom  32H    basis set group =>   5
Atom  33H    basis set group =>   5
Atom  34H    basis set group =>   5
Atom  35H    basis set group =>   5
------------------------------------------------------------------------------
                           ORCA GTO INTEGRAL CALCULATION
------------------------------------------------------------------------------

                         BASIS SET STATISTICS AND STARTUP INFO

 # of primitive gaussian shells          ...  682
 # of primitive gaussian functions       ... 1312
 # of contracted shells                  ...  298
 # of contracted basis functions         ...  828
 Highest angular momentum                ...    3
 Maximum contraction depth               ...   13
 Integral package used                   ... LIBINT
 Integral threshhold            Thresh   ...  2.500e-11
 Primitive cut-off              TCut     ...  2.500e-12


------------------------------ INTEGRAL EVALUATION ----------------------------


 * One electron integrals 
 Pre-screening matrix                    ... done
 Shell pair data                         ... done (   0.013 sec)

-------------------------------------------------------------------------------
                                 ORCA SCF
-------------------------------------------------------------------------------

------------
SCF SETTINGS
------------
Hamiltonian:
 Ab initio Hamiltonian  Method          .... Hartree-Fock(GTOs)


General Settings:
 Integral files         IntName         .... G2_CONFS/Conf2.orca
 Hartree-Fock type      HFTyp           .... RHF
 Total Charge           Charge          ....    0
 Multiplicity           Mult            ....    1
 Number of Electrons    NEL             ....  154
 Basis Dimension        Dim             ....  828
 Nuclear Repulsion      ENuc            ....   1691.1846645246 Eh

Convergence Acceleration:
 DIIS                   CNVDIIS         .... on
   Start iteration      DIISMaxIt       ....    12
   Startup error        DIISStart       ....  0.200000
   # of expansion vecs  DIISMaxEq       ....     5
   Bias factor          DIISBfac        ....   1.050
   Max. coefficient     DIISMaxC        ....  10.000
 Newton-Raphson         CNVNR           .... off
 SOSCF                  CNVSOSCF        .... on
   Start iteration      SOSCFMaxIt      ....   150
   Startup grad/error   SOSCFStart      ....  0.003300
 Level Shifting         CNVShift        .... on
   Level shift para.    LevelShift      ....    0.2500
   Turn off err/grad.   ShiftErr        ....    0.0010
 Zerner damping         CNVZerner       .... off
 Static damping         CNVDamp         .... on
   Fraction old density DampFac         ....    0.7000
   Max. Damping (<1)    DampMax         ....    0.9800
   Min. Damping (>=0)   DampMin         ....    0.0000
   Turn off err/grad.   DampErr         ....    0.1000
 Fernandez-Rico         CNVRico         .... off

SCF Procedure:
 Maximum # iterations   MaxIter         ....   125
 SCF integral mode      SCFMode         .... Direct
   Integral package                     .... LIBINT
 Reset frequency        DirectResetFreq ....    20
 Integral Threshold     Thresh          ....  2.500e-11 Eh
 Primitive CutOff       TCut            ....  2.500e-12 Eh

Convergence Tolerance:
 Convergence Check Mode ConvCheckMode   .... Total+1el-Energy
 Convergence forced     ConvForced      .... 1
 Energy Change          TolE            ....  1.000e-08 Eh
 1-El. energy change                    ....  1.000e-05 Eh
 Orbital Gradient       TolG            ....  1.000e-05
 Orbital Rotation angle TolX            ....  1.000e-05
 DIIS Error             TolErr          ....  5.000e-07


Diagonalization of the overlap matrix:
Smallest eigenvalue                        ... 3.481e-05
Time for diagonalization                   ...    0.112 sec
Threshold for overlap eigenvalues          ... 1.000e-08
Number of eigenvalues below threshold      ... 0
Time for construction of square roots      ...    0.244 sec
Total time needed                          ...    0.358 sec

-------------------
DFT GRID GENERATION
-------------------

General Integration Accuracy     IntAcc      ...  4.340
Radial Grid Type                 RadialGrid  ... Gauss-Chebyshev
Angular Grid (max. acc.)         AngularGrid ... Lebedev-110
Angular grid pruning method      GridPruning ... 3 (G Style)
Weight generation scheme         WeightScheme... Becke
Basis function cutoff            BFCut       ...    1.0000e-11
Integration weight cutoff        WCut        ...    1.0000e-14
Grids for H and He will be reduced by one unit

# of grid points (after initial pruning)     ...  46246 (   0.0 sec)
# of grid points (after weights+screening)   ...  41367 (   0.3 sec)
nearest neighbour list constructed           ...    0.0 sec
Grid point re-assignment to atoms done       ...    0.0 sec
Grid point division into batches done        ...    0.0 sec
Reduced shell lists constructed in    0.9 sec

Total number of grid points                  ...    41367
Total number of batches                      ...      664
Average number of points per batch           ...       62
Average number of grid points per atom       ...     1149
Average number of shells per batch           ...   145.86 (48.95%)
Average number of basis functions per batch  ...   370.83 (44.79%)
Average number of large shells per batch     ...    93.61 (64.18%)
Average number of large basis fcns per batch ...   240.96 (64.98%)
Maximum spatial batch extension              ...  20.49, 25.60, 19.90 au
Average spatial batch extension              ...   3.36,  3.25,  3.34 au

Time for grid setup =    1.250 sec

------------------------------
INITIAL GUESS: MODEL POTENTIAL
------------------------------
Loading Hartree-Fock densities                     ... done
Calculating cut-offs                               ... done
Setting up the integral package                    ... done
Initializing the effective Hamiltonian             ... done
Starting the Coulomb interaction                   ... done (   3.0 sec)
Reading the grid                                   ... done
Mapping shells                                     ... done
Starting the XC term evaluation                    ... done (   1.2 sec)
Transforming the Hamiltonian                       ... done (   0.0 sec)
Diagonalizing the Hamiltonian                      ... done (   0.1 sec)
Back transforming the eigenvectors                 ... done (   0.0 sec)
Now organizing SCF variables                       ... done
                      ------------------
                      INITIAL GUESS DONE (   5.9 sec)
                      ------------------
--------------
SCF ITERATIONS
--------------
ITER       Energy         Delta-E        Max-DP      RMS-DP      [F,P]     Damp
               ***  Starting incremental Fock matrix formation  ***
  0  -1270.0060551338   0.000000000000 0.04929704  0.00042602  0.3047786 0.7000
  1  -1270.2736798559  -0.267624722182 0.03606915  0.00034195  0.1790883 0.7000
                               ***Turning on DIIS***
  2  -1270.4404358313  -0.166755975394 0.02583044  0.00023017  0.1096197 0.7000
  3  -1272.5821568489  -2.141721017574 0.06312107  0.00050107  0.0829133 0.0000
  4  -1270.7470475324   1.835109316507 0.00682815  0.00009113  0.0073718 0.0000
  5  -1270.8076251676  -0.060577635168 0.00293098  0.00004771  0.0045782 0.0000
                      *** Initiating the SOSCF procedure ***
                           *** Shutting down DIIS ***
                      *** Re-Reading the Fockian *** 
                      *** Removing any level shift *** 
ITER      Energy       Delta-E        Grad      Rot      Max-DP    RMS-DP
  6  -1270.78775959   0.0198655735  0.001534  0.001534  0.001653  0.000024
               *** Restarting incremental Fock matrix formation ***
  7  -1270.80219869  -0.0144390969  0.000846  0.002150  0.001238  0.000014
  8  -1270.80224041  -0.0000417202  0.000381  0.002262  0.001321  0.000015
  9  -1270.80225580  -0.0000153910  0.000150  0.000294  0.000352  0.000004
 10  -1270.80225764  -0.0000018361  0.000034  0.000103  0.000115  0.000001
 11  -1270.80225781  -0.0000001752  0.000023  0.000107  0.000055  0.000001
 12  -1270.80225787  -0.0000000588  0.000010  0.000042  0.000031  0.000000
 13  -1270.80225787  -0.0000000013  0.000004  0.000016  0.000008  0.000000
                  ***Gradient check signals convergence***
              ***Rediagonalizing the Fockian in SOSCF/NRSCF***

               *****************************************************
               *                     SUCCESS                       *
               *           SCF CONVERGED AFTER  14 CYCLES          *
               *****************************************************


----------------
TOTAL SCF ENERGY
----------------

Total Energy       :        -1270.80225786 Eh          -34580.28746 eV

Components:
Nuclear Repulsion  :         1691.18466452 Eh           46019.47431 eV
Electronic Energy  :        -2961.98692238 Eh          -80599.76177 eV
One Electron Energy:        -5103.70143932 Eh         -138878.77662 eV
Two Electron Energy:         2141.71451694 Eh           58279.01485 eV

Virial components:
Potential Energy   :        -2539.67660453 Eh          -69108.11380 eV
Kinetic Energy     :         1268.87434667 Eh           34527.82633 eV
Virial Ratio       :            2.00151939


---------------
SCF CONVERGENCE
---------------

  Last Energy change         ...    1.4164e-08  Tolerance :   1.0000e-08
  Last MAX-Density change    ...    2.2317e-06  Tolerance :   1.0000e-07
  Last RMS-Density change    ...    3.0198e-08  Tolerance :   5.0000e-09
  Last Orbital Gradient      ...    1.2939e-06  Tolerance :   1.0000e-05
  Last Orbital Rotation      ...    3.0074e-06  Tolerance :   1.0000e-05

             **** THE GBW FILE WAS UPDATED (G2_CONFS/Conf2.orca.gbw) ****
             **** DENSITY FILE WAS UPDATED (G2_CONFS/Conf2.orca.scfp) ****
             **** ENERGY FILE WAS UPDATED (G2_CONFS/Conf2.orca.en.tmp) ****
             **** THE GBW FILE WAS UPDATED (G2_CONFS/Conf2.orca.gbw) ****
             **** DENSITY FILE WAS UPDATED (G2_CONFS/Conf2.orca.scfp) ****
----------------
ORBITAL ENERGIES
----------------

  NO   OCC          E(Eh)            E(eV) 
   0   2.0000     -91.890361     -2500.4638 
   1   2.0000     -20.598701      -560.5192 
   2   2.0000     -20.595817      -560.4407 
   3   2.0000     -20.538182      -558.8723 
   4   2.0000     -15.631383      -425.3516 
   5   2.0000     -15.604288      -424.6143 
   6   2.0000     -11.393977      -310.0459 
   7   2.0000     -11.383738      -309.7673 
   8   2.0000     -11.334084      -308.4161 
   9   2.0000     -11.315543      -307.9116 
  10   2.0000     -11.308297      -307.7144 
  11   2.0000     -11.294677      -307.3438 
  12   2.0000     -11.268282      -306.6256 
  13   2.0000     -11.259429      -306.3846 
  14   2.0000     -11.257295      -306.3266 
  15   2.0000     -11.250799      -306.1498 
  16   2.0000     -11.245199      -305.9974 
  17   2.0000     -11.240801      -305.8777 
  18   2.0000     -11.239488      -305.8420 
  19   2.0000     -11.222670      -305.3844 
  20   2.0000      -8.895293      -242.0532 
  21   2.0000      -6.576842      -178.9650 
  22   2.0000      -6.574875      -178.9115 
  23   2.0000      -6.574255      -178.8946 
  24   2.0000      -1.448780       -39.4233 
  25   2.0000      -1.418382       -38.5961 
  26   2.0000      -1.350793       -36.7569 
  27   2.0000      -1.339536       -36.4506 
  28   2.0000      -1.236243       -33.6399 
  29   2.0000      -1.157678       -31.5020 
  30   2.0000      -1.117290       -30.4030 
  31   2.0000      -1.042904       -28.3789 
  32   2.0000      -1.033772       -28.1304 
  33   2.0000      -1.016960       -27.6729 
  34   2.0000      -0.995665       -27.0934 
  35   2.0000      -0.981755       -26.7149 
  36   2.0000      -0.918388       -24.9906 
  37   2.0000      -0.894148       -24.3310 
  38   2.0000      -0.846812       -23.0429 
  39   2.0000      -0.838249       -22.8099 
  40   2.0000      -0.831756       -22.6332 
  41   2.0000      -0.818805       -22.2808 
  42   2.0000      -0.754212       -20.5231 
  43   2.0000      -0.732694       -19.9376 
  44   2.0000      -0.713696       -19.4206 
  45   2.0000      -0.697251       -18.9732 
  46   2.0000      -0.689391       -18.7593 
  47   2.0000      -0.679502       -18.4902 
  48   2.0000      -0.668986       -18.2040 
  49   2.0000      -0.657363       -17.8878 
  50   2.0000      -0.653163       -17.7735 
  51   2.0000      -0.640778       -17.4365 
  52   2.0000      -0.632122       -17.2009 
  53   2.0000      -0.610677       -16.6174 
  54   2.0000      -0.607868       -16.5409 
  55   2.0000      -0.601548       -16.3690 
  56   2.0000      -0.594041       -16.1647 
  57   2.0000      -0.576511       -15.6877 
  58   2.0000      -0.572238       -15.5714 
  59   2.0000      -0.566336       -15.4108 
  60   2.0000      -0.560989       -15.2653 
  61   2.0000      -0.542396       -14.7593 
  62   2.0000      -0.534405       -14.5419 
  63   2.0000      -0.527413       -14.3516 
  64   2.0000      -0.520880       -14.1739 
  65   2.0000      -0.515031       -14.0147 
  66   2.0000      -0.500726       -13.6254 
  67   2.0000      -0.498080       -13.5534 
  68   2.0000      -0.480759       -13.0821 
  69   2.0000      -0.460327       -12.5261 
  70   2.0000      -0.450781       -12.2664 
  71   2.0000      -0.438265       -11.9258 
  72   2.0000      -0.359706        -9.7881 
  73   2.0000      -0.346375        -9.4253 
  74   2.0000      -0.329866        -8.9761 
  75   2.0000      -0.322643        -8.7796 
  76   2.0000      -0.316994        -8.6259 
  77   0.0000       0.077188         2.1004 
  78   0.0000       0.107380         2.9220 
  79   0.0000       0.123479         3.3600 
  80   0.0000       0.128865         3.5066 
  81   0.0000       0.131908         3.5894 
  82   0.0000       0.140844         3.8326 
  83   0.0000       0.149497         4.0680 
  84   0.0000       0.152077         4.1382 
  85   0.0000       0.165478         4.5029 
  86   0.0000       0.169052         4.6001 
  87   0.0000       0.177869         4.8401 
  88   0.0000       0.183898         5.0041 
  89   0.0000       0.197290         5.3685 
  90   0.0000       0.200554         5.4573 
  91   0.0000       0.207323         5.6415 
  92   0.0000       0.212789         5.7903 
  93   0.0000       0.218598         5.9484 
  94   0.0000       0.223625         6.0851 
  95   0.0000       0.234923         6.3926 
  96   0.0000       0.248254         6.7553 
  97   0.0000       0.250814         6.8250 
  98   0.0000       0.263993         7.1836 
  99   0.0000       0.268429         7.3043 
 100   0.0000       0.293837         7.9957 
 101   0.0000       0.305887         8.3236 
 102   0.0000       0.314708         8.5636 
 103   0.0000       0.319912         8.7053 
 104   0.0000       0.324635         8.8338 
 105   0.0000       0.328387         8.9359 
 106   0.0000       0.344520         9.3749 
 107   0.0000       0.350037         9.5250 
 108   0.0000       0.358914         9.7666 
 109   0.0000       0.361283         9.8310 
 110   0.0000       0.370119        10.0714 
 111   0.0000       0.378999        10.3131 
 112   0.0000       0.385103        10.4792 
 113   0.0000       0.386712        10.5230 
 114   0.0000       0.394136        10.7250 
 115   0.0000       0.396567        10.7912 
 116   0.0000       0.404960        11.0195 
 117   0.0000       0.418743        11.3946 
 118   0.0000       0.428994        11.6735 
 119   0.0000       0.440198        11.9784 
 120   0.0000       0.447913        12.1883 
 121   0.0000       0.452505        12.3133 
 122   0.0000       0.457233        12.4419 
 123   0.0000       0.458865        12.4864 
 124   0.0000       0.469540        12.7768 
 125   0.0000       0.472569        12.8592 
 126   0.0000       0.481206        13.0943 
 127   0.0000       0.483105        13.1460 
 128   0.0000       0.489579        13.3221 
 129   0.0000       0.497934        13.5495 
 130   0.0000       0.500875        13.6295 
 131   0.0000       0.510548        13.8927 
 132   0.0000       0.513520        13.9736 
 133   0.0000       0.515705        14.0331 
 134   0.0000       0.522764        14.2251 
 135   0.0000       0.528713        14.3870 
 136   0.0000       0.531956        14.4753 
 137   0.0000       0.539763        14.6877 
 138   0.0000       0.541150        14.7254 
 139   0.0000       0.548188        14.9169 
 140   0.0000       0.554390        15.0857 
 141   0.0000       0.554734        15.0951 
 142   0.0000       0.559981        15.2379 
 143   0.0000       0.567319        15.4375 
 144   0.0000       0.573041        15.5932 
 145   0.0000       0.574070        15.6212 
 146   0.0000       0.581709        15.8291 
 147   0.0000       0.589206        16.0331 
 148   0.0000       0.591911        16.1067 
 149   0.0000       0.595989        16.2177 
 150   0.0000       0.601278        16.3616 
 151   0.0000       0.605530        16.4773 
 152   0.0000       0.610918        16.6239 
 153   0.0000       0.616264        16.7694 
 154   0.0000       0.620591        16.8871 
 155   0.0000       0.625018        17.0076 
 156   0.0000       0.627057        17.0631 
 157   0.0000       0.632635        17.2149 
 158   0.0000       0.633946        17.2505 
 159   0.0000       0.640209        17.4210 
 160   0.0000       0.648221        17.6390 
 161   0.0000       0.655467        17.8362 
 162   0.0000       0.659948        17.9581 
 163   0.0000       0.662635        18.0312 
 164   0.0000       0.664370        18.0784 
 165   0.0000       0.668107        18.1801 
 166   0.0000       0.672376        18.2963 
 167   0.0000       0.676356        18.4046 
 168   0.0000       0.680397        18.5145 
 169   0.0000       0.689778        18.7698 
 170   0.0000       0.696475        18.9520 
 171   0.0000       0.701754        19.0957 
 172   0.0000       0.709429        19.3045 
 173   0.0000       0.716290        19.4912 
 174   0.0000       0.720137        19.5959 
 175   0.0000       0.723548        19.6887 
 176   0.0000       0.733671        19.9642 
 177   0.0000       0.737515        20.0688 
 178   0.0000       0.749768        20.4022 
 179   0.0000       0.756899        20.5963 
 180   0.0000       0.766460        20.8564 
 181   0.0000       0.772919        21.0322 
 182   0.0000       0.776274        21.1235 
 183   0.0000       0.787880        21.4393 
 184   0.0000       0.801770        21.8173 
 185   0.0000       0.809196        22.0193 
 186   0.0000       0.816075        22.2065 
 187   0.0000       0.820277        22.3209 
 188   0.0000       0.823980        22.4216 
 189   0.0000       0.836177        22.7535 
 190   0.0000       0.840440        22.8695 
 191   0.0000       0.850785        23.1510 
 192   0.0000       0.856265        23.3002 
 193   0.0000       0.860813        23.4239 
 194   0.0000       0.864928        23.5359 
 195   0.0000       0.872266        23.7356 
 196   0.0000       0.879878        23.9427 
 197   0.0000       0.885338        24.0913 
 198   0.0000       0.889962        24.2171 
 199   0.0000       0.895445        24.3663 
 200   0.0000       0.904135        24.6028 
 201   0.0000       0.916468        24.9383 
 202   0.0000       0.918482        24.9932 
 203   0.0000       0.928895        25.2765 
 204   0.0000       0.938724        25.5440 
 205   0.0000       0.947219        25.7751 
 206   0.0000       0.954370        25.9697 
 207   0.0000       0.962578        26.1931 
 208   0.0000       0.966932        26.3116 
 209   0.0000       0.968445        26.3527 
 210   0.0000       0.975054        26.5326 
 211   0.0000       0.986221        26.8364 
 212   0.0000       0.992194        26.9990 
 213   0.0000       0.999074        27.1862 
 214   0.0000       1.003884        27.3171 
 215   0.0000       1.015070        27.6214 
 216   0.0000       1.018047        27.7025 
 217   0.0000       1.029915        28.0254 
 218   0.0000       1.033169        28.1140 
 219   0.0000       1.039101        28.2754 
 220   0.0000       1.045873        28.4596 
 221   0.0000       1.051195        28.6045 
 222   0.0000       1.057778        28.7836 
 223   0.0000       1.075135        29.2559 
 224   0.0000       1.076942        29.3051 
 225   0.0000       1.078603        29.3503 
 226   0.0000       1.088453        29.6183 
 227   0.0000       1.103735        30.0342 
 228   0.0000       1.110357        30.2143 
 229   0.0000       1.115567        30.3561 
 230   0.0000       1.119600        30.4659 
 231   0.0000       1.127405        30.6782 
 232   0.0000       1.138082        30.9688 
 233   0.0000       1.145899        31.1815 
 234   0.0000       1.151825        31.3428 
 235   0.0000       1.162534        31.6341 
 236   0.0000       1.165738        31.7213 
 237   0.0000       1.172145        31.8957 
 238   0.0000       1.183370        32.2011 
 239   0.0000       1.189904        32.3789 
 240   0.0000       1.198642        32.6167 
 241   0.0000       1.201775        32.7020 
 242   0.0000       1.208908        32.8961 
 243   0.0000       1.216727        33.1088 
 244   0.0000       1.219240        33.1772 
 245   0.0000       1.223884        33.3036 
 246   0.0000       1.226909        33.3859 
 247   0.0000       1.242895        33.8209 
 248   0.0000       1.250372        34.0244 
 249   0.0000       1.258810        34.2540 
 250   0.0000       1.260673        34.3047 
 251   0.0000       1.264425        34.4067 
 252   0.0000       1.267717        34.4963 
 253   0.0000       1.283605        34.9287 
 254   0.0000       1.292370        35.1672 
 255   0.0000       1.304345        35.4930 
 256   0.0000       1.310913        35.6718 
 257   0.0000       1.323467        36.0134 
 258   0.0000       1.323745        36.0209 
 259   0.0000       1.332080        36.2478 
 260   0.0000       1.339231        36.4423 
 261   0.0000       1.352025        36.7905 
 262   0.0000       1.356887        36.9228 
 263   0.0000       1.368129        37.2287 
 264   0.0000       1.369430        37.2641 
 265   0.0000       1.384505        37.6743 
 266   0.0000       1.388174        37.7741 
 267   0.0000       1.392924        37.9034 
 268   0.0000       1.398429        38.0532 
 269   0.0000       1.412566        38.4379 
 270   0.0000       1.415418        38.5155 
 271   0.0000       1.428204        38.8634 
 272   0.0000       1.436990        39.1025 
 273   0.0000       1.446172        39.3523 
 274   0.0000       1.450573        39.4721 
 275   0.0000       1.454080        39.5675 
 276   0.0000       1.466379        39.9022 
 277   0.0000       1.469083        39.9758 
 278   0.0000       1.479696        40.2646 
 279   0.0000       1.490330        40.5539 
 280   0.0000       1.495515        40.6950 
 281   0.0000       1.502144        40.8754 
 282   0.0000       1.508105        41.0376 
 283   0.0000       1.511206        41.1220 
 284   0.0000       1.519251        41.3409 
 285   0.0000       1.522484        41.4289 
 286   0.0000       1.525507        41.5112 
 287   0.0000       1.532620        41.7047 
 288   0.0000       1.542114        41.9631 
 289   0.0000       1.546262        42.0759 
 290   0.0000       1.553237        42.2657 
 291   0.0000       1.553816        42.2815 
 292   0.0000       1.566485        42.6262 
 293   0.0000       1.576369        42.8952 
 294   0.0000       1.579575        42.9824 
 295   0.0000       1.590821        43.2884 
 296   0.0000       1.599168        43.5156 
 297   0.0000       1.609887        43.8073 
 298   0.0000       1.616149        43.9776 
 299   0.0000       1.621411        44.1208 
 300   0.0000       1.635586        44.5066 
 301   0.0000       1.638461        44.5848 
 302   0.0000       1.646008        44.7901 
 303   0.0000       1.655521        45.0490 
 304   0.0000       1.656219        45.0680 
 305   0.0000       1.660633        45.1881 
 306   0.0000       1.682503        45.7832 
 307   0.0000       1.691099        46.0171 
 308   0.0000       1.703548        46.3559 
 309   0.0000       1.716432        46.7065 
 310   0.0000       1.729221        47.0545 
 311   0.0000       1.733263        47.1645 
 312   0.0000       1.746295        47.5191 
 313   0.0000       1.748928        47.5907 
 314   0.0000       1.757984        47.8372 
 315   0.0000       1.773491        48.2591 
 316   0.0000       1.782948        48.5165 
 317   0.0000       1.791234        48.7420 
 318   0.0000       1.795108        48.8474 
 319   0.0000       1.808515        49.2122 
 320   0.0000       1.815008        49.3889 
 321   0.0000       1.821865        49.5755 
 322   0.0000       1.829866        49.7932 
 323   0.0000       1.840451        50.0812 
 324   0.0000       1.846681        50.2507 
 325   0.0000       1.863807        50.7168 
 326   0.0000       1.884254        51.2732 
 327   0.0000       1.896968        51.6191 
 328   0.0000       1.910066        51.9755 
 329   0.0000       1.914621        52.0995 
 330   0.0000       1.923314        52.3360 
 331   0.0000       1.928631        52.4807 
 332   0.0000       1.934296        52.6349 
 333   0.0000       1.950159        53.0665 
 334   0.0000       1.957282        53.2603 
 335   0.0000       1.964056        53.4447 
 336   0.0000       1.972499        53.6744 
 337   0.0000       1.998809        54.3904 
 338   0.0000       2.010902        54.7194 
 339   0.0000       2.011763        54.7428 
 340   0.0000       2.025876        55.1269 
 341   0.0000       2.032817        55.3158 
 342   0.0000       2.045472        55.6601 
 343   0.0000       2.063134        56.1407 
 344   0.0000       2.092161        56.9306 
 345   0.0000       2.100347        57.1534 
 346   0.0000       2.111389        57.4538 
 347   0.0000       2.126615        57.8681 
 348   0.0000       2.140116        58.2355 
 349   0.0000       2.144087        58.3436 
 350   0.0000       2.165391        58.9233 
 351   0.0000       2.187211        59.5170 
 352   0.0000       2.202209        59.9251 
 353   0.0000       2.210705        60.1563 
 354   0.0000       2.218771        60.3758 
 355   0.0000       2.249679        61.2169 
 356   0.0000       2.268531        61.7299 
 357   0.0000       2.273379        61.8618 
 358   0.0000       2.288986        62.2865 
 359   0.0000       2.297624        62.5215 
 360   0.0000       2.309305        62.8394 
 361   0.0000       2.328861        63.3715 
 362   0.0000       2.339089        63.6499 
 363   0.0000       2.345502        63.8244 
 364   0.0000       2.357691        64.1560 
 365   0.0000       2.363714        64.3199 
 366   0.0000       2.374067        64.6016 
 367   0.0000       2.394478        65.1570 
 368   0.0000       2.415019        65.7160 
 369   0.0000       2.421195        65.8841 
 370   0.0000       2.435557        66.2749 
 371   0.0000       2.447243        66.5929 
 372   0.0000       2.456502        66.8448 
 373   0.0000       2.473882        67.3177 
 374   0.0000       2.476382        67.3858 
 375   0.0000       2.488294        67.7099 
 376   0.0000       2.509642        68.2908 
 377   0.0000       2.518283        68.5260 
 378   0.0000       2.525320        68.7174 
 379   0.0000       2.540811        69.1390 
 380   0.0000       2.561791        69.7099 
 381   0.0000       2.570041        69.9344 
 382   0.0000       2.571305        69.9688 
 383   0.0000       2.591079        70.5068 
 384   0.0000       2.608519        70.9814 
 385   0.0000       2.608934        70.9927 
 386   0.0000       2.625980        71.4565 
 387   0.0000       2.644504        71.9606 
 388   0.0000       2.649180        72.0878 
 389   0.0000       2.666151        72.5497 
 390   0.0000       2.683465        73.0208 
 391   0.0000       2.694547        73.3223 
 392   0.0000       2.697536        73.4037 
 393   0.0000       2.711853        73.7933 
 394   0.0000       2.714251        73.8585 
 395   0.0000       2.726922        74.2033 
 396   0.0000       2.730368        74.2971 
 397   0.0000       2.741670        74.6046 
 398   0.0000       2.754123        74.9435 
 399   0.0000       2.764364        75.2222 
 400   0.0000       2.770651        75.3932 
 401   0.0000       2.789691        75.9114 
 402   0.0000       2.795904        76.0804 
 403   0.0000       2.800871        76.2156 
 404   0.0000       2.807767        76.4032 
 405   0.0000       2.820254        76.7430 
 406   0.0000       2.834431        77.1288 
 407   0.0000       2.838944        77.2516 
 408   0.0000       2.847166        77.4753 
 409   0.0000       2.864003        77.9335 
 410   0.0000       2.878083        78.3166 
 411   0.0000       2.881582        78.4118 
 412   0.0000       2.888181        78.5914 
 413   0.0000       2.900130        78.9166 
 414   0.0000       2.906961        79.1024 
 415   0.0000       2.917146        79.3796 
 416   0.0000       2.917943        79.4013 
 417   0.0000       2.923761        79.5596 
 418   0.0000       2.944605        80.1268 
 419   0.0000       2.951337        80.3100 
 420   0.0000       2.958664        80.5093 
 421   0.0000       2.971557        80.8602 
 422   0.0000       2.973129        80.9030 
 423   0.0000       2.981714        81.1366 
 424   0.0000       3.003097        81.7184 
 425   0.0000       3.004203        81.7485 
 426   0.0000       3.010541        81.9210 
 427   0.0000       3.015797        82.0640 
 428   0.0000       3.022637        82.2501 
 429   0.0000       3.034989        82.5863 
 430   0.0000       3.038719        82.6877 
 431   0.0000       3.056452        83.1703 
 432   0.0000       3.061443        83.3061 
 433   0.0000       3.067776        83.4784 
 434   0.0000       3.077340        83.7387 
 435   0.0000       3.083850        83.9158 
 436   0.0000       3.090264        84.0904 
 437   0.0000       3.101225        84.3886 
 438   0.0000       3.103092        84.4394 
 439   0.0000       3.103682        84.4555 
 440   0.0000       3.109374        84.6104 
 441   0.0000       3.113973        84.7355 
 442   0.0000       3.130601        85.1880 
 443   0.0000       3.132682        85.2446 
 444   0.0000       3.138865        85.4128 
 445   0.0000       3.142962        85.5244 
 446   0.0000       3.146869        85.6307 
 447   0.0000       3.163554        86.0847 
 448   0.0000       3.169749        86.2532 
 449   0.0000       3.182484        86.5998 
 450   0.0000       3.184881        86.6650 
 451   0.0000       3.197183        86.9998 
 452   0.0000       3.203498        87.1716 
 453   0.0000       3.210730        87.3684 
 454   0.0000       3.222508        87.6889 
 455   0.0000       3.233595        87.9906 
 456   0.0000       3.238034        88.1114 
 457   0.0000       3.250944        88.4627 
 458   0.0000       3.252964        88.5177 
 459   0.0000       3.260471        88.7219 
 460   0.0000       3.267762        88.9203 
 461   0.0000       3.276816        89.1667 
 462   0.0000       3.279326        89.2350 
 463   0.0000       3.285434        89.4012 
 464   0.0000       3.296724        89.7084 
 465   0.0000       3.297816        89.7381 
 466   0.0000       3.307245        89.9947 
 467   0.0000       3.307700        90.0071 
 468   0.0000       3.313713        90.1707 
 469   0.0000       3.326694        90.5239 
 470   0.0000       3.330466        90.6266 
 471   0.0000       3.337660        90.8223 
 472   0.0000       3.351330        91.1943 
 473   0.0000       3.351956        91.2113 
 474   0.0000       3.355994        91.3212 
 475   0.0000       3.358098        91.3785 
 476   0.0000       3.373736        91.8040 
 477   0.0000       3.376390        91.8762 
 478   0.0000       3.386368        92.1478 
 479   0.0000       3.390289        92.2544 
 480   0.0000       3.392388        92.3116 
 481   0.0000       3.403650        92.6180 
 482   0.0000       3.404913        92.6524 
 483   0.0000       3.406116        92.6851 
 484   0.0000       3.417160        92.9857 
 485   0.0000       3.417999        93.0085 
 486   0.0000       3.422407        93.1284 
 487   0.0000       3.427423        93.2649 
 488   0.0000       3.435928        93.4964 
 489   0.0000       3.443906        93.7134 
 490   0.0000       3.448584        93.8407 
 491   0.0000       3.449032        93.8529 
 492   0.0000       3.452808        93.9557 
 493   0.0000       3.459442        94.1362 
 494   0.0000       3.472161        94.4823 
 495   0.0000       3.476272        94.5942 
 496   0.0000       3.484521        94.8186 
 497   0.0000       3.488234        94.9197 
 498   0.0000       3.498581        95.2012 
 499   0.0000       3.508807        95.4795 
 500   0.0000       3.514622        95.6377 
 501   0.0000       3.521838        95.8341 
 502   0.0000       3.528265        96.0090 
 503   0.0000       3.531023        96.0840 
 504   0.0000       3.541476        96.3685 
 505   0.0000       3.548997        96.5731 
 506   0.0000       3.555270        96.7438 
 507   0.0000       3.563030        96.9550 
 508   0.0000       3.563742        96.9744 
 509   0.0000       3.579259        97.3966 
 510   0.0000       3.584352        97.5352 
 511   0.0000       3.592750        97.7637 
 512   0.0000       3.602219        98.0214 
 513   0.0000       3.607475        98.1644 
 514   0.0000       3.616453        98.4087 
 515   0.0000       3.621717        98.5519 
 516   0.0000       3.628766        98.7437 
 517   0.0000       3.629971        98.7765 
 518   0.0000       3.635613        98.9301 
 519   0.0000       3.639770        99.0432 
 520   0.0000       3.646031        99.2136 
 521   0.0000       3.653102        99.4060 
 522   0.0000       3.660047        99.5949 
 523   0.0000       3.663410        99.6865 
 524   0.0000       3.673120        99.9507 
 525   0.0000       3.680778       100.1590 
 526   0.0000       3.687431       100.3401 
 527   0.0000       3.691091       100.4397 
 528   0.0000       3.693263       100.4988 
 529   0.0000       3.697319       100.6092 
 530   0.0000       3.705995       100.8452 
 531   0.0000       3.718126       101.1754 
 532   0.0000       3.718438       101.1838 
 533   0.0000       3.736762       101.6825 
 534   0.0000       3.742600       101.8413 
 535   0.0000       3.749798       102.0372 
 536   0.0000       3.752462       102.1097 
 537   0.0000       3.758176       102.2652 
 538   0.0000       3.765227       102.4570 
 539   0.0000       3.771550       102.6291 
 540   0.0000       3.776378       102.7605 
 541   0.0000       3.785056       102.9966 
 542   0.0000       3.787933       103.0749 
 543   0.0000       3.797263       103.3288 
 544   0.0000       3.813840       103.7799 
 545   0.0000       3.817437       103.8777 
 546   0.0000       3.820065       103.9493 
 547   0.0000       3.825511       104.0975 
 548   0.0000       3.834090       104.3309 
 549   0.0000       3.839428       104.4762 
 550   0.0000       3.848149       104.7134 
 551   0.0000       3.853317       104.8541 
 552   0.0000       3.858331       104.9905 
 553   0.0000       3.867523       105.2406 
 554   0.0000       3.874793       105.4385 
 555   0.0000       3.880273       105.5876 
 556   0.0000       3.891768       105.9004 
 557   0.0000       3.904671       106.2515 
 558   0.0000       3.922956       106.7491 
 559   0.0000       3.927268       106.8664 
 560   0.0000       3.936164       107.1085 
 561   0.0000       3.939302       107.1939 
 562   0.0000       3.952616       107.5561 
 563   0.0000       3.971982       108.0831 
 564   0.0000       3.988151       108.5231 
 565   0.0000       3.993005       108.6552 
 566   0.0000       3.999320       108.8270 
 567   0.0000       4.008329       109.0722 
 568   0.0000       4.015829       109.2763 
 569   0.0000       4.021264       109.4242 
 570   0.0000       4.028273       109.6149 
 571   0.0000       4.047331       110.1335 
 572   0.0000       4.049212       110.1847 
 573   0.0000       4.054923       110.3401 
 574   0.0000       4.061969       110.5318 
 575   0.0000       4.067916       110.6936 
 576   0.0000       4.080721       111.0421 
 577   0.0000       4.087419       111.2243 
 578   0.0000       4.094611       111.4200 
 579   0.0000       4.104754       111.6960 
 580   0.0000       4.110102       111.8416 
 581   0.0000       4.113178       111.9253 
 582   0.0000       4.129342       112.3651 
 583   0.0000       4.135628       112.5362 
 584   0.0000       4.137337       112.5827 
 585   0.0000       4.138244       112.6074 
 586   0.0000       4.142941       112.7352 
 587   0.0000       4.163827       113.3035 
 588   0.0000       4.168625       113.4341 
 589   0.0000       4.174365       113.5903 
 590   0.0000       4.176775       113.6558 
 591   0.0000       4.181413       113.7820 
 592   0.0000       4.183629       113.8423 
 593   0.0000       4.189638       114.0059 
 594   0.0000       4.198003       114.2335 
 595   0.0000       4.207815       114.5005 
 596   0.0000       4.211118       114.5903 
 597   0.0000       4.219802       114.8267 
 598   0.0000       4.225026       114.9688 
 599   0.0000       4.226824       115.0177 
 600   0.0000       4.240970       115.4027 
 601   0.0000       4.246908       115.5642 
 602   0.0000       4.257711       115.8582 
 603   0.0000       4.266142       116.0876 
 604   0.0000       4.275755       116.3492 
 605   0.0000       4.285486       116.6140 
 606   0.0000       4.288012       116.6827 
 607   0.0000       4.303252       117.0974 
 608   0.0000       4.322492       117.6210 
 609   0.0000       4.325548       117.7041 
 610   0.0000       4.328929       117.7962 
 611   0.0000       4.332129       117.8832 
 612   0.0000       4.340620       118.1143 
 613   0.0000       4.351879       118.4206 
 614   0.0000       4.357021       118.5606 
 615   0.0000       4.366502       118.8186 
 616   0.0000       4.379811       119.1807 
 617   0.0000       4.388714       119.4230 
 618   0.0000       4.394877       119.5907 
 619   0.0000       4.404714       119.8584 
 620   0.0000       4.408354       119.9574 
 621   0.0000       4.417975       120.2192 
 622   0.0000       4.429212       120.5250 
 623   0.0000       4.437055       120.7384 
 624   0.0000       4.444746       120.9477 
 625   0.0000       4.449089       121.0659 
 626   0.0000       4.464873       121.4954 
 627   0.0000       4.472706       121.7085 
 628   0.0000       4.479316       121.8884 
 629   0.0000       4.480614       121.9237 
 630   0.0000       4.489753       122.1724 
 631   0.0000       4.504551       122.5751 
 632   0.0000       4.511053       122.7520 
 633   0.0000       4.525575       123.1471 
 634   0.0000       4.533038       123.3502 
 635   0.0000       4.538410       123.4964 
 636   0.0000       4.547200       123.7356 
 637   0.0000       4.554043       123.9218 
 638   0.0000       4.562644       124.1559 
 639   0.0000       4.575992       124.5191 
 640   0.0000       4.581184       124.6604 
 641   0.0000       4.591791       124.9490 
 642   0.0000       4.602579       125.2425 
 643   0.0000       4.605794       125.3300 
 644   0.0000       4.610306       125.4528 
 645   0.0000       4.620719       125.7362 
 646   0.0000       4.623146       125.8022 
 647   0.0000       4.631124       126.0193 
 648   0.0000       4.640589       126.2768 
 649   0.0000       4.642490       126.3286 
 650   0.0000       4.652894       126.6117 
 651   0.0000       4.663316       126.8953 
 652   0.0000       4.680846       127.3723 
 653   0.0000       4.683549       127.4459 
 654   0.0000       4.696565       127.8000 
 655   0.0000       4.701198       127.9261 
 656   0.0000       4.723733       128.5393 
 657   0.0000       4.730297       128.7179 
 658   0.0000       4.734954       128.8447 
 659   0.0000       4.741636       129.0265 
 660   0.0000       4.755697       129.4091 
 661   0.0000       4.769367       129.7811 
 662   0.0000       4.779877       130.0671 
 663   0.0000       4.790539       130.3572 
 664   0.0000       4.803876       130.7201 
 665   0.0000       4.813935       130.9938 
 666   0.0000       4.825763       131.3157 
 667   0.0000       4.843720       131.8043 
 668   0.0000       4.882101       132.8487 
 669   0.0000       4.888184       133.0143 
 670   0.0000       4.904381       133.4550 
 671   0.0000       4.915355       133.7536 
 672   0.0000       4.923071       133.9636 
 673   0.0000       4.946467       134.6002 
 674   0.0000       4.969278       135.2209 
 675   0.0000       5.005507       136.2068 
 676   0.0000       5.014639       136.4553 
 677   0.0000       5.023536       136.6974 
 678   0.0000       5.032221       136.9337 
 679   0.0000       5.038231       137.0972 
 680   0.0000       5.049716       137.4098 
 681   0.0000       5.057611       137.6246 
 682   0.0000       5.068479       137.9203 
 683   0.0000       5.074042       138.0717 
 684   0.0000       5.086487       138.4104 
 685   0.0000       5.103887       138.8838 
 686   0.0000       5.111510       139.0913 
 687   0.0000       5.132103       139.6516 
 688   0.0000       5.144918       140.0003 
 689   0.0000       5.159844       140.4065 
 690   0.0000       5.176604       140.8626 
 691   0.0000       5.181926       141.0074 
 692   0.0000       5.188636       141.1900 
 693   0.0000       5.196554       141.4054 
 694   0.0000       5.206986       141.6893 
 695   0.0000       5.208645       141.7344 
 696   0.0000       5.213358       141.8627 
 697   0.0000       5.226363       142.2166 
 698   0.0000       5.236382       142.4892 
 699   0.0000       5.245862       142.7472 
 700   0.0000       5.270940       143.4296 
 701   0.0000       5.281941       143.7289 
 702   0.0000       5.292616       144.0194 
 703   0.0000       5.312008       144.5471 
 704   0.0000       5.318584       144.7260 
 705   0.0000       5.335602       145.1891 
 706   0.0000       5.348211       145.5322 
 707   0.0000       5.359077       145.8279 
 708   0.0000       5.363455       145.9470 
 709   0.0000       5.380354       146.4069 
 710   0.0000       5.411900       147.2653 
 711   0.0000       5.432525       147.8265 
 712   0.0000       5.434450       147.8789 
 713   0.0000       5.454754       148.4314 
 714   0.0000       5.464286       148.6908 
 715   0.0000       5.474418       148.9665 
 716   0.0000       5.489594       149.3794 
 717   0.0000       5.505926       149.8239 
 718   0.0000       5.512549       150.0041 
 719   0.0000       5.530383       150.4894 
 720   0.0000       5.534787       150.6092 
 721   0.0000       5.546563       150.9297 
 722   0.0000       5.556496       151.1999 
 723   0.0000       5.564913       151.4290 
 724   0.0000       5.577685       151.7765 
 725   0.0000       5.591529       152.1533 
 726   0.0000       5.597697       152.3211 
 727   0.0000       5.615370       152.8020 
 728   0.0000       5.630187       153.2052 
 729   0.0000       5.643024       153.5545 
 730   0.0000       5.662643       154.0884 
 731   0.0000       5.663775       154.1192 
 732   0.0000       5.676093       154.4543 
 733   0.0000       5.681310       154.5963 
 734   0.0000       5.697422       155.0347 
 735   0.0000       5.701436       155.1440 
 736   0.0000       5.712495       155.4449 
 737   0.0000       5.737763       156.1325 
 738   0.0000       5.751507       156.5065 
 739   0.0000       5.755961       156.6277 
 740   0.0000       5.769957       157.0085 
 741   0.0000       5.796613       157.7339 
 742   0.0000       5.804533       157.9494 
 743   0.0000       5.815472       158.2470 
 744   0.0000       5.829731       158.6350 
 745   0.0000       5.847961       159.1311 
 746   0.0000       5.862569       159.5286 
 747   0.0000       5.903334       160.6379 
 748   0.0000       5.915141       160.9592 
 749   0.0000       5.935922       161.5246 
 750   0.0000       5.964405       162.2997 
 751   0.0000       5.971095       162.4818 
 752   0.0000       5.977205       162.6480 
 753   0.0000       5.979161       162.7012 
 754   0.0000       6.034100       164.1962 
 755   0.0000       6.041813       164.4061 
 756   0.0000       6.052125       164.6867 
 757   0.0000       6.066826       165.0867 
 758   0.0000       6.085888       165.6054 
 759   0.0000       6.105719       166.1451 
 760   0.0000       6.128467       166.7641 
 761   0.0000       6.153738       167.4517 
 762   0.0000       6.183038       168.2490 
 763   0.0000       6.202113       168.7681 
 764   0.0000       6.236390       169.7008 
 765   0.0000       6.271817       170.6648 
 766   0.0000       6.291774       171.2079 
 767   0.0000       6.311012       171.7314 
 768   0.0000       6.329677       172.2393 
 769   0.0000       6.341063       172.5491 
 770   0.0000       6.349179       172.7700 
 771   0.0000       6.374842       173.4683 
 772   0.0000       6.393314       173.9709 
 773   0.0000       6.458465       175.7438 
 774   0.0000       6.462781       175.8612 
 775   0.0000       6.496077       176.7672 
 776   0.0000       6.500745       176.8943 
 777   0.0000       6.529396       177.6739 
 778   0.0000       6.547981       178.1796 
 779   0.0000       6.571914       178.8309 
 780   0.0000       6.633552       180.5081 
 781   0.0000       6.685889       181.9323 
 782   0.0000       6.700802       182.3381 
 783   0.0000       6.741122       183.4353 
 784   0.0000       6.771316       184.2569 
 785   0.0000       6.881162       187.2459 
 786   0.0000       6.910727       188.0504 
 787   0.0000       6.917750       188.2415 
 788   0.0000       6.932030       188.6301 
 789   0.0000       7.047429       191.7703 
 790   0.0000       7.050447       191.8524 
 791   0.0000       7.073543       192.4809 
 792   0.0000       7.079139       192.6332 
 793   0.0000       7.104225       193.3158 
 794   0.0000       7.235169       196.8789 
 795   0.0000       7.255520       197.4327 
 796   0.0000       7.279052       198.0731 
 797   0.0000       7.292796       198.4471 
 798   0.0000       7.340621       199.7484 
 799   0.0000       7.373092       200.6320 
 800   0.0000       7.460879       203.0208 
 801   0.0000       7.492135       203.8714 
 802   0.0000       7.578356       206.2175 
 803   0.0000       7.592844       206.6118 
 804   0.0000       7.697222       209.4521 
 805   0.0000       7.814585       212.6457 
 806   0.0000       7.845005       213.4734 
 807   0.0000       7.930433       215.7980 
 808   0.0000       7.981436       217.1859 
 809   0.0000       9.429800       256.5979 
 810   0.0000       9.549630       259.8587 
 811   0.0000      10.587205       288.0925 
 812   0.0000      11.353334       308.9399 
 813   0.0000      11.971491       325.7608 
 814   0.0000      12.653344       344.3150 
 815   0.0000      12.911306       351.3345 
 816   0.0000      12.984247       353.3193 
 817   0.0000      13.062569       355.4506 
 818   0.0000      13.089399       356.1807 
 819   0.0000      13.365785       363.7015 
 820   0.0000      13.421342       365.2133 
 821   0.0000      13.643327       371.2538 
 822   0.0000      13.827449       376.2640 
 823   0.0000      13.932903       379.1336 
 824   0.0000      14.035275       381.9192 
 825   0.0000      14.265373       388.1805 
 826   0.0000      14.657642       398.8547 
 827   0.0000      15.955449       434.1698 

                    ********************************
                    * MULLIKEN POPULATION ANALYSIS *
                    ********************************

-----------------------
MULLIKEN ATOMIC CHARGES
-----------------------
   0 C :   -0.293325
   1 C :    0.038933
   2 O :   -0.342917
   3 C :    0.478475
   4 O :   -0.440823
   5 C :   -0.158739
   6 C :    0.118483
   7 C :   -0.267867
   8 N :   -0.147234
   9 C :    0.213365
  10 S :   -0.433557
  11 N :   -0.203068
  12 C :    0.011885
  13 C :    0.072639
  14 C :   -0.218437
  15 C :   -0.128923
  16 C :   -0.281625
  17 C :    0.308793
  18 O :   -0.357555
  19 C :   -0.223247
  20 H :    0.114075
  21 H :    0.093461
  22 H :    0.092609
  23 H :    0.104466
  24 H :    0.112070
  25 H :    0.125796
  26 H :    0.092701
  27 H :    0.138333
  28 H :    0.197682
  29 H :    0.204032
  30 H :    0.128847
  31 H :    0.145905
  32 H :    0.161705
  33 H :    0.131349
  34 H :    0.241049
  35 H :    0.170665
Sum of atomic charges:    0.0000000

--------------------------------
MULLIKEN REDUCED ORBITAL CHARGES
--------------------------------
  0 C s       :     3.264083  s :     3.264083
      pz      :     0.941863  p :     2.953200
      px      :     1.011904
      py      :     0.999433
      dz2     :     0.020806  d :     0.071594
      dxz     :     0.004490
      dyz     :     0.021011
      dx2y2   :     0.005072
      dxy     :     0.020215
      f0      :     0.000847  f :     0.004448
      f+1     :     0.000241
      f-1     :     0.001570
      f+2     :     0.000307
      f-2     :     0.000453
      f+3     :     0.000053
      f-3     :     0.000977
  1 C s       :     3.161879  s :     3.161879
      pz      :     0.944158  p :     2.636936
      px      :     0.770404
      py      :     0.922374
      dz2     :     0.029192  d :     0.150752
      dxz     :     0.024606
      dyz     :     0.033713
      dx2y2   :     0.023578
      dxy     :     0.039663
      f0      :     0.001429  f :     0.011501
      f+1     :     0.001629
      f-1     :     0.001669
      f+2     :     0.000881
      f-2     :     0.001747
      f+3     :     0.002096
      f-3     :     0.002050
  2 O s       :     3.716989  s :     3.716989
      pz      :     1.713478  p :     4.589236
      px      :     1.520233
      py      :     1.355525
      dz2     :     0.003888  d :     0.034388
      dxz     :     0.005203
      dyz     :     0.008408
      dx2y2   :     0.011169
      dxy     :     0.005720
      f0      :     0.000250  f :     0.002303
      f+1     :     0.000142
      f-1     :     0.000287
      f+2     :     0.000365
      f-2     :     0.000309
      f+3     :     0.000403
      f-3     :     0.000548
  3 C s       :     3.040919  s :     3.040919
      pz      :     0.679279  p :     2.152734
      px      :     0.808117
      py      :     0.665338
      dz2     :     0.062598  d :     0.301453
      dxz     :     0.040695
      dyz     :     0.059022
      dx2y2   :     0.083000
      dxy     :     0.056138
      f0      :     0.002312  f :     0.026419
      f+1     :     0.003180
      f-1     :     0.004008
      f+2     :     0.004902
      f-2     :     0.003632
      f+3     :     0.004572
      f-3     :     0.003812
  4 O s       :     3.770320  s :     3.770320
      pz      :     1.412926  p :     4.633324
      px      :     1.549955
      py      :     1.670444
      dz2     :     0.009140  d :     0.034780
      dxz     :     0.008518
      dyz     :     0.005708
      dx2y2   :     0.004206
      dxy     :     0.007208
      f0      :     0.000277  f :     0.002399
      f+1     :     0.000462
      f-1     :     0.000260
      f+2     :     0.000331
      f-2     :     0.000591
      f+3     :     0.000210
      f-3     :     0.000269
  5 C s       :     3.177445  s :     3.177445
      pz      :     0.979684  p :     2.895027
      px      :     0.953725
      py      :     0.961618
      dz2     :     0.018510  d :     0.075892
      dxz     :     0.010018
      dyz     :     0.018858
      dx2y2   :     0.013558
      dxy     :     0.014948
      f0      :     0.000868  f :     0.010374
      f+1     :     0.001350
      f-1     :     0.001501
      f+2     :     0.001389
      f-2     :     0.002022
      f+3     :     0.001175
      f-3     :     0.002070
  6 C s       :     3.210037  s :     3.210037
      pz      :     0.908068  p :     2.483332
      px      :     0.753773
      py      :     0.821491
      dz2     :     0.031197  d :     0.173866
      dxz     :     0.030152
      dyz     :     0.036229
      dx2y2   :     0.049052
      dxy     :     0.027235
      f0      :     0.001240  f :     0.014283
      f+1     :     0.001587
      f-1     :     0.002399
      f+2     :     0.002242
      f-2     :     0.002785
      f+3     :     0.001807
      f-3     :     0.002223
  7 C s       :     3.267421  s :     3.267421
      pz      :     0.922515  p :     2.925574
      px      :     1.013668
      py      :     0.989391
      dz2     :     0.014878  d :     0.070195
      dxz     :     0.010873
      dyz     :     0.018654
      dx2y2   :     0.004882
      dxy     :     0.020909
      f0      :     0.000333  f :     0.004677
      f+1     :     0.000566
      f-1     :     0.001296
      f+2     :     0.000495
      f-2     :     0.001202
      f+3     :     0.000149
      f-3     :     0.000637
  8 N s       :     3.358340  s :     3.358340
      pz      :     1.069865  p :     3.724621
      px      :     1.383656
      py      :     1.271100
      dz2     :     0.016549  d :     0.059480
      dxz     :     0.013313
      dyz     :     0.014560
      dx2y2   :     0.007942
      dxy     :     0.007116
      f0      :     0.001133  f :     0.004793
      f+1     :     0.000828
      f-1     :     0.000691
      f+2     :     0.000392
      f-2     :     0.000688
      f+3     :     0.000575
      f-3     :     0.000487
  9 C s       :     3.154636  s :     3.154636
      pz      :     0.784079  p :     2.357810
      px      :     0.731580
      py      :     0.842151
      dz2     :     0.064976  d :     0.256813
      dxz     :     0.047848
      dyz     :     0.054668
      dx2y2   :     0.053556
      dxy     :     0.035765
      f0      :     0.003194  f :     0.017376
      f+1     :     0.002809
      f-1     :     0.003262
      f+2     :     0.001916
      f-2     :     0.001965
      f+3     :     0.001561
      f-3     :     0.002669
 10 S s       :     5.855655  s :     5.855655
      pz      :     3.641662  p :    10.482648
      px      :     3.422332
      py      :     3.418654
      dz2     :     0.005585  d :     0.085132
      dxz     :     0.015820
      dyz     :     0.026726
      dx2y2   :     0.014317
      dxy     :     0.022683
      f0      :     0.001394  f :     0.010122
      f+1     :     0.000479
      f-1     :     0.000903
      f+2     :     0.001408
      f-2     :     0.003187
      f+3     :     0.001355
      f-3     :     0.001397
 11 N s       :     3.385561  s :     3.385561
      pz      :     1.088432  p :     3.755809
      px      :     1.561107
      py      :     1.106270
      dz2     :     0.014122  d :     0.057185
      dxz     :     0.006267
      dyz     :     0.016449
      dx2y2   :     0.009995
      dxy     :     0.010353
      f0      :     0.000594  f :     0.004513
      f+1     :     0.000272
      f-1     :     0.000676
      f+2     :     0.000629
      f-2     :     0.000745
      f+3     :     0.000898
      f-3     :     0.000699
 12 C s       :     3.181575  s :     3.181575
      pz      :     0.845921  p :     2.619889
      px      :     0.983050
      py      :     0.790918
      dz2     :     0.031020  d :     0.175373
      dxz     :     0.035447
      dyz     :     0.039317
      dx2y2   :     0.029225
      dxy     :     0.040365
      f0      :     0.001183  f :     0.011277
      f+1     :     0.000876
      f-1     :     0.001750
      f+2     :     0.002406
      f-2     :     0.002375
      f+3     :     0.001400
      f-3     :     0.001288
 13 C s       :     3.094671  s :     3.094671
      pz      :     0.902684  p :     2.709085
      px      :     0.904188
      py      :     0.902214
      dz2     :     0.021199  d :     0.112295
      dxz     :     0.010909
      dyz     :     0.031745
      dx2y2   :     0.024257
      dxy     :     0.024185
      f0      :     0.001314  f :     0.011309
      f+1     :     0.001562
      f-1     :     0.001086
[...]
      f-1     :     0.007365
      f+2     :     0.005419
      f-2     :     0.006112
      f+3     :     0.005947
      f-3     :     0.009328
 15 C s       :     2.705621  s :     2.705621
      pz      :     0.914785  p :     2.794691
      px      :     0.906039
      py      :     0.973866
      dz2     :     0.101231  d :     0.416311
      dxz     :     0.061414
      dyz     :     0.076098
      dx2y2   :     0.088400
      dxy     :     0.089167
      f0      :     0.004022  f :     0.041053
      f+1     :     0.004874
      f-1     :     0.007120
      f+2     :     0.005982
      f-2     :     0.007573
      f+3     :     0.005665
      f-3     :     0.005817
 16 C s       :     2.701721  s :     2.701721
      pz      :     0.948995  p :     2.869352
      px      :     0.952735
      py      :     0.967622
      dz2     :     0.057018  d :     0.390209
      dxz     :     0.052205
      dyz     :     0.101242
      dx2y2   :     0.085932
      dxy     :     0.093811
      f0      :     0.005692  f :     0.040268
      f+1     :     0.004640
      f-1     :     0.003886
      f+2     :     0.005143
      f-2     :     0.007266
      f+3     :     0.006358
      f-3     :     0.007284
 17 C s       :     2.701902  s :     2.701902
      pz      :     0.824400  p :     2.681202
      px      :     0.815413
      py      :     1.041388
      dz2     :     0.146497  d :     0.708707
      dxz     :     0.112767
      dyz     :     0.150898
      dx2y2   :     0.151355
      dxy     :     0.147190
      f0      :     0.013605  f :     0.099250
      f+1     :     0.015026
      f-1     :     0.011930
      f+2     :     0.013491
      f-2     :     0.018269
      f+3     :     0.011269
      f-3     :     0.015661
 18 O s       :     3.177246  s :     3.177246
      pz      :     1.420316  p :     4.346917
      px      :     1.478086
      py      :     1.448515
      dz2     :     0.012109  d :     0.075510
      dxz     :     0.018484
      dyz     :     0.017195
      dx2y2   :     0.017604
      dxy     :     0.010117
      f0      :     0.000654  f :     0.005067
      f+1     :     0.000881
      f-1     :     0.000394
      f+2     :     0.001012
      f-2     :     0.000864
      f+3     :     0.000515
      f-3     :     0.000746
 19 C s       :     2.696159  s :     2.696159
      pz      :     0.944993  p :     2.847025
      px      :     0.934885
      py      :     0.967148
      dz2     :     0.079443  d :     0.386537
      dxz     :     0.060328
      dyz     :     0.080446
      dx2y2   :     0.079233
      dxy     :     0.087087
      f0      :     0.003997  f :     0.040619
      f+1     :     0.005154
      f-1     :     0.006537
      f+2     :     0.006169
      f-2     :     0.007934
      f+3     :     0.005546
      f-3     :     0.005280
 20 H s       :     0.845285  s :     0.845285
      pz      :     0.056735  p :     0.153475
      px      :     0.039417
      py      :     0.057324
      dz2     :     0.007858  d :     0.027553
      dxz     :     0.004138
      dyz     :     0.006998
      dx2y2   :     0.003343
      dxy     :     0.005216
 21 H s       :     0.848245  s :     0.848245
      pz      :     0.041677  p :     0.151765
      px      :     0.058988
      py      :     0.051099
      dz2     :     0.003093  d :     0.027469
      dxz     :     0.005445
      dyz     :     0.003818
      dx2y2   :     0.008183
      dxy     :     0.006931
 22 H s       :     0.851221  s :     0.851221
      pz      :     0.038345  p :     0.151289
      px      :     0.062152
      py      :     0.050792
      dz2     :     0.002347  d :     0.027581
      dxz     :     0.005667
      dyz     :     0.003419
      dx2y2   :     0.008759
      dxy     :     0.007389
 23 H s       :     0.854521  s :     0.854521
      pz      :     0.038994  p :     0.146950
      px      :     0.058185
      py      :     0.049771
      dz2     :     0.002674  d :     0.026982
      dxz     :     0.005474
      dyz     :     0.004103
      dx2y2   :     0.006956
      dxy     :     0.007775
 24 H s       :     0.853625  s :     0.853625
      pz      :     0.056873  p :     0.143875
      px      :     0.029630
      py      :     0.057373
      dz2     :     0.006875  d :     0.026887
      dxz     :     0.003625
      dyz     :     0.007463
      dx2y2   :     0.004255
      dxy     :     0.004669
 25 H s       :     0.830001  s :     0.830001
      pz      :     0.055927  p :     0.149883
      px      :     0.041362
      py      :     0.052594
      dz2     :     0.007557  d :     0.027721
      dxz     :     0.005240
      dyz     :     0.007114
      dx2y2   :     0.003120
      dxy     :     0.004690
 26 H s       :     0.845512  s :     0.845512
      pz      :     0.041503  p :     0.150600
      px      :     0.052872
      py      :     0.056226
      dz2     :     0.003456  d :     0.027690
      dxz     :     0.004578
      dyz     :     0.005434
      dx2y2   :     0.008038
      dxy     :     0.006184
 27 H s       :     0.823268  s :     0.823268
      pz      :     0.038638  p :     0.151584
      px      :     0.067596
      py      :     0.045350
      dz2     :     0.002720  d :     0.027727
      dxz     :     0.006294
      dyz     :     0.002821
      dx2y2   :     0.007903
      dxy     :     0.007988
 28 H s       :     0.744846  s :     0.744846
      pz      :     0.058232  p :     0.252632
      px      :     0.080699
      py      :     0.113702
      dz2     :     0.008877  d :     0.061683
      dxz     :     0.007359
      dyz     :     0.013507
      dx2y2   :     0.017709
      dxy     :     0.014229
 29 H s       :     0.750748  s :     0.750748
      pz      :     0.120262  p :     0.257562
      px      :     0.087477
      py      :     0.049823
      dz2     :     0.021105  d :     0.061186
      dxz     :     0.022497
      dyz     :     0.016138
      dx2y2   :     0.000619
      dxy     :     0.000826
 30 H s       :     0.832790  s :     0.832790
      pz      :     0.045068  p :     0.154169
      px      :     0.071700
      py      :     0.037401
      dz2     :     0.003870  d :     0.029464
      dxz     :     0.008354
      dyz     :     0.002977
      dx2y2   :     0.007015
      dxy     :     0.007248
 31 H s       :     0.844560  s :     0.844560
      pz      :     0.061907  p :     0.157503
      px      :     0.062687
      py      :     0.032910
      dz2     :     0.006840  d :     0.027542
      dxz     :     0.007348
      dyz     :     0.004432
      dx2y2   :     0.004326
      dxy     :     0.004595
 32 H s       :     0.842667  s :     0.842667
      pz      :     0.037171  p :     0.151161
      px      :     0.042939
      py      :     0.071051
      dz2     :     0.002819  d :     0.026454
      dxz     :     0.001439
      dyz     :     0.006810
      dx2y2   :     0.007781
      dxy     :     0.007604
 33 H s       :     0.848567  s :     0.848567
      pz      :     0.053135  p :     0.159116
      px      :     0.045063
      py      :     0.060918
      dz2     :     0.005507  d :     0.027768
      dxz     :     0.003349
      dyz     :     0.006956
      dx2y2   :     0.006035
      dxy     :     0.005921
 34 H s       :     0.706516  s :     0.706516
      pz      :     0.096880  p :     0.347787
      px      :     0.087098
      py      :     0.163810
      dz2     :     0.017701  d :     0.099567
      dxz     :     0.007055
      dyz     :     0.026290
      dx2y2   :     0.023137
      dxy     :     0.025385
 35 H s       :     0.838477  s :     0.838477
      pz      :     0.040104  p :     0.158050
      px      :     0.046137
      py      :     0.071810
      dz2     :     0.002880  d :     0.027978
      dxz     :     0.001593
      dyz     :     0.007353
      dx2y2   :     0.008100
      dxy     :     0.008052


                      *****************************
                      * MAYER POPULATION ANALYSIS *
                      *****************************

  NA   - Mulliken gross atomic population
  ZA   - Total nuclear charge
  QA   - Mulliken gross atomic charge
  VA   - Mayer's total valence
  BVA  - Mayer's bonded valence
  FA   - Mayer's free valence

  ATOM       NA         ZA         QA         VA         BVA        FA
  0 C      6.2933     6.0000    -0.2933     3.8800     3.8800    -0.0000
  1 C      5.9611     6.0000     0.0389     3.8482     3.8482    -0.0000
  2 O      8.3429     8.0000    -0.3429     2.0629     2.0629    -0.0000
  3 C      5.5215     6.0000     0.4785     4.1710     4.1710     0.0000
  4 O      8.4408     8.0000    -0.4408     2.0641     2.0641    -0.0000
  5 C      6.1587     6.0000    -0.1587     3.6249     3.6249    -0.0000
  6 C      5.8815     6.0000     0.1185     3.8653     3.8653    -0.0000
  7 C      6.2679     6.0000    -0.2679     3.9070     3.9070     0.0000
  8 N      7.1472     7.0000    -0.1472     3.2935     3.2935    -0.0000
  9 C      5.7866     6.0000     0.2134     4.1662     4.1662    -0.0000
 10 S     16.4336    16.0000    -0.4336     1.7615     1.7615     0.0000
 11 N      7.2031     7.0000    -0.2031     3.2118     3.2118     0.0000
 12 C      5.9881     6.0000     0.0119     3.9703     3.9703     0.0000
 13 C      5.9274     6.0000     0.0726     3.7510     3.7510     0.0000
 14 C      6.2184     6.0000    -0.2184     3.8936     3.8936     0.0000
 15 C      6.1289     6.0000    -0.1289     3.8097     3.8097     0.0000
 16 C      6.2816     6.0000    -0.2816     3.8007     3.8007    -0.0000
 17 C      5.6912     6.0000     0.3088     3.8682     3.8682    -0.0000
 18 O      8.3576     8.0000    -0.3576     2.1168     2.1168    -0.0000
 19 C      6.2232     6.0000    -0.2232     3.8170     3.8170    -0.0000
 20 H      0.8859     1.0000     0.1141     0.9895     0.9895    -0.0000
 21 H      0.9065     1.0000     0.0935     0.9844     0.9844    -0.0000
 22 H      0.9074     1.0000     0.0926     0.9844     0.9844    -0.0000
 23 H      0.8955     1.0000     0.1045     0.9854     0.9854     0.0000
 24 H      0.8879     1.0000     0.1121     0.9755     0.9755    -0.0000
 25 H      0.8742     1.0000     0.1258     0.9824     0.9824     0.0000
 26 H      0.9073     1.0000     0.0927     0.9842     0.9842     0.0000
 27 H      0.8617     1.0000     0.1383     0.9793     0.9793    -0.0000
 28 H      0.8023     1.0000     0.1977     1.0213     1.0213     0.0000
 29 H      0.7960     1.0000     0.2040     1.0124     1.0124     0.0000
 30 H      0.8712     1.0000     0.1288     0.9778     0.9778     0.0000
 31 H      0.8541     1.0000     0.1459     0.9885     0.9885    -0.0000
 32 H      0.8383     1.0000     0.1617     0.9767     0.9767     0.0000
 33 H      0.8687     1.0000     0.1313     0.9915     0.9915    -0.0000
 34 H      0.7590     1.0000     0.2410     1.0101     1.0101     0.0000
 35 H      0.8293     1.0000     0.1707     0.9901     0.9901     0.0000

  Mayer bond orders larger than 0.100000
B(  0-C ,  1-C ) :   0.9655 B(  0-C , 20-H ) :   0.9753 B(  0-C , 21-H ) :   0.9770 
B(  0-C , 22-H ) :   0.9774 B(  1-C ,  2-O ) :   0.8915 B(  1-C , 23-H ) :   0.9783 
B(  1-C , 24-H ) :   0.9812 B(  2-O ,  3-C ) :   1.1691 B(  3-C ,  4-O ) :   1.9463 
B(  3-C ,  5-C ) :   1.0315 B(  5-C ,  6-C ) :   1.6850 B(  5-C , 12-C ) :   0.9310 
B(  6-C ,  7-C ) :   0.9739 B(  6-C ,  8-N ) :   1.1267 B(  7-C , 25-H ) :   0.9682 
B(  7-C , 26-H ) :   0.9856 B(  7-C , 27-H ) :   0.9539 B(  8-N ,  9-C ) :   1.1898 
B(  8-N , 28-H ) :   0.9511 B(  9-C , 10-S ) :   1.6137 B(  9-C , 11-N ) :   1.3052 
B( 11-N , 12-C ) :   0.9433 B( 11-N , 29-H ) :   0.9377 B( 12-C , 13-C ) :   1.0275 
B( 12-C , 30-H ) :   0.9936 B( 13-C , 14-C ) :   1.3694 B( 13-C , 19-C ) :   1.3338 
B( 14-C , 15-C ) :   1.4013 B( 14-C , 31-H ) :   0.9763 B( 15-C , 16-C ) :   1.3605 
B( 15-C , 32-H ) :   0.9707 B( 16-C , 17-C ) :   1.3331 B( 16-C , 33-H ) :   0.9847 
B( 17-C , 18-O ) :   1.1026 B( 17-C , 19-C ) :   1.3699 B( 18-O , 34-H ) :   0.9795 
B( 19-C , 35-H ) :   0.9562 

-------
TIMINGS
-------

Total SCF time: 0 days 1 hours 28 min 55 sec 

Total time                  ....    5335.840 sec
Sum of individual times     ....    5327.015 sec  ( 99.8%)

Fock matrix formation       ....    5316.088 sec  ( 99.6%)
Diagonalization             ....       1.261 sec  (  0.0%)
Density matrix formation    ....       0.209 sec  (  0.0%)
Population analysis         ....       0.221 sec  (  0.0%)
Initial guess               ....       4.682 sec  (  0.1%)
Orbital Transformation      ....       0.000 sec  (  0.0%)
Orbital Orthonormalization  ....       0.000 sec  (  0.0%)
DIIS solution               ....       1.760 sec  (  0.0%)
SOSCF solution              ....       1.546 sec  (  0.0%)

------------------------------------------------------------------------------
                                ORCA  MP2 
------------------------------------------------------------------------------

Freezing NCore=48 chemical core electrons

-------------
RI-MP2 ENERGY
-------------
Dimension of the basis                    ...  828
Memory devoted to MP2                     ...  256 MB   
Data format for buffers                   ... DOUBLE
Compression type for matrix containers    ... UNCOMPRESSED
Overall scaling of the MP2 energy         ...   1.000e+00
Calculating two index integrals           ... done (    0.039 sec)
Cholesky decomposition of V**-1           ... done (    0.298 sec)

-----------------
RI-TRANSFORMATION (AUX index driven)
-----------------

Dimension of the orbital-basis         ... 828
Dimension of the aux-basis             ... 2141
Transformation of internal/external MOs...   24-  76 to   77- 827
Number Format for Storage              ... Double (8 Byte)
Integral mode                          ... Direct

First Phase: integral generation and transformation of MO indices
  Aux angular momentum 0               ... done (    4.472 sec)
  Aux angular momentum 1               ... done (    6.788 sec)
  Aux angular momentum 2               ... done (    9.105 sec)
  Aux angular momentum 3               ... done (    7.216 sec)
  Aux angular momentum 4               ... done (    2.469 sec)
Closing buffer VIA ( 0.63 GB; CompressionRatio= 1.00)
  Phase 1 completed in    30.231 sec
Second Phase: sorting and transformation of aux index

IA-Transformation
Memory available                       ... 167 MB 
Max. # MO pairs treated in a batch     ... 12    
# of internal orbitals                 ... 53
# batches for internal orbitals        ... 5
Closing buffer IAV ( 0.63 GB; CompressionRatio= 1.00)
(ia|v) transformation done in    17.711 sec

  Phase 2 completed in    17.720 sec
RI-Integral transformation completed in    47.955 sec
Opening buffers                              ... done

Starting loop over batches of integrals:

Operator 0  - window                       ... ( 24- 76)x( 77-827)
Operator 0  - Memory available             ...   256 MB
Operator 0  - Memory needed per MO         ...  12.3 MB
Operator 0  - Number of orbitals per batch ... 13
Operator 0  - Number of batches            ... 5

OPERATOR  0   PASS   0:  MOs    24 ...   36
  Reading integrals       ... ok
  Internal MO  26
  Internal MO  29
  Internal MO  32
  Internal MO  35
OPERATOR  0   PASS   1:  MOs    37 ...   49
  Reading integrals       ... ok
  Internal MO  38
  Internal MO  41
  Internal MO  44
  Internal MO  47
OPERATOR  0   PASS   2:  MOs    50 ...   62
  Reading integrals       ... ok
  Internal MO  50
  Internal MO  53
  Internal MO  56
  Internal MO  59
  Internal MO  62
OPERATOR  0   PASS   3:  MOs    63 ...   75
  Reading integrals       ... ok
  Internal MO  65
  Internal MO  68
  Internal MO  71
  Internal MO  74
OPERATOR  0   PASS   4:  MOs    76 ...   76
  Reading integrals       ... ok
Time spent in pair loops =    74.996 sec
Deleting buffer (Ka|jb)[aa] ...done

-----------------------------------------------
 RI-MP2 CORRELATION ENERGY:     -3.534393268 Eh
-----------------------------------------------


-------
TIMINGS
-------

Total time                :  123.378 sec
Integral trafo            :   47.964 sec ( 38.9%)
I/O of integrals          :    1.656 sec (  1.3%)
K(i,j) Operators          :   46.773 sec ( 37.9%)
T(i,j) pair energies      :    8.254 sec (  6.7%)
V-calculation             :    0.039 sec (  0.0%)
V**(-1/2)                 :    0.298 sec (  0.2%)
Gamma(ia|P)               :    0.000 sec (  0.0%)
Gamma-Trafo               :    0.000 sec (  0.0%)
D(virtual)                :    0.000 sec (  0.0%)
D(internal)               :    0.000 sec (  0.0%)
W(virtual)                :    0.000 sec (  0.0%)
W(internal)               :    0.000 sec (  0.0%)
L(virtual)                :    0.000 sec (  0.0%)
L(internal)               :    0.000 sec (  0.0%)
G(D)                      :    0.000 sec (  0.0%)
G(Z)                      :    0.000 sec (  0.0%)
Z-Vector Solution         :    0.000 sec (  0.0%)
3-Index Derivative        :    0.000 sec (  0.0%)
2-Index Derivative        :    0.000 sec (  0.0%)
Separable Gradient        :    0.000 sec (  0.0%)


---------------------------------------
MP2 TOTAL ENERGY:    -1274.336651128 Eh
---------------------------------------

-------------------------   --------------------
FINAL SINGLE POINT ENERGY     -1274.336651127744
-------------------------   --------------------


                            ***************************************
                            *     ORCA property calculations      *
                            ***************************************


  WARNING: The energy has been calculated at the MP2 level but the densities
           used in the property calculations are still SCF densities
           MP2 response densities have not been calculated 
           use %mp2 Density relaxed end
           or  %mp2 Density unrelaxed end

                                    ---------------------
                                    Active property flags
                                    ---------------------
   (+) Dipole Moment


------------------------------------------------------------------------------
                       ORCA ELECTRIC PROPERTIES CALCULATION
------------------------------------------------------------------------------

Dipole Moment Calculation                       ... on
Quadrupole Moment Calculation                   ... off
Polarizability Calculation                      ... off
GBWName                                         ... G2_CONFS/Conf2.orca.gbw
Electron density file                           ... G2_CONFS/Conf2.orca.scfp
The origin for moment calculation is the CENTER OF MASS  = (31.801725, 33.112142 33.539399)

-------------
DIPOLE MOMENT
-------------
                                X             Y             Z
Electronic contribution:      8.52412      10.16537      10.27547
Nuclear contribution   :     -9.12873     -12.26350     -10.95574
                        -----------------------------------------
Total Dipole Moment    :     -0.60461      -2.09813      -0.68027
                        -----------------------------------------
Magnitude (a.u.)       :      2.28702
Magnitude (Debye)      :      5.81315



--------------------
Rotational spectrum 
--------------------
 
Rotational constants in cm-1:     0.012654     0.008069     0.005594 
Rotational constants in MHz :   379.354645   241.911463   167.699159 

 Dipole components along the rotational axes: 
x,y,z [a.u.] :    -1.957092     0.750870    -0.914583 
x,y,z [Debye]:    -4.974533     1.908559    -2.324685 

 

Timings for individual modules:

Sum of individual times         ...     5460.905 sec (=  91.015 min)
GTO integral calculation        ...        1.343 sec (=   0.022 min)   0.0 %
SCF iterations                  ...     5335.904 sec (=  88.932 min)  97.7 %
MP2 module                      ...      123.657 sec (=   2.061 min)   2.3 %
                             ****ORCA TERMINATED NORMALLY****
TOTAL RUN TIME: 0 days 1 hours 31 minutes 1 seconds 983 msec
