
                                 *****************
                                 * O   R   C   A *
                                 *****************

           --- An Ab Initio, DFT and Semiempirical electronic structure package ---

                  #######################################################
                  #                        -***-                        #
                  #          Department of theory and spectroscopy      #
                  #               Directorship: Frank Neese             #
                  #        Max Planck Institute fuer Kohlenforschung    #
                  #                Kaiser Wilhelm Platz 1               #
                  #                 D-45470 Muelheim/Ruhr               #
                  #                      Germany                        #
                  #                                                     #
                  #                  All rights reserved                #
                  #                        -***-                        #
                  #######################################################


                         Program Version 4.2.0 -  RELEASE  -


 With contributions from (in alphabetic order):
   Daniel Aravena         : Magnetic Suceptibility
   Michael Atanasov       : Ab Initio Ligand Field Theory (pilot matlab implementation)
   Alexander A. Auer      : GIAO ZORA, VPT2
   Ute Becker             : Parallelization
   Giovanni Bistoni       : ED, misc. LED, open-shell LED, HFLED
   Martin Brehm           : Molecular dynamics
   Dmytro Bykov           : SCF Hessian
   Vijay G. Chilkuri      : MRCI spin determinant printing, contributions to CSF-ICE
   Dipayan Datta          : RHF DLPNO-CCSD density
   Achintya Kumar Dutta   : EOM-CC, STEOM-CC
   Dmitry Ganyushin       : Spin-Orbit,Spin-Spin,Magnetic field MRCI
   Miquel Garcia          : C-PCM Hessian, Gaussian charge scheme
   Yang Guo               : DLPNO-NEVPT2, CIM, IAO-localization
   Andreas Hansen         : Spin unrestricted coupled pair/coupled cluster methods
   Benjamin Helmich-Paris : CASSCF linear response (MC-RPA)
   Lee Huntington         : MR-EOM, pCC
   Robert Izsak           : Overlap fitted RIJCOSX, COSX-SCS-MP3, EOM
   Christian Kollmar      : KDIIS, OOCD, Brueckner-CCSD(T), CCSD density
   Simone Kossmann        : Meta GGA functionals, TD-DFT gradient, OOMP2, MP2 Hessian
   Martin Krupicka        : AUTO-CI
   Lucas Lang             : DCDCAS
   Dagmar Lenk            : GEPOL surface, SMD
   Dimitrios Liakos       : Extrapolation schemes; Compound Job, initial MDCI parallelization
   Dimitrios Manganas     : Further ROCIS development; embedding schemes
   Dimitrios Pantazis     : SARC Basis sets
   Taras Petrenko         : DFT Hessian,TD-DFT gradient, ASA, ECA, R-Raman, ABS, FL, XAS/XES, NRVS
   Peter Pinski           : DLPNO-MP2, DLPNO-MP2 Gradient
   Christoph Reimann      : Effective Core Potentials
   Marius Retegan         : Local ZFS, SOC
   Christoph Riplinger    : Optimizer, TS searches, QM/MM, DLPNO-CCSD(T), (RO)-DLPNO pert. Triples
   Tobias Risthaus        : Range-separated hybrids, TD-DFT gradient, RPA, STAB
   Michael Roemelt        : Original ROCIS implementation
   Masaaki Saitow         : Open-shell DLPNO-CCSD energy and density
   Barbara Sandhoefer     : DKH picture change effects
   Avijit Sen             : IP-ROCIS
   Kantharuban Sivalingam : CASSCF convergence, NEVPT2, FIC-MRCI
   Bernardo de Souza      : ESD, SOC TD-DFT
   Georgi Stoychev        : AutoAux, RI-MP2 NMR
   Willem Van den Heuvel  : Paramagnetic NMR
   Boris Wezisla          : Elementary symmetry handling
   Frank Wennmohs         : Technical directorship


 We gratefully acknowledge several colleagues who have allowed us to
 interface, adapt or use parts of their codes:
   Stefan Grimme, W. Hujo, H. Kruse,             : VdW corrections, initial TS optimization,
                  C. Bannwarth                     DFT functionals, gCP, sTDA/sTD-DF
   Ed Valeev, F. Pavosevic, A. Kumar             : LibInt (2-el integral package), F12 methods
   Garnet Chan, S. Sharma, J. Yang, R. Olivares  : DMRG
   Ulf Ekstrom                                   : XCFun DFT Library
   Mihaly Kallay                                 : mrcc  (arbitrary order and MRCC methods)
   Andreas Klamt, Michael Diedenhofen            : otool_cosmo (COSMO solvation model)
   Jiri Pittner, Ondrej Demel                    : Mk-CCSD
   Frank Weinhold                                : gennbo (NPA and NBO analysis)
   Christopher J. Cramer and Donald G. Truhlar   : smd solvation model
   Lars Goerigk                                  : TD-DFT with DH, B97 family of functionals
   V. Asgeirsson, H. Jonsson                     : NEB implementation
   FAccTs GmbH                                   : IRC, NEB, NEB-TS, Multilevel, MM, QM/MM, CI optimization
   S Lehtola, MJT Oliveira, MAL Marques          : LibXC Library


 Your calculation uses the libint2 library for the computation of 2-el integrals
 For citations please refer to: http://libint.valeyev.net

 Your ORCA version has been built with support for libXC version: 4.2.3
 For citations please refer to: https://tddft.org/programs/libxc/

 This ORCA versions uses:
   CBLAS   interface :  Fast vector & matrix operations
   LAPACKE interface :  Fast linear algebra routines
   SCALAPACK package :  Parallel linear algebra routines


----- Orbital basis set information -----
Your calculation utilizes the basis: cc-pVTZ 
       H, B-Ne : Obtained from the ccRepo (grant-hill.group.shef.ac.uk/ccrepo) Feb. 2017
                 T. H. Dunning, Jr., J. Chem. Phys. 90, 1007 (1989)
            He : Obtained from the ccRepo (grant-hill.group.shef.ac.uk/ccrepo) Feb. 2017
                 D. E. Woon, T. H. Dunning, Jr., J. Chem. Phys. 100, 2975 (1994)
  Li-Be, Na-Mg : Obtained from the ccRepo (grant-hill.group.shef.ac.uk/ccrepo) Feb. 2017
                 B. P. Prascher, D. E. Woon, K. A. Peterson, T. H. Dunning, Jr., A. K. Wilson, Theor. Chem. Acc. 128, 69 (2011)
         Al-Ar : Obtained from the ccRepo (grant-hill.group.shef.ac.uk/ccrepo) Feb. 2017
                 D. E. Woon, T. H. Dunning, Jr., J. Chem. Phys. 98, 1358 (1993)
            Ca : Obtained from the Peterson Research Group Website (tyr0.chem.wsu.edu/~kipeters) Feb. 2017
                 J. Koput, K. A. Peterson, J. Phys. Chem. 106, 9595 (2002)
         Sc-Zn : Obtained from the ccRepo (grant-hill.group.shef.ac.uk/ccrepo) Feb. 2017
                 N. B. Balabanov, K. A. Peterson, J. Chem. Phys. 123, 064107 (2005)
                 N. B. Balabanov, K. A. Peterson, J. Chem. Phys. 125, 074110 (2006)
         Ga-Kr : Obtained from the ccRepo (grant-hill.group.shef.ac.uk/ccrepo) Feb. 2017
                 A. K. Wilson, D. E. Woon, K. A. Peterson, T. H. Dunning, Jr., J. Chem. Phys. 110, 7667 (1999)
             Y : Obtained from the ccRepo (grant-hill.group.shef.ac.uk/ccrepo) Feb. 2017
                 K. A. Peterson, D. Figgen, M. Dolg, H. Stoll, J. Chem. Phys. 126, 124101 (2007)
        Ag, Au : Obtained from the Peterson Research Group Website (tyr0.chem.wsu.edu/~kipeters) Feb. 2017
                 K. A. Peterson, C. Puzzarini, Theor. Chem. Acc. 114, 283 (2005)

----- AuxC basis set information -----
Your calculation utilizes the auxiliary basis: cc-pVTZ/C 
  Obtained from the EMSL Basis Set Exchange (bse.pnl.gov) Feb. 2017
  H-He, B-F, Al-Ar, Ga-Kr : F. Weigend, A. Kohn, C. Hattig, J. Chem. Phys. 116, 3175 (2002)
             Li-Be, Na-Mg : C. Haettig, Phys. Chem. Chem. Phys. 7, 59 (2005)
                       Ne : C. Haettig, Phys. Chem. Chem. Phys. 7, 59 (2005)
                            F. Weigend, A. Kohn, C. Hattig, J. Chem. Phys. 116, 3175 (2002)
                    Sc-Zn : J. G. Hill, J. A. Platts, J. Chem. Phys. 128, 044104 (2008)

================================================================================
                                        WARNINGS
                       Please study these warnings very carefully!
================================================================================


WARNING: No MP2 level density has been requested!
         To caclulate MP2 level properties use
         %mp2 Density relaxed end
         or
         %mp2 Density unrelaxed end

WARNING: Post HF methods need fully converged wavefunctions
  ===> : Setting SCFConvForced true
         You can overwrite this default with %scf ConvForced false 


INFO   : the flag for use of LIBINT has been found!

================================================================================
                                       INPUT FILE
================================================================================
NAME = G2_CONFS/Conf192.orca
|  1> ! ri-mp2 cc-pvtz cc-pvtz/c TightSCF NoKeepInts
|  2> 
|  3> %scf
|  4>   MaxCore 4096
|  5> end
|  6> *xyz  0  1
|  7>     C       14.0391006   15.5165534   13.9974243
|  8>     C       15.2036841   16.3785162   13.4698139
|  9>     O       15.7900250   17.1022472   14.5681397
| 10>     C       16.6106576   16.4628311   15.4534831
| 11>     O       16.9438966   15.2967072   15.3216841
| 12>     C       17.0831800   17.3084586   16.5981763
| 13>     C       16.7193690   18.5907926   16.8628493
| 14>     C       15.7002184   19.4518681   16.1491883
| 15>     N       17.5949884   19.3446707   17.6665346
| 16>     C       18.9055086   18.9577927   17.8867653
| 17>     S       20.0566978   20.0018801   18.4551245
| 18>     N       19.1859172   17.6284551   17.6302690
| 19>     C       18.0763693   16.6611486   17.5677888
| 20>     C       17.4373940   16.4772044   18.9580030
| 21>     C       18.0977091   16.8190254   20.1603420
| 22>     C       17.4784365   16.6214666   21.4058152
| 23>     C       16.1915593   16.0634427   21.4645848
| 24>     C       15.5378037   15.7006854   20.2810027
| 25>     O       14.2979883   15.1514224   20.3317785
| 26>     C       16.1555021   15.8989909   19.0423071
| 27>     H       14.4007129   14.7383676   14.6812305
| 28>     H       13.5244832   15.0201537   13.1658454
| 29>     H       13.3082522   16.1359817   14.5316809
| 30>     H       15.9530072   15.7496088   12.9694408
| 31>     H       14.8130041   17.0928867   12.7338885
| 32>     H       14.7405119   18.9275737   16.0633906
| 33>     H       16.0426556   19.7029339   15.1374905
| 34>     H       15.5060306   20.3904908   16.6817495
| 35>     H       17.3860428   20.3085553   17.8702011
| 36>     H       20.1362375   17.3250066   17.7950577
| 37>     H       18.3770476   15.6567510   17.2357720
| 38>     H       19.0962609   17.2469980   20.1435832
| 39>     H       17.9992561   16.9012424   22.3200552
| 40>     H       15.7112756   15.9098909   22.4252206
| 41>     H       14.0569290   15.0690251   21.2668291
| 42>     H       15.6292850   15.5903743   18.1454895
| 43> *
| 44> 
| 45>                          ****END OF INPUT****
================================================================================

                       ****************************
                       * Single Point Calculation *
                       ****************************

---------------------------------
CARTESIAN COORDINATES (ANGSTROEM)
---------------------------------
  C     14.039101   15.516553   13.997424
  C     15.203684   16.378516   13.469814
  O     15.790025   17.102247   14.568140
  C     16.610658   16.462831   15.453483
  O     16.943897   15.296707   15.321684
  C     17.083180   17.308459   16.598176
  C     16.719369   18.590793   16.862849
  C     15.700218   19.451868   16.149188
  N     17.594988   19.344671   17.666535
  C     18.905509   18.957793   17.886765
  S     20.056698   20.001880   18.455125
  N     19.185917   17.628455   17.630269
  C     18.076369   16.661149   17.567789
  C     17.437394   16.477204   18.958003
  C     18.097709   16.819025   20.160342
  C     17.478437   16.621467   21.405815
  C     16.191559   16.063443   21.464585
  C     15.537804   15.700685   20.281003
  O     14.297988   15.151422   20.331778
  C     16.155502   15.898991   19.042307
  H     14.400713   14.738368   14.681230
  H     13.524483   15.020154   13.165845
  H     13.308252   16.135982   14.531681
  H     15.953007   15.749609   12.969441
  H     14.813004   17.092887   12.733889
  H     14.740512   18.927574   16.063391
  H     16.042656   19.702934   15.137491
  H     15.506031   20.390491   16.681749
  H     17.386043   20.308555   17.870201
  H     20.136238   17.325007   17.795058
  H     18.377048   15.656751   17.235772
  H     19.096261   17.246998   20.143583
  H     17.999256   16.901242   22.320055
  H     15.711276   15.909891   22.425221
  H     14.056929   15.069025   21.266829
  H     15.629285   15.590374   18.145490

----------------------------
CARTESIAN COORDINATES (A.U.)
----------------------------
  NO LB      ZA    FRAG     MASS         X           Y           Z
   0 C     6.0000    0    12.011   26.530055   29.322036   26.451299
   1 C     6.0000    0    12.011   28.730799   30.950910   25.454259
   2 O     8.0000    0    15.999   29.838823   32.318563   27.529794
   3 C     6.0000    0    12.011   31.389594   31.110242   29.202851
   4 O     8.0000    0    15.999   32.019324   28.906587   28.953787
   5 C     6.0000    0    12.011   32.282532   32.708247   31.366008
   6 C     6.0000    0    12.011   31.595029   35.131507   31.866167
   7 C     6.0000    0    12.011   29.669113   36.758704   30.517543
   8 N     7.0000    0    14.007   33.249709   36.556130   33.384912
   9 C     6.0000    0    12.011   35.726234   35.825036   33.801088
  10 S    16.0000    0    32.060   37.901666   37.798076   34.875131
  11 N     7.0000    0    14.007   36.256129   33.312952   33.316380
  12 C     6.0000    0    12.011   34.159387   31.485008   33.198310
  13 C     6.0000    0    12.011   32.951899   31.137404   35.825434
  14 C     6.0000    0    12.011   34.199714   31.783352   38.097525
  15 C     6.0000    0    12.011   33.029458   31.410020   40.451128
  16 C     6.0000    0    12.011   30.597613   30.355507   40.562187
  17 C     6.0000    0    12.011   29.362194   29.669996   38.325541
  18 O     8.0000    0    15.999   27.019282   28.632039   38.421493
  19 C     6.0000    0    12.011   30.529475   30.044739   35.984745
  20 H     1.0000    0     1.008   27.213404   27.851478   27.743505
  21 H     1.0000    0     1.008   25.557569   28.383977   24.879842
  22 H     1.0000    0     1.008   25.148952   30.492586   27.460897
  23 H     1.0000    0     1.008   30.146815   29.762447   24.508691
  24 H     1.0000    0     1.008   27.992521   32.300875   24.063562
  25 H     1.0000    0     1.008   27.855531   35.767931   30.355409
  26 H     1.0000    0     1.008   30.316226   37.233149   28.605711
  27 H     1.0000    0     1.008   29.302151   38.532443   31.523938
  28 H     1.0000    0     1.008   32.854859   38.377608   33.769786
  29 H     1.0000    0     1.008   38.051974   32.739518   33.627786
  30 H     1.0000    0     1.008   34.727587   29.586972   32.570889
  31 H     1.0000    0     1.008   36.086703   32.592103   38.065856
  32 H     1.0000    0     1.008   34.013665   31.938719   42.178792
  33 H     1.0000    0     1.008   29.690008   30.065337   42.377525
  34 H     1.0000    0     1.008   26.563746   28.476331   40.188483
  35 H     1.0000    0     1.008   29.535068   29.461538   34.290006

--------------------------------
INTERNAL COORDINATES (ANGSTROEM)
--------------------------------
 C      0   0   0     0.000000000000     0.00000000     0.00000000
 C      1   0   0     1.541949198659     0.00000000     0.00000000
 O      2   1   0     1.440104778938   109.11568209     0.00000000
 C      3   2   1     1.366061400174   120.24125089    76.20516227
 O      4   3   2     1.219944325645   122.78572088     4.26200471
 C      4   3   2     1.499561872476   114.83886255   183.74824462
 C      6   4   3     1.358966787014   126.61463049     3.79369894
 C      7   6   4     1.513086575547   128.71543760     4.44349759
 N      7   6   4     1.407462818249   116.74920198   201.79582112
 C      9   7   6     1.384066234945   122.01942334    16.78015260
 S     10   9   7     1.654807316052   122.47868482   162.49970541
 N     10   9   7     1.382590969753   115.54841894   341.03051078
 C     12  10   9     1.473323515976   119.10351065   341.15876239
 C     13  12  10     1.541045237689   110.63239509   292.13325030
 C     14  13  12     1.413674891285   123.00600408   340.22156422
 C     15  14  13     1.404895556433   120.93731317   180.58935120
 C     16  15  14     1.403886557645   119.80594529     0.70822402
 C     17  16  15     1.399948510009   119.71385242     0.36731336
 O     18  17  16     1.356985722516   119.99418510   179.49760578
 C     18  17  16     1.398300101606   120.39158211   359.58568414
 H      1   2   3     1.097236307270   111.14902616   294.91360556
 H      1   2   3     1.096707434765   110.36329884   175.32547030
 H      1   2   3     1.096932503515   110.74406962    55.54065019
 H      2   1   3     1.098809749307   110.54322615   122.25586036
 H      2   1   3     1.097516409005   108.93196161   240.84071230
 H      8   7   6     1.096942309029   110.74327043    51.56945668
 H      8   7   6     1.097191738211   110.78786754   291.65576340
 H      8   7   6     1.096513979104   112.16941980   171.02196270
 H      9   7   6     1.007080845364   119.93766177   178.19223391
 H     12  10   9     1.011110765639   116.67564748   180.64014297
 H     13  12  10     1.099753215253   113.98666918   172.71726408
 H     15  14  13     1.086529843590   120.75663831     0.93822494
 H     16  15  14     1.088743464554   119.83035319   180.66595471
 H     17  16  15     1.084929365448   119.94133512   179.99868486
 H     19  18  17     0.969132873101   107.32405981   358.22028206
 H     20  18  17     1.084633786030   118.54129473   178.89960822

---------------------------
INTERNAL COORDINATES (A.U.)
---------------------------
 C      0   0   0     0.000000000000     0.00000000     0.00000000
 C      1   0   0     2.913861697884     0.00000000     0.00000000
 O      2   1   0     2.721403636344   109.11568209     0.00000000
 C      3   2   1     2.581481928450   120.24125089    76.20516227
 O      4   3   2     2.305360674100   122.78572088     4.26200471
 C      4   3   2     2.833761259850   114.83886255   183.74824462
 C      6   4   3     2.568075052551   126.61463049     3.79369894
 C      7   6   4     2.859319244697   128.71543760     4.44349759
 N      7   6   4     2.659719270167   116.74920198   201.79582112
 C      9   7   6     2.615506135253   122.01942334    16.78015260
 S     10   9   7     3.127132631748   122.47868482   162.49970541
 N     10   9   7     2.612718288065   115.54841894   341.03051078
 C     12  10   9     2.784177951861   119.10351065   341.15876239
 C     13  12  10     2.912153459217   110.63239509   292.13325030
 C     14  13  12     2.671458386930   123.00600408   340.22156422
 C     15  14  13     2.654867848422   120.93731317   180.58935120
 C     16  15  14     2.652961117042   119.80594529     0.70822402
 C     17  16  15     2.645519285507   119.71385242     0.36731336
 O     18  17  16     2.564331383196   119.99418510   179.49760578
 C     18  17  16     2.642404245070   120.39158211   359.58568414
 H      1   2   3     2.073476124935   111.14902616   294.91360556
 H      1   2   3     2.072476700740   110.36329884   175.32547030
 H      1   2   3     2.072902019039   110.74406962    55.54065019
 H      2   1   3     2.076449499473   110.54322615   122.25586036
 H      2   1   3     2.074005440504   108.93196161   240.84071230
 H      8   7   6     2.072920548777   110.74327043    51.56945668
 H      8   7   6     2.073391901620   110.78786754   291.65576340
 H      8   7   6     2.072111122522   112.16941980   171.02196270
 H      9   7   6     1.903106992456   119.93766177   178.19223391
 H     12  10   9     1.910722438118   116.67564748   180.64014297
 H     13  12  10     2.078232391727   113.98666918   172.71726408
 H     15  14  13     2.053243840717   120.75663831     0.93822494
 H     16  15  14     2.057426978104   119.83035319   180.66595471
 H     17  16  15     2.050219375345   119.94133512   179.99868486
 H     19  18  17     1.831395717540   107.32405981   358.22028206
 H     20  18  17     2.049660811195   118.54129473   178.89960822

---------------------
BASIS SET INFORMATION
---------------------
There are 5 groups of distinct atoms

 Group   1 Type C   : 18s5p2d1f contracted to 4s3p2d1f pattern {8811/311/11/1}
 Group   2 Type O   : 18s5p2d1f contracted to 4s3p2d1f pattern {8811/311/11/1}
 Group   3 Type N   : 18s5p2d1f contracted to 4s3p2d1f pattern {8811/311/11/1}
 Group   4 Type S   : 41s16p2d1f contracted to 5s4p2d1f pattern {13131311/7711/11/1}
 Group   5 Type H   : 5s2p1d contracted to 3s2p1d pattern {311/11/1}

Atom   0C    basis set group =>   1
Atom   1C    basis set group =>   1
Atom   2O    basis set group =>   2
Atom   3C    basis set group =>   1
Atom   4O    basis set group =>   2
Atom   5C    basis set group =>   1
Atom   6C    basis set group =>   1
Atom   7C    basis set group =>   1
Atom   8N    basis set group =>   3
Atom   9C    basis set group =>   1
Atom  10S    basis set group =>   4
Atom  11N    basis set group =>   3
Atom  12C    basis set group =>   1
Atom  13C    basis set group =>   1
Atom  14C    basis set group =>   1
Atom  15C    basis set group =>   1
Atom  16C    basis set group =>   1
Atom  17C    basis set group =>   1
Atom  18O    basis set group =>   2
Atom  19C    basis set group =>   1
Atom  20H    basis set group =>   5
Atom  21H    basis set group =>   5
Atom  22H    basis set group =>   5
Atom  23H    basis set group =>   5
Atom  24H    basis set group =>   5
Atom  25H    basis set group =>   5
Atom  26H    basis set group =>   5
Atom  27H    basis set group =>   5
Atom  28H    basis set group =>   5
Atom  29H    basis set group =>   5
Atom  30H    basis set group =>   5
Atom  31H    basis set group =>   5
Atom  32H    basis set group =>   5
Atom  33H    basis set group =>   5
Atom  34H    basis set group =>   5
Atom  35H    basis set group =>   5
---------------------------------
AUXILIARY/C BASIS SET INFORMATION
---------------------------------
There are 5 groups of distinct atoms

 Group   1 Type C   : 8s6p5d3f1g contracted to 8s6p5d3f1g pattern {11111111/111111/11111/111/1}
 Group   2 Type O   : 8s6p5d3f1g contracted to 8s6p5d3f1g pattern {11111111/111111/11111/111/1}
 Group   3 Type N   : 8s6p5d3f1g contracted to 8s6p5d3f1g pattern {11111111/111111/11111/111/1}
 Group   4 Type S   : 10s8p7d5f2g contracted to 10s8p7d5f2g pattern {1111111111/11111111/1111111/11111/11}
 Group   5 Type H   : 4s3p2d1f contracted to 4s3p2d1f pattern {1111/111/11/1}

Atom   0C    basis set group =>   1
Atom   1C    basis set group =>   1
Atom   2O    basis set group =>   2
Atom   3C    basis set group =>   1
Atom   4O    basis set group =>   2
Atom   5C    basis set group =>   1
Atom   6C    basis set group =>   1
Atom   7C    basis set group =>   1
Atom   8N    basis set group =>   3
Atom   9C    basis set group =>   1
Atom  10S    basis set group =>   4
Atom  11N    basis set group =>   3
Atom  12C    basis set group =>   1
Atom  13C    basis set group =>   1
Atom  14C    basis set group =>   1
Atom  15C    basis set group =>   1
Atom  16C    basis set group =>   1
Atom  17C    basis set group =>   1
Atom  18O    basis set group =>   2
Atom  19C    basis set group =>   1
Atom  20H    basis set group =>   5
Atom  21H    basis set group =>   5
Atom  22H    basis set group =>   5
Atom  23H    basis set group =>   5
Atom  24H    basis set group =>   5
Atom  25H    basis set group =>   5
Atom  26H    basis set group =>   5
Atom  27H    basis set group =>   5
Atom  28H    basis set group =>   5
Atom  29H    basis set group =>   5
Atom  30H    basis set group =>   5
Atom  31H    basis set group =>   5
Atom  32H    basis set group =>   5
Atom  33H    basis set group =>   5
Atom  34H    basis set group =>   5
Atom  35H    basis set group =>   5
------------------------------------------------------------------------------
                           ORCA GTO INTEGRAL CALCULATION
------------------------------------------------------------------------------

                         BASIS SET STATISTICS AND STARTUP INFO

 # of primitive gaussian shells          ...  682
 # of primitive gaussian functions       ... 1312
 # of contracted shells                  ...  298
 # of contracted basis functions         ...  828
 Highest angular momentum                ...    3
 Maximum contraction depth               ...   13
 Integral package used                   ... LIBINT
 Integral threshhold            Thresh   ...  2.500e-11
 Primitive cut-off              TCut     ...  2.500e-12


------------------------------ INTEGRAL EVALUATION ----------------------------


 * One electron integrals 
 Pre-screening matrix                    ... done
 Shell pair data                         ... done (   0.013 sec)

-------------------------------------------------------------------------------
                                 ORCA SCF
-------------------------------------------------------------------------------

------------
SCF SETTINGS
------------
Hamiltonian:
 Ab initio Hamiltonian  Method          .... Hartree-Fock(GTOs)


General Settings:
 Integral files         IntName         .... G2_CONFS/Conf192.orca
 Hartree-Fock type      HFTyp           .... RHF
 Total Charge           Charge          ....    0
 Multiplicity           Mult            ....    1
 Number of Electrons    NEL             ....  154
 Basis Dimension        Dim             ....  828
 Nuclear Repulsion      ENuc            ....   1695.5657683818 Eh

Convergence Acceleration:
 DIIS                   CNVDIIS         .... on
   Start iteration      DIISMaxIt       ....    12
   Startup error        DIISStart       ....  0.200000
   # of expansion vecs  DIISMaxEq       ....     5
   Bias factor          DIISBfac        ....   1.050
   Max. coefficient     DIISMaxC        ....  10.000
 Newton-Raphson         CNVNR           .... off
 SOSCF                  CNVSOSCF        .... on
   Start iteration      SOSCFMaxIt      ....   150
   Startup grad/error   SOSCFStart      ....  0.003300
 Level Shifting         CNVShift        .... on
   Level shift para.    LevelShift      ....    0.2500
   Turn off err/grad.   ShiftErr        ....    0.0010
 Zerner damping         CNVZerner       .... off
 Static damping         CNVDamp         .... on
   Fraction old density DampFac         ....    0.7000
   Max. Damping (<1)    DampMax         ....    0.9800
   Min. Damping (>=0)   DampMin         ....    0.0000
   Turn off err/grad.   DampErr         ....    0.1000
 Fernandez-Rico         CNVRico         .... off

SCF Procedure:
 Maximum # iterations   MaxIter         ....   125
 SCF integral mode      SCFMode         .... Direct
   Integral package                     .... LIBINT
 Reset frequency        DirectResetFreq ....    20
 Integral Threshold     Thresh          ....  2.500e-11 Eh
 Primitive CutOff       TCut            ....  2.500e-12 Eh

Convergence Tolerance:
 Convergence Check Mode ConvCheckMode   .... Total+1el-Energy
 Convergence forced     ConvForced      .... 1
 Energy Change          TolE            ....  1.000e-08 Eh
 1-El. energy change                    ....  1.000e-05 Eh
 Orbital Gradient       TolG            ....  1.000e-05
 Orbital Rotation angle TolX            ....  1.000e-05
 DIIS Error             TolErr          ....  5.000e-07


Diagonalization of the overlap matrix:
Smallest eigenvalue                        ... 3.300e-05
Time for diagonalization                   ...    0.110 sec
Threshold for overlap eigenvalues          ... 1.000e-08
Number of eigenvalues below threshold      ... 0
Time for construction of square roots      ...    0.072 sec
Total time needed                          ...    0.184 sec

-------------------
DFT GRID GENERATION
-------------------

General Integration Accuracy     IntAcc      ...  4.340
Radial Grid Type                 RadialGrid  ... Gauss-Chebyshev
Angular Grid (max. acc.)         AngularGrid ... Lebedev-110
Angular grid pruning method      GridPruning ... 3 (G Style)
Weight generation scheme         WeightScheme... Becke
Basis function cutoff            BFCut       ...    1.0000e-11
Integration weight cutoff        WCut        ...    1.0000e-14
Grids for H and He will be reduced by one unit

# of grid points (after initial pruning)     ...  46246 (   0.0 sec)
# of grid points (after weights+screening)   ...  41384 (   0.3 sec)
nearest neighbour list constructed           ...    0.0 sec
Grid point re-assignment to atoms done       ...    0.0 sec
Grid point division into batches done        ...    0.0 sec
Reduced shell lists constructed in    0.9 sec

Total number of grid points                  ...    41384
Total number of batches                      ...      662
Average number of points per batch           ...       62
Average number of grid points per atom       ...     1150
Average number of shells per batch           ...   145.46 (48.81%)
Average number of basis functions per batch  ...   370.55 (44.75%)
Average number of large shells per batch     ...    93.50 (64.28%)
Average number of large basis fcns per batch ...   241.56 (65.19%)
Maximum spatial batch extension              ...  24.55, 21.10, 20.02 au
Average spatial batch extension              ...   3.50,  3.59,  3.32 au

Time for grid setup =    1.246 sec

------------------------------
INITIAL GUESS: MODEL POTENTIAL
------------------------------
Loading Hartree-Fock densities                     ... done
Calculating cut-offs                               ... done
Setting up the integral package                    ... done
Initializing the effective Hamiltonian             ... done
Starting the Coulomb interaction                   ... done (   3.0 sec)
Reading the grid                                   ... done
Mapping shells                                     ... done
Starting the XC term evaluation                    ... done (   1.3 sec)
Transforming the Hamiltonian                       ... done (   0.0 sec)
Diagonalizing the Hamiltonian                      ... done (   0.1 sec)
Back transforming the eigenvectors                 ... done (   0.0 sec)
Now organizing SCF variables                       ... done
                      ------------------
                      INITIAL GUESS DONE (   5.8 sec)
                      ------------------
--------------
SCF ITERATIONS
--------------
ITER       Energy         Delta-E        Max-DP      RMS-DP      [F,P]     Damp
               ***  Starting incremental Fock matrix formation  ***
  0  -1270.0073676855   0.000000000000 0.04951626  0.00043782  0.3142028 0.7000
  1  -1270.2748980202  -0.267530334693 0.03621020  0.00035318  0.1847195 0.7000
                               ***Turning on DIIS***
  2  -1270.4416209984  -0.166722978185 0.02592111  0.00023564  0.1096885 0.7000
  3  -1272.5711936582  -2.129572659777 0.06330896  0.00050429  0.0829356 0.0000
  4  -1270.7486753922   1.822518266026 0.01352524  0.00010055  0.0082091 0.0000
  5  -1270.8123717092  -0.063696317082 0.00513472  0.00005213  0.0048204 0.0000
                      *** Initiating the SOSCF procedure ***
                           *** Shutting down DIIS ***
                      *** Re-Reading the Fockian *** 
                      *** Removing any level shift *** 
ITER      Energy       Delta-E        Grad      Rot      Max-DP    RMS-DP
  6  -1270.78930828   0.0230634249  0.001562  0.001562  0.001971  0.000027
               *** Restarting incremental Fock matrix formation ***
  7  -1270.80368174  -0.0143734593  0.000800  0.001993  0.001547  0.000016
  8  -1270.80373177  -0.0000500262  0.000417  0.002369  0.001348  0.000018
  9  -1270.80375105  -0.0000192764  0.000184  0.000323  0.000365  0.000004
 10  -1270.80375337  -0.0000023230  0.000057  0.000148  0.000122  0.000001
 11  -1270.80375359  -0.0000002211  0.000024  0.000137  0.000086  0.000001
 12  -1270.80375366  -0.0000000661  0.000010  0.000035  0.000028  0.000000
 13  -1270.80375366  -0.0000000008  0.000003  0.000009  0.000006  0.000000
                  ***Gradient check signals convergence***
              ***Rediagonalizing the Fockian in SOSCF/NRSCF***

               *****************************************************
               *                     SUCCESS                       *
               *           SCF CONVERGED AFTER  14 CYCLES          *
               *****************************************************


----------------
TOTAL SCF ENERGY
----------------

Total Energy       :        -1270.80375364 Eh          -34580.32817 eV

Components:
Nuclear Repulsion  :         1695.56576838 Eh           46138.69020 eV
Electronic Energy  :        -2966.36952202 Eh          -80719.01837 eV
One Electron Energy:        -5112.57291319 Eh         -139120.18170 eV
Two Electron Energy:         2146.20339116 Eh           58401.16333 eV

Virial components:
Potential Energy   :        -2539.67346649 Eh          -69108.02841 eV
Kinetic Energy     :         1268.86971284 Eh           34527.70024 eV
Virial Ratio       :            2.00152422


---------------
SCF CONVERGENCE
---------------

  Last Energy change         ...    1.4231e-08  Tolerance :   1.0000e-08
  Last MAX-Density change    ...    2.5433e-06  Tolerance :   1.0000e-07
  Last RMS-Density change    ...    3.0236e-08  Tolerance :   5.0000e-09
  Last Orbital Gradient      ...    1.4011e-06  Tolerance :   1.0000e-05
  Last Orbital Rotation      ...    3.7293e-06  Tolerance :   1.0000e-05

             **** THE GBW FILE WAS UPDATED (G2_CONFS/Conf192.orca.gbw) ****
             **** DENSITY FILE WAS UPDATED (G2_CONFS/Conf192.orca.scfp) ****
             **** ENERGY FILE WAS UPDATED (G2_CONFS/Conf192.orca.en.tmp) ****
             **** THE GBW FILE WAS UPDATED (G2_CONFS/Conf192.orca.gbw) ****
             **** DENSITY FILE WAS UPDATED (G2_CONFS/Conf192.orca.scfp) ****
----------------
ORBITAL ENERGIES
----------------

  NO   OCC          E(Eh)            E(eV) 
   0   2.0000     -91.891625     -2500.4982 
   1   2.0000     -20.604717      -560.6828 
   2   2.0000     -20.592911      -560.3616 
   3   2.0000     -20.545096      -559.0605 
   4   2.0000     -15.631486      -425.3544 
   5   2.0000     -15.606154      -424.6650 
   6   2.0000     -11.395911      -310.0985 
   7   2.0000     -11.385585      -309.8175 
   8   2.0000     -11.334798      -308.4355 
   9   2.0000     -11.307854      -307.7023 
  10   2.0000     -11.304456      -307.6099 
  11   2.0000     -11.300700      -307.5077 
  12   2.0000     -11.257973      -306.3450 
  13   2.0000     -11.257466      -306.3312 
  14   2.0000     -11.255272      -306.2715 
  15   2.0000     -11.248438      -306.0856 
  16   2.0000     -11.235941      -305.7455 
  17   2.0000     -11.231729      -305.6309 
  18   2.0000     -11.230840      -305.6067 
  19   2.0000     -11.227175      -305.5070 
  20   2.0000      -8.896511      -242.0864 
  21   2.0000      -6.578061      -178.9981 
  22   2.0000      -6.576100      -178.9448 
  23   2.0000      -6.575491      -178.9282 
  24   2.0000      -1.453949       -39.5640 
  25   2.0000      -1.412520       -38.4366 
  26   2.0000      -1.357793       -36.9474 
  27   2.0000      -1.338503       -36.4225 
  28   2.0000      -1.234282       -33.5865 
  29   2.0000      -1.150495       -31.3066 
  30   2.0000      -1.117768       -30.4160 
  31   2.0000      -1.041411       -28.3382 
  32   2.0000      -1.033804       -28.1312 
  33   2.0000      -1.007320       -27.4106 
  34   2.0000      -0.997336       -27.1389 
  35   2.0000      -0.981277       -26.7019 
  36   2.0000      -0.919226       -25.0134 
  37   2.0000      -0.894983       -24.3537 
  38   2.0000      -0.843284       -22.9469 
  39   2.0000      -0.842980       -22.9387 
  40   2.0000      -0.825468       -22.4621 
  41   2.0000      -0.814771       -22.1710 
  42   2.0000      -0.755334       -20.5537 
  43   2.0000      -0.726203       -19.7610 
  44   2.0000      -0.722466       -19.6593 
  45   2.0000      -0.691376       -18.8133 
  46   2.0000      -0.688849       -18.7445 
  47   2.0000      -0.680500       -18.5173 
  48   2.0000      -0.672362       -18.2959 
  49   2.0000      -0.656389       -17.8613 
  50   2.0000      -0.647223       -17.6118 
  51   2.0000      -0.644253       -17.5310 
  52   2.0000      -0.635006       -17.2794 
  53   2.0000      -0.611823       -16.6485 
  54   2.0000      -0.607230       -16.5236 
  55   2.0000      -0.596143       -16.2219 
  56   2.0000      -0.593142       -16.1402 
  57   2.0000      -0.582419       -15.8484 
  58   2.0000      -0.568616       -15.4728 
  59   2.0000      -0.566015       -15.4020 
  60   2.0000      -0.555043       -15.1035 
  61   2.0000      -0.544984       -14.8298 
  62   2.0000      -0.538452       -14.6520 
  63   2.0000      -0.531107       -14.4522 
  64   2.0000      -0.516873       -14.0648 
  65   2.0000      -0.507817       -13.8184 
  66   2.0000      -0.499799       -13.6002 
  67   2.0000      -0.497825       -13.5465 
  68   2.0000      -0.476357       -12.9623 
  69   2.0000      -0.462977       -12.5982 
  70   2.0000      -0.454861       -12.3774 
  71   2.0000      -0.443759       -12.0753 
  72   2.0000      -0.370390       -10.0788 
  73   2.0000      -0.336847        -9.1661 
  74   2.0000      -0.330712        -8.9991 
  75   2.0000      -0.316508        -8.6126 
  76   2.0000      -0.313940        -8.5428 
  77   0.0000       0.075283         2.0485 
  78   0.0000       0.113708         3.0941 
  79   0.0000       0.121324         3.3014 
  80   0.0000       0.133435         3.6310 
  81   0.0000       0.136252         3.7076 
  82   0.0000       0.141752         3.8573 
  83   0.0000       0.148258         4.0343 
  84   0.0000       0.152863         4.1596 
  85   0.0000       0.163898         4.4599 
  86   0.0000       0.165542         4.5046 
  87   0.0000       0.173858         4.7309 
  88   0.0000       0.191050         5.1987 
  89   0.0000       0.203824         5.5463 
  90   0.0000       0.207029         5.6336 
  91   0.0000       0.209419         5.6986 
  92   0.0000       0.216183         5.8826 
  93   0.0000       0.220593         6.0026 
  94   0.0000       0.232872         6.3368 
  95   0.0000       0.240661         6.5487 
  96   0.0000       0.245826         6.6893 
  97   0.0000       0.254915         6.9366 
  98   0.0000       0.263712         7.1760 
  99   0.0000       0.277919         7.5625 
 100   0.0000       0.288935         7.8623 
 101   0.0000       0.304364         8.2822 
 102   0.0000       0.307642         8.3714 
 103   0.0000       0.319138         8.6842 
 104   0.0000       0.329711         8.9719 
 105   0.0000       0.335278         9.1234 
 106   0.0000       0.342949         9.3321 
 107   0.0000       0.358329         9.7506 
 108   0.0000       0.360231         9.8024 
 109   0.0000       0.368388        10.0243 
 110   0.0000       0.370179        10.0731 
 111   0.0000       0.374460        10.1896 
 112   0.0000       0.381783        10.3888 
 113   0.0000       0.386030        10.5044 
 114   0.0000       0.394428        10.7329 
 115   0.0000       0.406001        11.0478 
 116   0.0000       0.407854        11.0983 
 117   0.0000       0.420552        11.4438 
 118   0.0000       0.429204        11.6792 
 119   0.0000       0.438069        11.9205 
 120   0.0000       0.444785        12.1032 
 121   0.0000       0.451713        12.2917 
 122   0.0000       0.455511        12.3951 
 123   0.0000       0.459200        12.4955 
 124   0.0000       0.462077        12.5737 
 125   0.0000       0.467846        12.7307 
 126   0.0000       0.473183        12.8760 
 127   0.0000       0.483527        13.1574 
 128   0.0000       0.490177        13.3384 
 129   0.0000       0.498399        13.5621 
 130   0.0000       0.501430        13.6446 
 131   0.0000       0.507325        13.8050 
 132   0.0000       0.515007        14.0141 
 133   0.0000       0.522481        14.2174 
 134   0.0000       0.523974        14.2581 
 135   0.0000       0.533208        14.5093 
 136   0.0000       0.538603        14.6561 
 137   0.0000       0.543981        14.8025 
 138   0.0000       0.548257        14.9188 
 139   0.0000       0.555058        15.1039 
 140   0.0000       0.558118        15.1872 
 141   0.0000       0.565202        15.3799 
 142   0.0000       0.572095        15.5675 
 143   0.0000       0.574558        15.6345 
 144   0.0000       0.576557        15.6889 
 145   0.0000       0.581468        15.8226 
 146   0.0000       0.586689        15.9646 
 147   0.0000       0.589671        16.0458 
 148   0.0000       0.592137        16.1129 
 149   0.0000       0.598260        16.2795 
 150   0.0000       0.603235        16.4148 
 151   0.0000       0.605342        16.4722 
 152   0.0000       0.610017        16.5994 
 153   0.0000       0.613291        16.6885 
 154   0.0000       0.619982        16.8706 
 155   0.0000       0.625858        17.0305 
 156   0.0000       0.626647        17.0519 
 157   0.0000       0.632437        17.2095 
 158   0.0000       0.634765        17.2728 
 159   0.0000       0.642585        17.4856 
 160   0.0000       0.648859        17.6564 
 161   0.0000       0.652600        17.7581 
 162   0.0000       0.656033        17.8516 
 163   0.0000       0.661117        17.9899 
 164   0.0000       0.661853        18.0099 
 165   0.0000       0.672882        18.3100 
 166   0.0000       0.679755        18.4971 
 167   0.0000       0.683721        18.6050 
 168   0.0000       0.688104        18.7243 
 169   0.0000       0.693538        18.8721 
 170   0.0000       0.702086        19.1047 
 171   0.0000       0.706022        19.2118 
 172   0.0000       0.712762        19.3952 
 173   0.0000       0.722187        19.6517 
 174   0.0000       0.723592        19.6900 
 175   0.0000       0.731686        19.9102 
 176   0.0000       0.735351        20.0099 
 177   0.0000       0.740189        20.1416 
 178   0.0000       0.748911        20.3789 
 179   0.0000       0.758286        20.6340 
 180   0.0000       0.765252        20.8236 
 181   0.0000       0.771158        20.9843 
 182   0.0000       0.781244        21.2587 
 183   0.0000       0.798393        21.7254 
 184   0.0000       0.804265        21.8852 
 185   0.0000       0.804965        21.9042 
 186   0.0000       0.809789        22.0355 
 187   0.0000       0.818216        22.2648 
 188   0.0000       0.828305        22.5393 
 189   0.0000       0.841367        22.8948 
 190   0.0000       0.848152        23.0794 
 191   0.0000       0.851038        23.1579 
 192   0.0000       0.863176        23.4882 
 193   0.0000       0.869174        23.6514 
 194   0.0000       0.872566        23.7437 
 195   0.0000       0.882546        24.0153 
 196   0.0000       0.886713        24.1287 
 197   0.0000       0.890610        24.2347 
 198   0.0000       0.898245        24.4425 
 199   0.0000       0.911089        24.7920 
 200   0.0000       0.916251        24.9324 
 201   0.0000       0.922562        25.1042 
 202   0.0000       0.925965        25.1968 
 203   0.0000       0.932833        25.3837 
 204   0.0000       0.943453        25.6727 
 205   0.0000       0.947882        25.7932 
 206   0.0000       0.953116        25.9356 
 207   0.0000       0.960830        26.1455 
 208   0.0000       0.965420        26.2704 
 209   0.0000       0.971931        26.4476 
 210   0.0000       0.987477        26.8706 
 211   0.0000       0.991865        26.9900 
 212   0.0000       0.998697        27.1759 
 213   0.0000       1.005894        27.3718 
 214   0.0000       1.010062        27.4852 
 215   0.0000       1.015901        27.6441 
 216   0.0000       1.020360        27.7654 
 217   0.0000       1.029725        28.0202 
 218   0.0000       1.034913        28.1614 
 219   0.0000       1.039967        28.2989 
 220   0.0000       1.051202        28.6047 
 221   0.0000       1.052719        28.6459 
 222   0.0000       1.072574        29.1862 
 223   0.0000       1.080262        29.3954 
 224   0.0000       1.086939        29.5771 
 225   0.0000       1.088094        29.6086 
 226   0.0000       1.096558        29.8389 
 227   0.0000       1.101247        29.9665 
 228   0.0000       1.112533        30.2736 
 229   0.0000       1.119862        30.4730 
 230   0.0000       1.122252        30.5380 
 231   0.0000       1.133929        30.8558 
 232   0.0000       1.136136        30.9158 
 233   0.0000       1.145714        31.1765 
 234   0.0000       1.156530        31.4708 
 235   0.0000       1.163991        31.6738 
 236   0.0000       1.174905        31.9708 
 237   0.0000       1.181001        32.1367 
 238   0.0000       1.184156        32.2225 
 239   0.0000       1.187094        32.3025 
 240   0.0000       1.200881        32.6776 
 241   0.0000       1.205909        32.8145 
 242   0.0000       1.215732        33.0818 
 243   0.0000       1.220684        33.2165 
 244   0.0000       1.227004        33.3885 
 245   0.0000       1.232770        33.5454 
 246   0.0000       1.240686        33.7608 
 247   0.0000       1.247878        33.9565 
 248   0.0000       1.255213        34.1561 
 249   0.0000       1.262845        34.3638 
 250   0.0000       1.266790        34.4711 
 251   0.0000       1.271989        34.6126 
 252   0.0000       1.275795        34.7162 
 253   0.0000       1.280957        34.8566 
 254   0.0000       1.291289        35.1378 
 255   0.0000       1.295974        35.2652 
 256   0.0000       1.312239        35.7078 
 257   0.0000       1.320705        35.9382 
 258   0.0000       1.329215        36.1698 
 259   0.0000       1.335520        36.3414 
 260   0.0000       1.340581        36.4791 
 261   0.0000       1.351966        36.7889 
 262   0.0000       1.354076        36.8463 
 263   0.0000       1.371421        37.3183 
 264   0.0000       1.374688        37.4072 
 265   0.0000       1.377364        37.4800 
 266   0.0000       1.391764        37.8718 
 267   0.0000       1.396858        38.0104 
 268   0.0000       1.408140        38.3174 
 269   0.0000       1.411224        38.4014 
 270   0.0000       1.426664        38.8215 
 271   0.0000       1.434403        39.0321 
 272   0.0000       1.445484        39.3336 
 273   0.0000       1.448811        39.4242 
 274   0.0000       1.454553        39.5804 
 275   0.0000       1.461973        39.7823 
 276   0.0000       1.467356        39.9288 
 277   0.0000       1.471522        40.0422 
 278   0.0000       1.477608        40.2077 
 279   0.0000       1.486793        40.4577 
 280   0.0000       1.492737        40.6194 
 281   0.0000       1.497473        40.7483 
 282   0.0000       1.509485        41.0752 
 283   0.0000       1.518345        41.3163 
 284   0.0000       1.519677        41.3525 
 285   0.0000       1.529283        41.6139 
 286   0.0000       1.536026        41.7974 
 287   0.0000       1.543944        42.0129 
 288   0.0000       1.547097        42.0987 
 289   0.0000       1.557806        42.3900 
 290   0.0000       1.570735        42.7419 
 291   0.0000       1.571624        42.7661 
 292   0.0000       1.575837        42.8807 
 293   0.0000       1.580817        43.0162 
 294   0.0000       1.586371        43.1673 
 295   0.0000       1.595387        43.4127 
 296   0.0000       1.599896        43.5354 
 297   0.0000       1.611470        43.8503 
 298   0.0000       1.619497        44.0687 
 299   0.0000       1.627019        44.2734 
 300   0.0000       1.639779        44.6207 
 301   0.0000       1.642359        44.6909 
 302   0.0000       1.659407        45.1548 
 303   0.0000       1.664630        45.2969 
 304   0.0000       1.668343        45.3979 
 305   0.0000       1.679755        45.7084 
 306   0.0000       1.682172        45.7742 
 307   0.0000       1.692095        46.0443 
 308   0.0000       1.701766        46.3074 
 309   0.0000       1.709075        46.5063 
 310   0.0000       1.721677        46.8492 
 311   0.0000       1.727392        47.0047 
 312   0.0000       1.739546        47.3355 
 313   0.0000       1.749655        47.6105 
 314   0.0000       1.753053        47.7030 
 315   0.0000       1.768683        48.1283 
 316   0.0000       1.773803        48.2676 
 317   0.0000       1.787823        48.6491 
 318   0.0000       1.792834        48.7855 
 319   0.0000       1.803633        49.0793 
 320   0.0000       1.811793        49.3014 
 321   0.0000       1.818073        49.4723 
 322   0.0000       1.819309        49.5059 
 323   0.0000       1.827561        49.7305 
 324   0.0000       1.843441        50.1626 
 325   0.0000       1.849480        50.3269 
 326   0.0000       1.874490        51.0075 
 327   0.0000       1.887798        51.3696 
 328   0.0000       1.908422        51.9308 
 329   0.0000       1.919555        52.2338 
 330   0.0000       1.928883        52.4876 
 331   0.0000       1.938489        52.7490 
 332   0.0000       1.941170        52.8219 
 333   0.0000       1.950339        53.0714 
 334   0.0000       1.958527        53.2942 
 335   0.0000       1.975656        53.7603 
 336   0.0000       1.999195        54.4009 
 337   0.0000       2.007823        54.6356 
 338   0.0000       2.015673        54.8492 
 339   0.0000       2.020799        54.9887 
 340   0.0000       2.029948        55.2377 
 341   0.0000       2.038910        55.4816 
 342   0.0000       2.052969        55.8641 
 343   0.0000       2.076255        56.4978 
 344   0.0000       2.089969        56.8710 
 345   0.0000       2.105215        57.2858 
 346   0.0000       2.121672        57.7336 
 347   0.0000       2.131954        58.0134 
 348   0.0000       2.144065        58.3430 
 349   0.0000       2.157723        58.7146 
 350   0.0000       2.173085        59.1327 
 351   0.0000       2.180024        59.3215 
 352   0.0000       2.196667        59.7743 
 353   0.0000       2.202793        59.9410 
 354   0.0000       2.216490        60.3138 
 355   0.0000       2.230674        60.6997 
 356   0.0000       2.259617        61.4873 
 357   0.0000       2.275802        61.9277 
 358   0.0000       2.288536        62.2742 
 359   0.0000       2.292396        62.3793 
 360   0.0000       2.301117        62.6166 
 361   0.0000       2.321256        63.1646 
 362   0.0000       2.337086        63.5953 
 363   0.0000       2.349020        63.9201 
 364   0.0000       2.355329        64.0918 
 365   0.0000       2.376362        64.6641 
 366   0.0000       2.386676        64.9447 
 367   0.0000       2.398996        65.2800 
 368   0.0000       2.410012        65.5798 
 369   0.0000       2.426502        66.0285 
 370   0.0000       2.438732        66.3613 
 371   0.0000       2.444230        66.5109 
 372   0.0000       2.458100        66.8883 
 373   0.0000       2.479257        67.4640 
 374   0.0000       2.488453        67.7142 
 375   0.0000       2.501658        68.0736 
 376   0.0000       2.521683        68.6185 
 377   0.0000       2.529006        68.8177 
 378   0.0000       2.539352        69.0993 
 379   0.0000       2.542378        69.1816 
 380   0.0000       2.571586        69.9764 
 381   0.0000       2.583395        70.2978 
 382   0.0000       2.592061        70.5336 
 383   0.0000       2.612284        71.0839 
 384   0.0000       2.620368        71.3038 
 385   0.0000       2.627350        71.4938 
 386   0.0000       2.638811        71.8057 
 387   0.0000       2.660971        72.4087 
 388   0.0000       2.665495        72.5318 
 389   0.0000       2.672493        72.7222 
 390   0.0000       2.676374        72.8278 
 391   0.0000       2.686880        73.1137 
 392   0.0000       2.700930        73.4960 
 393   0.0000       2.714391        73.8623 
 394   0.0000       2.725849        74.1741 
 395   0.0000       2.733535        74.3833 
 396   0.0000       2.746110        74.7255 
 397   0.0000       2.753970        74.9393 
 398   0.0000       2.772476        75.4429 
 399   0.0000       2.777571        75.5816 
 400   0.0000       2.779427        75.6320 
 401   0.0000       2.790462        75.9323 
 402   0.0000       2.794046        76.0299 
 403   0.0000       2.808946        76.4353 
 404   0.0000       2.818721        76.7013 
 405   0.0000       2.824892        76.8692 
 406   0.0000       2.838359        77.2357 
 407   0.0000       2.846571        77.4591 
 408   0.0000       2.853258        77.6411 
 409   0.0000       2.856509        77.7296 
 410   0.0000       2.871387        78.1344 
 411   0.0000       2.874825        78.2280 
 412   0.0000       2.887178        78.5641 
 413   0.0000       2.903642        79.0121 
 414   0.0000       2.909084        79.1602 
 415   0.0000       2.911479        79.2254 
 416   0.0000       2.925217        79.5992 
 417   0.0000       2.932760        79.8045 
 418   0.0000       2.943072        80.0851 
 419   0.0000       2.947628        80.2090 
 420   0.0000       2.957891        80.4883 
 421   0.0000       2.973508        80.9133 
 422   0.0000       2.978294        81.0435 
 423   0.0000       2.984488        81.2120 
 424   0.0000       2.985873        81.2497 
 425   0.0000       3.010732        81.9262 
 426   0.0000       3.020045        82.1796 
 427   0.0000       3.026285        82.3494 
 428   0.0000       3.035201        82.5920 
 429   0.0000       3.039668        82.7136 
 430   0.0000       3.043957        82.8303 
 431   0.0000       3.059495        83.2531 
 432   0.0000       3.061304        83.3023 
 433   0.0000       3.067291        83.4652 
 434   0.0000       3.072069        83.5953 
 435   0.0000       3.079578        83.7996 
 436   0.0000       3.087548        84.0165 
 437   0.0000       3.095254        84.2261 
 438   0.0000       3.103247        84.4436 
 439   0.0000       3.106113        84.5216 
 440   0.0000       3.114483        84.7494 
 441   0.0000       3.125140        85.0394 
 442   0.0000       3.128870        85.1409 
 443   0.0000       3.136337        85.3441 
 444   0.0000       3.139182        85.4215 
 445   0.0000       3.147583        85.6501 
 446   0.0000       3.157970        85.9327 
 447   0.0000       3.170564        86.2754 
 448   0.0000       3.176824        86.4458 
 449   0.0000       3.181904        86.5840 
 450   0.0000       3.194163        86.9176 
 451   0.0000       3.208628        87.3112 
 452   0.0000       3.217281        87.5467 
 453   0.0000       3.218512        87.5802 
 454   0.0000       3.227153        87.8153 
 455   0.0000       3.236883        88.0801 
 456   0.0000       3.240652        88.1826 
 457   0.0000       3.247021        88.3559 
 458   0.0000       3.250203        88.4425 
 459   0.0000       3.258275        88.6622 
 460   0.0000       3.262468        88.7763 
 461   0.0000       3.272471        89.0485 
 462   0.0000       3.280083        89.2556 
 463   0.0000       3.285359        89.3992 
 464   0.0000       3.291903        89.5772 
 465   0.0000       3.304060        89.9080 
 466   0.0000       3.312227        90.1303 
 467   0.0000       3.317739        90.2803 
 468   0.0000       3.322416        90.4075 
 469   0.0000       3.325547        90.4927 
 470   0.0000       3.333620        90.7124 
 471   0.0000       3.335231        90.7563 
 472   0.0000       3.344816        91.0171 
 473   0.0000       3.354710        91.2863 
 474   0.0000       3.364378        91.5494 
 475   0.0000       3.373593        91.8001 
 476   0.0000       3.381206        92.0073 
 477   0.0000       3.382763        92.0497 
 478   0.0000       3.390825        92.2690 
 479   0.0000       3.395878        92.4065 
 480   0.0000       3.399934        92.5169 
 481   0.0000       3.409045        92.7648 
 482   0.0000       3.409940        92.7892 
 483   0.0000       3.414064        92.9014 
 484   0.0000       3.417059        92.9829 
 485   0.0000       3.418228        93.0147 
 486   0.0000       3.426029        93.2270 
 487   0.0000       3.430157        93.3393 
 488   0.0000       3.433900        93.4412 
 489   0.0000       3.440133        93.6108 
 490   0.0000       3.444698        93.7350 
 491   0.0000       3.453265        93.9681 
 492   0.0000       3.459985        94.1510 
 493   0.0000       3.469449        94.4085 
 494   0.0000       3.470691        94.4423 
 495   0.0000       3.476507        94.6006 
 496   0.0000       3.492371        95.0322 
 497   0.0000       3.495257        95.1108 
 498   0.0000       3.503367        95.3315 
 499   0.0000       3.507328        95.4392 
 500   0.0000       3.525148        95.9241 
 501   0.0000       3.529078        96.0311 
 502   0.0000       3.534851        96.1882 
 503   0.0000       3.542899        96.4072 
 504   0.0000       3.545497        96.4779 
 505   0.0000       3.548606        96.5625 
 506   0.0000       3.560697        96.8915 
 507   0.0000       3.572126        97.2025 
 508   0.0000       3.575038        97.2817 
 509   0.0000       3.586238        97.5865 
 510   0.0000       3.589615        97.6784 
 511   0.0000       3.600080        97.9631 
 512   0.0000       3.602124        98.0188 
 513   0.0000       3.604459        98.0823 
 514   0.0000       3.622262        98.5668 
 515   0.0000       3.629000        98.7501 
 516   0.0000       3.633111        98.8620 
 517   0.0000       3.643600        99.1474 
 518   0.0000       3.648343        99.2765 
 519   0.0000       3.653698        99.4222 
 520   0.0000       3.657798        99.5338 
 521   0.0000       3.659633        99.5837 
 522   0.0000       3.665190        99.7349 
 523   0.0000       3.676194       100.0343 
 524   0.0000       3.683723       100.2392 
 525   0.0000       3.686375       100.3114 
 526   0.0000       3.691489       100.4505 
 527   0.0000       3.694401       100.5298 
 528   0.0000       3.696673       100.5916 
 529   0.0000       3.704385       100.8015 
 530   0.0000       3.718610       101.1885 
 531   0.0000       3.721470       101.2663 
 532   0.0000       3.728515       101.4580 
 533   0.0000       3.739188       101.7485 
 534   0.0000       3.743273       101.8596 
 535   0.0000       3.749200       102.0209 
 536   0.0000       3.760929       102.3401 
 537   0.0000       3.767288       102.5131 
 538   0.0000       3.774850       102.7189 
 539   0.0000       3.782217       102.9194 
 540   0.0000       3.784418       102.9793 
 541   0.0000       3.789954       103.1299 
 542   0.0000       3.800187       103.4083 
 543   0.0000       3.804275       103.5196 
 544   0.0000       3.809412       103.6594 
 545   0.0000       3.816622       103.8556 
 546   0.0000       3.828527       104.1795 
 547   0.0000       3.840532       104.5062 
 548   0.0000       3.844272       104.6080 
 549   0.0000       3.846843       104.6779 
 550   0.0000       3.849829       104.7592 
 551   0.0000       3.855674       104.9182 
 552   0.0000       3.861291       105.0711 
 553   0.0000       3.878229       105.5320 
 554   0.0000       3.890788       105.8737 
 555   0.0000       3.899035       106.0981 
 556   0.0000       3.903812       106.2281 
 557   0.0000       3.908551       106.3571 
 558   0.0000       3.918252       106.6211 
 559   0.0000       3.932550       107.0101 
 560   0.0000       3.938708       107.1777 
 561   0.0000       3.946769       107.3970 
 562   0.0000       3.972903       108.1082 
 563   0.0000       3.978787       108.2683 
 564   0.0000       3.986339       108.4738 
 565   0.0000       3.992583       108.6437 
 566   0.0000       3.998819       108.8134 
 567   0.0000       4.004171       108.9590 
 568   0.0000       4.016065       109.2827 
 569   0.0000       4.024851       109.5218 
 570   0.0000       4.027657       109.5981 
 571   0.0000       4.039446       109.9189 
 572   0.0000       4.046276       110.1048 
 573   0.0000       4.055921       110.3672 
 574   0.0000       4.073486       110.8452 
 575   0.0000       4.081320       111.0584 
 576   0.0000       4.090324       111.3034 
 577   0.0000       4.100249       111.5735 
 578   0.0000       4.102382       111.6315 
 579   0.0000       4.114740       111.9678 
 580   0.0000       4.115801       111.9966 
 581   0.0000       4.123762       112.2133 
 582   0.0000       4.129420       112.3672 
 583   0.0000       4.136678       112.5647 
 584   0.0000       4.139698       112.6469 
 585   0.0000       4.149643       112.9175 
 586   0.0000       4.154486       113.0493 
 587   0.0000       4.159371       113.1822 
 588   0.0000       4.173494       113.5665 
 589   0.0000       4.181580       113.7866 
 590   0.0000       4.182026       113.7987 
 591   0.0000       4.184269       113.8597 
 592   0.0000       4.185068       113.8815 
 593   0.0000       4.190524       114.0300 
 594   0.0000       4.193857       114.1207 
 595   0.0000       4.205500       114.4375 
 596   0.0000       4.215467       114.7087 
 597   0.0000       4.218967       114.8039 
 598   0.0000       4.232004       115.1587 
 599   0.0000       4.235263       115.2474 
 600   0.0000       4.249960       115.6473 
 601   0.0000       4.257839       115.8617 
 602   0.0000       4.266860       116.1072 
 603   0.0000       4.272449       116.2592 
 604   0.0000       4.287711       116.6746 
 605   0.0000       4.289798       116.7313 
 606   0.0000       4.299863       117.0052 
 607   0.0000       4.315520       117.4313 
 608   0.0000       4.319710       117.5453 
 609   0.0000       4.335461       117.9739 
 610   0.0000       4.344792       118.2278 
 611   0.0000       4.350547       118.3844 
 612   0.0000       4.355267       118.5128 
 613   0.0000       4.359539       118.6291 
 614   0.0000       4.368654       118.8771 
 615   0.0000       4.374625       119.0396 
 616   0.0000       4.388728       119.4233 
 617   0.0000       4.390498       119.4715 
 618   0.0000       4.394869       119.5905 
 619   0.0000       4.401794       119.7789 
 620   0.0000       4.410164       120.0067 
 621   0.0000       4.418648       120.2375 
 622   0.0000       4.428637       120.5093 
 623   0.0000       4.442493       120.8864 
 624   0.0000       4.451040       121.1190 
 625   0.0000       4.456572       121.2695 
 626   0.0000       4.461008       121.3902 
 627   0.0000       4.465233       121.5052 
 628   0.0000       4.475391       121.7816 
 629   0.0000       4.486949       122.0961 
 630   0.0000       4.493378       122.2710 
 631   0.0000       4.501686       122.4971 
 632   0.0000       4.511247       122.7573 
 633   0.0000       4.525019       123.1320 
 634   0.0000       4.530294       123.2756 
 635   0.0000       4.535064       123.4054 
 636   0.0000       4.546117       123.7061 
 637   0.0000       4.551572       123.8546 
 638   0.0000       4.568716       124.3211 
 639   0.0000       4.571823       124.4056 
 640   0.0000       4.577379       124.5568 
 641   0.0000       4.585410       124.7753 
 642   0.0000       4.603238       125.2605 
 643   0.0000       4.607205       125.3684 
 644   0.0000       4.616363       125.6176 
 645   0.0000       4.618872       125.6859 
 646   0.0000       4.623750       125.8186 
 647   0.0000       4.640344       126.2702 
 648   0.0000       4.644011       126.3700 
 649   0.0000       4.648510       126.4924 
 650   0.0000       4.653310       126.6230 
 651   0.0000       4.664915       126.9388 
 652   0.0000       4.677500       127.2812 
 653   0.0000       4.685262       127.4925 
 654   0.0000       4.692274       127.6833 
 655   0.0000       4.709175       128.1432 
 656   0.0000       4.716074       128.3309 
 657   0.0000       4.717985       128.3829 
 658   0.0000       4.732528       128.7786 
 659   0.0000       4.732894       128.7886 
 660   0.0000       4.752660       129.3264 
 661   0.0000       4.764233       129.6414 
 662   0.0000       4.771748       129.8459 
 663   0.0000       4.789008       130.3155 
 664   0.0000       4.803324       130.7051 
 665   0.0000       4.809754       130.8801 
 666   0.0000       4.838362       131.6585 
 667   0.0000       4.846601       131.8827 
 668   0.0000       4.868891       132.4893 
 669   0.0000       4.886801       132.9766 
 670   0.0000       4.909275       133.5882 
 671   0.0000       4.914131       133.7203 
 672   0.0000       4.923421       133.9731 
 673   0.0000       4.944817       134.5553 
 674   0.0000       4.983080       135.5965 
 675   0.0000       4.989753       135.7781 
 676   0.0000       5.002061       136.1130 
 677   0.0000       5.012794       136.4051 
 678   0.0000       5.025851       136.7604 
 679   0.0000       5.042109       137.2028 
 680   0.0000       5.051931       137.4700 
 681   0.0000       5.056442       137.5928 
 682   0.0000       5.058956       137.6612 
 683   0.0000       5.087365       138.4342 
 684   0.0000       5.102518       138.8466 
 685   0.0000       5.122472       139.3895 
 686   0.0000       5.128355       139.5496 
 687   0.0000       5.138390       139.8227 
 688   0.0000       5.150622       140.1556 
 689   0.0000       5.162065       140.4669 
 690   0.0000       5.172680       140.7558 
 691   0.0000       5.179426       140.9393 
 692   0.0000       5.183252       141.0435 
 693   0.0000       5.185606       141.1075 
 694   0.0000       5.193999       141.3359 
 695   0.0000       5.209321       141.7528 
 696   0.0000       5.225613       142.1962 
 697   0.0000       5.233471       142.4100 
 698   0.0000       5.236615       142.4955 
 699   0.0000       5.245936       142.7492 
 700   0.0000       5.273665       143.5037 
 701   0.0000       5.279518       143.6630 
 702   0.0000       5.285246       143.8189 
 703   0.0000       5.310967       144.5188 
 704   0.0000       5.325994       144.9277 
 705   0.0000       5.341302       145.3442 
 706   0.0000       5.348881       145.5504 
 707   0.0000       5.357285       145.7791 
 708   0.0000       5.360217       145.8589 
 709   0.0000       5.375693       146.2801 
 710   0.0000       5.387355       146.5974 
 711   0.0000       5.412722       147.2877 
 712   0.0000       5.438093       147.9780 
 713   0.0000       5.450702       148.3211 
 714   0.0000       5.457404       148.5035 
 715   0.0000       5.485148       149.2585 
 716   0.0000       5.491041       149.4188 
 717   0.0000       5.502207       149.7227 
 718   0.0000       5.509987       149.9344 
 719   0.0000       5.522805       150.2832 
 720   0.0000       5.527284       150.4050 
 721   0.0000       5.544526       150.8742 
 722   0.0000       5.559685       151.2867 
 723   0.0000       5.576819       151.7530 
 724   0.0000       5.587371       152.0401 
 725   0.0000       5.594609       152.2370 
 726   0.0000       5.600136       152.3874 
 727   0.0000       5.611559       152.6983 
 728   0.0000       5.618167       152.8781 
 729   0.0000       5.629428       153.1845 
 730   0.0000       5.659909       154.0139 
 731   0.0000       5.665234       154.1589 
 732   0.0000       5.674594       154.4136 
 733   0.0000       5.676363       154.4617 
 734   0.0000       5.678718       154.5258 
 735   0.0000       5.699064       155.0794 
 736   0.0000       5.703449       155.1987 
 737   0.0000       5.725627       155.8022 
 738   0.0000       5.727517       155.8537 
 739   0.0000       5.753801       156.5689 
 740   0.0000       5.763083       156.8215 
 741   0.0000       5.773303       157.0996 
 742   0.0000       5.780743       157.3020 
 743   0.0000       5.809643       158.0884 
 744   0.0000       5.830998       158.6695 
 745   0.0000       5.840797       158.9362 
 746   0.0000       5.872868       159.8089 
 747   0.0000       5.884706       160.1310 
 748   0.0000       5.890595       160.2913 
 749   0.0000       5.933391       161.4558 
 750   0.0000       5.950592       161.9238 
 751   0.0000       5.956132       162.0746 
 752   0.0000       5.979963       162.7231 
 753   0.0000       5.986065       162.8891 
 754   0.0000       6.024777       163.9425 
 755   0.0000       6.046961       164.5462 
 756   0.0000       6.055270       164.7723 
 757   0.0000       6.081939       165.4980 
 758   0.0000       6.096019       165.8811 
 759   0.0000       6.111884       166.3128 
 760   0.0000       6.166952       167.8113 
 761   0.0000       6.179094       168.1417 
 762   0.0000       6.205046       168.8479 
 763   0.0000       6.213313       169.0728 
 764   0.0000       6.232800       169.6031 
 765   0.0000       6.265216       170.4852 
 766   0.0000       6.277744       170.8261 
 767   0.0000       6.294049       171.2698 
 768   0.0000       6.334586       172.3728 
 769   0.0000       6.345238       172.6627 
 770   0.0000       6.353768       172.8948 
 771   0.0000       6.370401       173.3474 
 772   0.0000       6.399903       174.1502 
 773   0.0000       6.448855       175.4823 
 774   0.0000       6.456232       175.6830 
 775   0.0000       6.473292       176.1472 
 776   0.0000       6.502947       176.9542 
 777   0.0000       6.524426       177.5387 
 778   0.0000       6.534208       177.8048 
 779   0.0000       6.560784       178.5280 
 780   0.0000       6.641756       180.7314 
 781   0.0000       6.685900       181.9326 
 782   0.0000       6.693164       182.1303 
 783   0.0000       6.711897       182.6400 
 784   0.0000       6.768615       184.1834 
 785   0.0000       6.880081       187.2165 
 786   0.0000       6.910331       188.0397 
 787   0.0000       6.915459       188.1792 
 788   0.0000       6.923835       188.4071 
 789   0.0000       7.018582       190.9853 
 790   0.0000       7.028727       191.2614 
 791   0.0000       7.046209       191.7371 
 792   0.0000       7.085310       192.8011 
 793   0.0000       7.120120       193.7483 
 794   0.0000       7.219536       196.4536 
 795   0.0000       7.254566       197.4068 
 796   0.0000       7.268360       197.7821 
 797   0.0000       7.285089       198.2373 
 798   0.0000       7.342915       199.8109 
 799   0.0000       7.355821       200.1621 
 800   0.0000       7.462596       203.0676 
 801   0.0000       7.475653       203.4229 
 802   0.0000       7.581165       206.2940 
 803   0.0000       7.600445       206.8186 
 804   0.0000       7.677513       208.9157 
 805   0.0000       7.820208       212.7987 
 806   0.0000       7.840351       213.3468 
 807   0.0000       7.936580       215.9653 
 808   0.0000       7.983800       217.2502 
 809   0.0000       9.403626       255.8857 
 810   0.0000       9.674871       263.2666 
 811   0.0000      10.663363       290.1648 
 812   0.0000      11.262784       306.4759 
 813   0.0000      11.927432       324.5619 
 814   0.0000      12.539646       341.2211 
 815   0.0000      12.911772       351.3472 
 816   0.0000      12.978331       353.1583 
 817   0.0000      13.037272       354.7622 
 818   0.0000      13.133077       357.3692 
 819   0.0000      13.370337       363.8254 
 820   0.0000      13.437079       365.6415 
 821   0.0000      13.757890       374.3712 
 822   0.0000      13.893491       378.0611 
 823   0.0000      13.939522       379.3137 
 824   0.0000      14.128505       384.4562 
 825   0.0000      14.353098       390.5676 
 826   0.0000      14.674610       399.3164 
 827   0.0000      15.958819       434.2615 

                    ********************************
                    * MULLIKEN POPULATION ANALYSIS *
                    ********************************

-----------------------
MULLIKEN ATOMIC CHARGES
-----------------------
   0 C :   -0.298507
   1 C :    0.031863
   2 O :   -0.346195
   3 C :    0.525759
   4 O :   -0.444256
   5 C :   -0.219113
   6 C :    0.117443
   7 C :   -0.274764
   8 N :   -0.127853
   9 C :    0.197756
  10 S :   -0.428905
  11 N :   -0.232567
  12 C :    0.101299
  13 C :    0.009180
  14 C :   -0.198707
  15 C :   -0.135337
  16 C :   -0.282062
  17 C :    0.318160
  18 O :   -0.360415
  19 C :   -0.256092
  20 H :    0.119663
  21 H :    0.098342
  22 H :    0.092360
  23 H :    0.108402
  24 H :    0.108643
  25 H :    0.122816
  26 H :    0.133436
  27 H :    0.098648
  28 H :    0.196034
  29 H :    0.194670
  30 H :    0.170878
  31 H :    0.164480
  32 H :    0.161867
  33 H :    0.127568
  34 H :    0.240875
  35 H :    0.164630
Sum of atomic charges:   -0.0000000

--------------------------------
MULLIKEN REDUCED ORBITAL CHARGES
--------------------------------
  0 C s       :     3.265931  s :     3.265931
      pz      :     1.014144  p :     2.956470
      px      :     0.950688
      py      :     0.991639
      dz2     :     0.005497  d :     0.071657
      dxz     :     0.017201
      dyz     :     0.020754
      dx2y2   :     0.010562
      dxy     :     0.017643
      f0      :     0.000429  f :     0.004448
      f+1     :     0.000249
      f-1     :     0.000376
      f+2     :     0.000298
      f-2     :     0.001880
      f+3     :     0.000466
      f-3     :     0.000750
  1 C s       :     3.165677  s :     3.165677
      pz      :     0.812240  p :     2.641903
      px      :     0.921762
      py      :     0.907901
      dz2     :     0.026756  d :     0.149150
      dxz     :     0.032000
      dyz     :     0.038389
      dx2y2   :     0.019366
      dxy     :     0.032639
      f0      :     0.001811  f :     0.011407
      f+1     :     0.001450
      f-1     :     0.001783
      f+2     :     0.001543
      f-2     :     0.002873
      f+3     :     0.000818
      f-3     :     0.001128
  2 O s       :     3.715743  s :     3.715743
      pz      :     1.378999  p :     4.594302
      px      :     1.582616
      py      :     1.632688
      dz2     :     0.005066  d :     0.033899
      dxz     :     0.005577
      dyz     :     0.012074
      dx2y2   :     0.004131
      dxy     :     0.007052
      f0      :     0.000277  f :     0.002251
      f+1     :     0.000539
      f-1     :     0.000307
      f+2     :     0.000293
      f-2     :     0.000591
      f+3     :     0.000115
      f-3     :     0.000128
  3 C s       :     3.003356  s :     3.003356
      pz      :     0.727558  p :     2.141565
      px      :     0.658150
      py      :     0.755857
      dz2     :     0.044104  d :     0.302951
      dxz     :     0.031705
      dyz     :     0.095417
      dx2y2   :     0.055897
      dxy     :     0.075828
      f0      :     0.003540  f :     0.026370
      f+1     :     0.002629
      f-1     :     0.003743
      f+2     :     0.005118
      f-2     :     0.003216
      f+3     :     0.004058
      f-3     :     0.004067
  4 O s       :     3.775152  s :     3.775152
      pz      :     1.718027  p :     4.631452
      px      :     1.557422
      py      :     1.356002
      dz2     :     0.004431  d :     0.035256
      dxz     :     0.001076
      dyz     :     0.007651
      dx2y2   :     0.011458
      dxy     :     0.010640
      f0      :     0.000245  f :     0.002396
      f+1     :     0.000079
      f-1     :     0.000440
      f+2     :     0.000255
      f-2     :     0.000132
      f+3     :     0.000629
      f-3     :     0.000614
  5 C s       :     3.188126  s :     3.188126
      pz      :     0.966836  p :     2.938398
      px      :     1.034507
      py      :     0.937055
      dz2     :     0.014266  d :     0.081457
      dxz     :     0.011036
      dyz     :     0.023567
      dx2y2   :     0.010065
      dxy     :     0.022521
      f0      :     0.000948  f :     0.011133
      f+1     :     0.001209
      f-1     :     0.001915
      f+2     :     0.001865
      f-2     :     0.002152
      f+3     :     0.001634
      f-3     :     0.001408
  6 C s       :     3.224946  s :     3.224946
      pz      :     0.749821  p :     2.471015
      px      :     0.870830
      py      :     0.850363
      dz2     :     0.032732  d :     0.172459
      dxz     :     0.022521
      dyz     :     0.035562
      dx2y2   :     0.029357
      dxy     :     0.052287
      f0      :     0.001369  f :     0.014137
      f+1     :     0.001828
      f-1     :     0.001888
      f+2     :     0.001753
      f-2     :     0.002566
      f+3     :     0.002423
      f-3     :     0.002310
  7 C s       :     3.271958  s :     3.271958
      pz      :     1.002354  p :     2.928206
      px      :     0.960058
      py      :     0.965794
      dz2     :     0.014115  d :     0.069913
      dxz     :     0.009929
      dyz     :     0.016838
      dx2y2   :     0.013356
      dxy     :     0.015674
      f0      :     0.000668  f :     0.004687
      f+1     :     0.000623
      f-1     :     0.000420
      f+2     :     0.000486
      f-2     :     0.001018
      f+3     :     0.000434
      f-3     :     0.001038
  8 N s       :     3.351363  s :     3.351363
      pz      :     1.494011  p :     3.712007
      px      :     1.075984
      py      :     1.142013
      dz2     :     0.007904  d :     0.059680
      dxz     :     0.011023
      dyz     :     0.005693
      dx2y2   :     0.020029
      dxy     :     0.015032
      f0      :     0.000618  f :     0.004803
      f+1     :     0.000801
      f-1     :     0.000509
      f+2     :     0.000695
      f-2     :     0.000659
      f+3     :     0.000749
      f-3     :     0.000772
  9 C s       :     3.173555  s :     3.173555
      pz      :     0.689991  p :     2.355995
      px      :     0.823909
      py      :     0.842095
      dz2     :     0.023029  d :     0.255391
      dxz     :     0.044066
      dyz     :     0.054448
      dx2y2   :     0.084180
      dxy     :     0.049668
      f0      :     0.002147  f :     0.017303
      f+1     :     0.001793
      f-1     :     0.001804
      f+2     :     0.002966
      f-2     :     0.001683
      f+3     :     0.003594
      f-3     :     0.003315
 10 S s       :     5.857116  s :     5.857116
      pz      :     3.523038  p :    10.477042
      px      :     3.426532
      py      :     3.527472
      dz2     :     0.010787  d :     0.084638
      dxz     :     0.016653
      dyz     :     0.013913
      dx2y2   :     0.006641
      dxy     :     0.036645
      f0      :     0.001020  f :     0.010109
      f+1     :     0.001007
      f-1     :     0.000839
      f+2     :     0.000386
      f-2     :     0.002691
      f+3     :     0.001717
      f-3     :     0.002449
 11 N s       :     3.397694  s :     3.397694
      pz      :     1.647307  p :     3.772877
      px      :     1.100918
      py      :     1.024652
      dz2     :     0.004152  d :     0.057542
      dxz     :     0.005210
      dyz     :     0.009687
      dx2y2   :     0.019630
      dxy     :     0.018862
      f0      :     0.000689  f :     0.004454
      f+1     :     0.000612
      f-1     :     0.000816
      f+2     :     0.000334
      f-2     :     0.000300
      f+3     :     0.000821
      f-3     :     0.000882
 12 C s       :     3.115629  s :     3.115629
      pz      :     0.873338  p :     2.601301
      px      :     0.772399
      py      :     0.955564
      dz2     :     0.032518  d :     0.170624
      dxz     :     0.036366
      dyz     :     0.034495
      dx2y2   :     0.030130
      dxy     :     0.037115
      f0      :     0.001779  f :     0.011147
      f+1     :     0.001896
      f-1     :     0.001196
      f+2     :     0.000872
      f-2     :     0.002257
      f+3     :     0.001489
      f-3     :     0.001659
 13 C s       :     3.132622  s :     3.132622
      pz      :     0.913434  p :     2.740215
      px      :     0.914294
      py      :     0.912487
      dz2     :     0.021788  d :     0.106986
      dxz     :     0.026925
      dyz     :     0.022129
      dx2y2   :     0.018772
      dxy     :     0.017373
      f0      :     0.002233  f :     0.010996
      f+1     :     0.002339
[...]
      f+2     :     0.006316
      f-2     :     0.006408
      f+3     :     0.000613
      f-3     :     0.002181
 15 C s       :     2.705527  s :     2.705527
      pz      :     0.984351  p :     2.792606
      px      :     0.967299
      py      :     0.840957
      dz2     :     0.096215  d :     0.418644
      dxz     :     0.134153
      dyz     :     0.059263
      dx2y2   :     0.063994
      dxy     :     0.065019
      f0      :     0.009470  f :     0.041229
      f+1     :     0.007268
      f-1     :     0.005023
      f+2     :     0.005054
      f-2     :     0.005550
      f+3     :     0.004899
      f-3     :     0.003965
 16 C s       :     2.701180  s :     2.701180
      pz      :     0.964065  p :     2.872619
      px      :     0.982084
      py      :     0.926470
      dz2     :     0.093713  d :     0.391276
      dxz     :     0.134527
      dyz     :     0.048062
      dx2y2   :     0.058539
      dxy     :     0.056434
      f0      :     0.008651  f :     0.040490
      f+1     :     0.007551
      f-1     :     0.004025
      f+2     :     0.005831
      f-2     :     0.006028
      f+3     :     0.004206
      f-3     :     0.004199
 17 C s       :     2.701543  s :     2.701543
      pz      :     1.050655  p :     2.682374
      px      :     0.822135
      py      :     0.809583
      dz2     :     0.156198  d :     0.709813
      dxz     :     0.183163
      dyz     :     0.108884
      dx2y2   :     0.132354
      dxy     :     0.129213
      f0      :     0.020254  f :     0.099421
      f+1     :     0.013953
      f-1     :     0.009110
      f+2     :     0.012348
      f-2     :     0.013023
      f+3     :     0.017954
      f-3     :     0.012779
 18 O s       :     3.177346  s :     3.177346
      pz      :     1.388648  p :     4.349817
      px      :     1.371082
      py      :     1.590088
      dz2     :     0.023425  d :     0.075496
      dxz     :     0.016919
      dyz     :     0.003354
      dx2y2   :     0.015668
      dxy     :     0.016130
      f0      :     0.001182  f :     0.005072
      f+1     :     0.001018
      f-1     :     0.000401
      f+2     :     0.000339
      f-2     :     0.000408
      f+3     :     0.000886
      f-3     :     0.000837
 19 C s       :     2.695164  s :     2.695164
      pz      :     0.969390  p :     2.851881
      px      :     0.971111
      py      :     0.911380
      dz2     :     0.091587  d :     0.388430
      dxz     :     0.132644
      dyz     :     0.055753
      dx2y2   :     0.053575
      dxy     :     0.054871
      f0      :     0.008763  f :     0.040592
      f+1     :     0.007880
      f-1     :     0.004684
      f+2     :     0.005129
      f-2     :     0.005779
      f+3     :     0.004258
      f-3     :     0.004099
 20 H s       :     0.843555  s :     0.843555
      pz      :     0.053081  p :     0.153370
      px      :     0.043015
      py      :     0.057275
      dz2     :     0.006382  d :     0.027529
      dxz     :     0.004226
      dyz     :     0.006732
      dx2y2   :     0.004906
      dxy     :     0.005283
 21 H s       :     0.846775  s :     0.846775
      pz      :     0.057380  p :     0.151700
      px      :     0.047077
      py      :     0.047242
      dz2     :     0.007195  d :     0.027461
      dxz     :     0.006338
      dyz     :     0.006544
      dx2y2   :     0.003411
      dxy     :     0.003973
 22 H s       :     0.851601  s :     0.851601
      pz      :     0.048478  p :     0.151381
      px      :     0.054107
      py      :     0.048796
      dz2     :     0.004929  d :     0.027583
      dxz     :     0.005560
      dyz     :     0.004753
      dx2y2   :     0.006415
      dxy     :     0.005927
 23 H s       :     0.852840  s :     0.852840
      pz      :     0.039746  p :     0.146998
      px      :     0.055263
      py      :     0.051989
      dz2     :     0.003808  d :     0.026978
      dxz     :     0.006155
      dyz     :     0.004529
      dx2y2   :     0.005895
      dxy     :     0.006591
 24 H s       :     0.854663  s :     0.854663
      pz      :     0.049997  p :     0.144153
      px      :     0.043485
      py      :     0.050671
      dz2     :     0.006013  d :     0.026877
      dxz     :     0.004710
      dyz     :     0.007244
      dx2y2   :     0.003394
      dxy     :     0.005517
 25 H s       :     0.833764  s :     0.833764
      pz      :     0.039506  p :     0.150326
      px      :     0.064562
      py      :     0.046258
      dz2     :     0.002300  d :     0.027733
      dxz     :     0.007142
      dyz     :     0.002537
      dx2y2   :     0.008417
      dxy     :     0.007337
 26 H s       :     0.827189  s :     0.827189
      pz      :     0.070445  p :     0.151731
      px      :     0.041301
      py      :     0.039985
      dz2     :     0.009231  d :     0.027712
      dxz     :     0.007416
      dyz     :     0.008367
      dx2y2   :     0.001047
      dxy     :     0.001651
 27 H s       :     0.842812  s :     0.842812
      pz      :     0.046485  p :     0.150185
      px      :     0.039593
      py      :     0.064107
      dz2     :     0.005264  d :     0.027678
      dxz     :     0.002495
      dyz     :     0.006854
      dx2y2   :     0.005644
      dxy     :     0.007420
 28 H s       :     0.746170  s :     0.746170
      pz      :     0.082475  p :     0.253317
      px      :     0.049289
      py      :     0.121553
      dz2     :     0.006743  d :     0.061721
      dxz     :     0.002128
      dyz     :     0.020559
      dx2y2   :     0.016551
      dxy     :     0.015740
 29 H s       :     0.754780  s :     0.754780
      pz      :     0.096198  p :     0.259338
      px      :     0.114992
      py      :     0.048148
      dz2     :     0.005872  d :     0.061151
      dxz     :     0.021659
      dyz     :     0.002761
      dx2y2   :     0.015646
      dxy     :     0.015215
 30 H s       :     0.818380  s :     0.818380
      pz      :     0.045885  p :     0.152803
      px      :     0.033209
      py      :     0.073708
      dz2     :     0.004189  d :     0.027839
      dxz     :     0.001687
      dyz     :     0.007843
      dx2y2   :     0.006812
      dxy     :     0.007308
 31 H s       :     0.841598  s :     0.841598
      pz      :     0.034487  p :     0.162426
      px      :     0.075245
      py      :     0.052694
      dz2     :     0.002991  d :     0.027803
      dxz     :     0.007429
      dyz     :     0.001425
      dx2y2   :     0.008072
      dxy     :     0.007886
 32 H s       :     0.842014  s :     0.842014
      pz      :     0.064992  p :     0.150855
      px      :     0.044260
      py      :     0.041603
      dz2     :     0.008608  d :     0.026434
      dxz     :     0.007470
      dyz     :     0.005746
      dx2y2   :     0.002285
      dxy     :     0.002324
 33 H s       :     0.849491  s :     0.849491
      pz      :     0.068612  p :     0.159347
      px      :     0.043489
      py      :     0.047246
      dz2     :     0.009187  d :     0.027785
      dxz     :     0.007855
      dyz     :     0.006966
      dx2y2   :     0.001874
      dxy     :     0.001903
 34 H s       :     0.706931  s :     0.706931
      pz      :     0.172582  p :     0.347904
      px      :     0.076357
      py      :     0.098965
      dz2     :     0.034386  d :     0.099578
      dxz     :     0.027231
      dyz     :     0.032733
      dx2y2   :     0.002576
      dxy     :     0.002651
 35 H s       :     0.838210  s :     0.838210
      pz      :     0.065537  p :     0.158365
      px      :     0.045370
      py      :     0.047459
      dz2     :     0.008575  d :     0.028203
      dxz     :     0.007566
      dyz     :     0.006666
      dx2y2   :     0.002757
      dxy     :     0.002640


                      *****************************
                      * MAYER POPULATION ANALYSIS *
                      *****************************

  NA   - Mulliken gross atomic population
  ZA   - Total nuclear charge
  QA   - Mulliken gross atomic charge
  VA   - Mayer's total valence
  BVA  - Mayer's bonded valence
  FA   - Mayer's free valence

  ATOM       NA         ZA         QA         VA         BVA        FA
  0 C      6.2985     6.0000    -0.2985     3.8703     3.8703     0.0000
  1 C      5.9681     6.0000     0.0319     3.8521     3.8521    -0.0000
  2 O      8.3462     8.0000    -0.3462     2.0721     2.0721    -0.0000
  3 C      5.4742     6.0000     0.5258     4.1621     4.1621    -0.0000
  4 O      8.4443     8.0000    -0.4443     2.0728     2.0728    -0.0000
  5 C      6.2191     6.0000    -0.2191     3.6537     3.6537    -0.0000
  6 C      5.8826     6.0000     0.1174     3.8531     3.8531    -0.0000
  7 C      6.2748     6.0000    -0.2748     3.8982     3.8982    -0.0000
  8 N      7.1279     7.0000    -0.1279     3.2894     3.2894     0.0000
  9 C      5.8022     6.0000     0.1978     4.1472     4.1472    -0.0000
 10 S     16.4289    16.0000    -0.4289     1.7663     1.7663    -0.0000
 11 N      7.2326     7.0000    -0.2326     3.2143     3.2143    -0.0000
 12 C      5.8987     6.0000     0.1013     3.8880     3.8880    -0.0000
 13 C      5.9908     6.0000     0.0092     3.8488     3.8488     0.0000
 14 C      6.1987     6.0000    -0.1987     3.8442     3.8442    -0.0000
 15 C      6.1353     6.0000    -0.1353     3.8200     3.8200     0.0000
 16 C      6.2821     6.0000    -0.2821     3.7939     3.7939    -0.0000
 17 C      5.6818     6.0000     0.3182     3.8371     3.8371    -0.0000
 18 O      8.3604     8.0000    -0.3604     2.1135     2.1135     0.0000
 19 C      6.2561     6.0000    -0.2561     3.8440     3.8440     0.0000
 20 H      0.8803     1.0000     0.1197     0.9875     0.9875     0.0000
 21 H      0.9017     1.0000     0.0983     0.9840     0.9840     0.0000
 22 H      0.9076     1.0000     0.0924     0.9831     0.9831     0.0000
 23 H      0.8916     1.0000     0.1084     0.9850     0.9850    -0.0000
 24 H      0.8914     1.0000     0.1086     0.9762     0.9762    -0.0000
 25 H      0.8772     1.0000     0.1228     0.9833     0.9833     0.0000
 26 H      0.8666     1.0000     0.1334     0.9794     0.9794     0.0000
 27 H      0.9014     1.0000     0.0986     0.9856     0.9856    -0.0000
 28 H      0.8040     1.0000     0.1960     1.0226     1.0226    -0.0000
 29 H      0.8053     1.0000     0.1947     1.0134     1.0134    -0.0000
 30 H      0.8291     1.0000     0.1709     0.9958     0.9958     0.0000
 31 H      0.8355     1.0000     0.1645     0.9889     0.9889     0.0000
 32 H      0.8381     1.0000     0.1619     0.9776     0.9776     0.0000
 33 H      0.8724     1.0000     0.1276     0.9926     0.9926    -0.0000
 34 H      0.7591     1.0000     0.2409     1.0101     1.0101     0.0000
 35 H      0.8354     1.0000     0.1646     0.9901     0.9901    -0.0000

  Mayer bond orders larger than 0.100000
B(  0-C ,  1-C ) :   0.9612 B(  0-C , 20-H ) :   0.9740 B(  0-C , 21-H ) :   0.9761 
B(  0-C , 22-H ) :   0.9773 B(  1-C ,  2-O ) :   0.8945 B(  1-C , 23-H ) :   0.9780 
B(  1-C , 24-H ) :   0.9848 B(  2-O ,  3-C ) :   1.1587 B(  3-C ,  4-O ) :   1.9418 
B(  3-C ,  5-C ) :   1.0448 B(  5-C ,  6-C ) :   1.6558 B(  5-C , 12-C ) :   0.9430 
B(  6-C ,  7-C ) :   0.9653 B(  6-C ,  8-N ) :   1.1302 B(  7-C , 25-H ) :   0.9731 
B(  7-C , 26-H ) :   0.9564 B(  7-C , 27-H ) :   0.9853 B(  8-N ,  9-C ) :   1.1852 
B(  8-N , 28-H ) :   0.9528 B(  9-C , 10-S ) :   1.6216 B(  9-C , 11-N ) :   1.2741 
B( 11-N , 12-C ) :   0.9389 B( 11-N , 29-H ) :   0.9535 B( 12-C , 13-C ) :   1.0114 
B( 12-C , 30-H ) :   0.9655 B( 13-C , 14-C ) :   1.3490 B( 13-C , 19-C ) :   1.4053 
B( 14-C , 15-C ) :   1.3998 B( 14-C , 31-H ) :   0.9598 B( 15-C , 16-C ) :   1.3645 
B( 15-C , 32-H ) :   0.9706 B( 16-C , 17-C ) :   1.3271 B( 16-C , 33-H ) :   0.9868 
B( 17-C , 18-O ) :   1.1004 B( 17-C , 19-C ) :   1.3581 B( 18-O , 34-H ) :   0.9801 
B( 19-C , 35-H ) :   0.9537 

-------
TIMINGS
-------

Total SCF time: 0 days 1 hours 29 min 53 sec 

Total time                  ....    5393.518 sec
Sum of individual times     ....    5388.464 sec  ( 99.9%)

Fock matrix formation       ....    5377.269 sec  ( 99.7%)
Diagonalization             ....       1.168 sec  (  0.0%)
Density matrix formation    ....       0.209 sec  (  0.0%)
Population analysis         ....       0.299 sec  (  0.0%)
Initial guess               ....       4.583 sec  (  0.1%)
Orbital Transformation      ....       0.000 sec  (  0.0%)
Orbital Orthonormalization  ....       0.000 sec  (  0.0%)
DIIS solution               ....       2.003 sec  (  0.0%)
SOSCF solution              ....       1.686 sec  (  0.0%)

------------------------------------------------------------------------------
                                ORCA  MP2 
------------------------------------------------------------------------------

Freezing NCore=48 chemical core electrons

-------------
RI-MP2 ENERGY
-------------
Dimension of the basis                    ...  828
Memory devoted to MP2                     ...  256 MB   
Data format for buffers                   ... DOUBLE
Compression type for matrix containers    ... UNCOMPRESSED
Overall scaling of the MP2 energy         ...   1.000e+00
Calculating two index integrals           ... done (    0.041 sec)
Cholesky decomposition of V**-1           ... done (    0.290 sec)

-----------------
RI-TRANSFORMATION (AUX index driven)
-----------------

Dimension of the orbital-basis         ... 828
Dimension of the aux-basis             ... 2141
Transformation of internal/external MOs...   24-  76 to   77- 827
Number Format for Storage              ... Double (8 Byte)
Integral mode                          ... Direct

First Phase: integral generation and transformation of MO indices
  Aux angular momentum 0               ... done (    4.383 sec)
  Aux angular momentum 1               ... done (    6.944 sec)
  Aux angular momentum 2               ... done (    9.355 sec)
  Aux angular momentum 3               ... done (    7.499 sec)
  Aux angular momentum 4               ... done (    2.652 sec)
Closing buffer VIA ( 0.63 GB; CompressionRatio= 1.00)
  Phase 1 completed in    31.085 sec
Second Phase: sorting and transformation of aux index

IA-Transformation
Memory available                       ... 167 MB 
Max. # MO pairs treated in a batch     ... 12    
# of internal orbitals                 ... 53
# batches for internal orbitals        ... 5
Closing buffer IAV ( 0.63 GB; CompressionRatio= 1.00)
(ia|v) transformation done in    22.760 sec

  Phase 2 completed in    22.772 sec
RI-Integral transformation completed in    53.862 sec
Opening buffers                              ... done

Starting loop over batches of integrals:

Operator 0  - window                       ... ( 24- 76)x( 77-827)
Operator 0  - Memory available             ...   256 MB
Operator 0  - Memory needed per MO         ...  12.3 MB
Operator 0  - Number of orbitals per batch ... 13
Operator 0  - Number of batches            ... 5

OPERATOR  0   PASS   0:  MOs    24 ...   36
  Reading integrals       ... ok
  Internal MO  26
  Internal MO  29
  Internal MO  32
  Internal MO  35
OPERATOR  0   PASS   1:  MOs    37 ...   49
  Reading integrals       ... ok
  Internal MO  38
  Internal MO  41
  Internal MO  44
  Internal MO  47
OPERATOR  0   PASS   2:  MOs    50 ...   62
  Reading integrals       ... ok
  Internal MO  50
  Internal MO  53
  Internal MO  56
  Internal MO  59
  Internal MO  62
OPERATOR  0   PASS   3:  MOs    63 ...   75
  Reading integrals       ... ok
  Internal MO  65
  Internal MO  68
  Internal MO  71
  Internal MO  74
OPERATOR  0   PASS   4:  MOs    76 ...   76
  Reading integrals       ... ok
Time spent in pair loops =    80.146 sec
Deleting buffer (Ka|jb)[aa] ...done

-----------------------------------------------
 RI-MP2 CORRELATION ENERGY:     -3.538337319 Eh
-----------------------------------------------


-------
TIMINGS
-------

Total time                :  134.465 sec
Integral trafo            :   53.877 sec ( 40.1%)
I/O of integrals          :    6.110 sec (  4.5%)
K(i,j) Operators          :   46.084 sec ( 34.3%)
T(i,j) pair energies      :    8.228 sec (  6.1%)
V-calculation             :    0.041 sec (  0.0%)
V**(-1/2)                 :    0.290 sec (  0.2%)
Gamma(ia|P)               :    0.000 sec (  0.0%)
Gamma-Trafo               :    0.000 sec (  0.0%)
D(virtual)                :    0.000 sec (  0.0%)
D(internal)               :    0.000 sec (  0.0%)
W(virtual)                :    0.000 sec (  0.0%)
W(internal)               :    0.000 sec (  0.0%)
L(virtual)                :    0.000 sec (  0.0%)
L(internal)               :    0.000 sec (  0.0%)
G(D)                      :    0.000 sec (  0.0%)
G(Z)                      :    0.000 sec (  0.0%)
Z-Vector Solution         :    0.000 sec (  0.0%)
3-Index Derivative        :    0.000 sec (  0.0%)
2-Index Derivative        :    0.000 sec (  0.0%)
Separable Gradient        :    0.000 sec (  0.0%)


---------------------------------------
MP2 TOTAL ENERGY:    -1274.342090962 Eh
---------------------------------------

-------------------------   --------------------
FINAL SINGLE POINT ENERGY     -1274.342090962207
-------------------------   --------------------


                            ***************************************
                            *     ORCA property calculations      *
                            ***************************************


  WARNING: The energy has been calculated at the MP2 level but the densities
           used in the property calculations are still SCF densities
           MP2 response densities have not been calculated 
           use %mp2 Density relaxed end
           or  %mp2 Density unrelaxed end

                                    ---------------------
                                    Active property flags
                                    ---------------------
   (+) Dipole Moment


------------------------------------------------------------------------------
                       ORCA ELECTRIC PROPERTIES CALCULATION
------------------------------------------------------------------------------

Dipole Moment Calculation                       ... on
Quadrupole Moment Calculation                   ... off
Polarizability Calculation                      ... off
GBWName                                         ... G2_CONFS/Conf192.orca.gbw
Electron density file                           ... G2_CONFS/Conf192.orca.scfp
The origin for moment calculation is the CENTER OF MASS  = (32.130569, 32.573623 33.348519)

-------------
DIPOLE MOMENT
-------------
                                X             Y             Z
Electronic contribution:     12.75502       3.85338       8.51168
Nuclear contribution   :    -14.54537      -3.90835      -8.68497
                        -----------------------------------------
Total Dipole Moment    :     -1.79035      -0.05497      -0.17329
                        -----------------------------------------
Magnitude (a.u.)       :      1.79956
Magnitude (Debye)      :      4.57411



--------------------
Rotational spectrum 
--------------------
 
Rotational constants in cm-1:     0.011463     0.008642     0.005738 
Rotational constants in MHz :   343.638610   259.077836   172.006089 

 Dipole components along the rotational axes: 
x,y,z [a.u.] :    -0.973172     0.990998    -1.144228 
x,y,z [Debye]:    -2.473607     2.518917    -2.908397 

 

Timings for individual modules:

Sum of individual times         ...     5530.015 sec (=  92.167 min)
GTO integral calculation        ...        1.218 sec (=   0.020 min)   0.0 %
SCF iterations                  ...     5393.561 sec (=  89.893 min)  97.5 %
MP2 module                      ...      135.236 sec (=   2.254 min)   2.4 %
                             ****ORCA TERMINATED NORMALLY****
TOTAL RUN TIME: 0 days 1 hours 32 minutes 11 seconds 192 msec
