
                                 *****************
                                 * O   R   C   A *
                                 *****************

           --- An Ab Initio, DFT and Semiempirical electronic structure package ---

                  #######################################################
                  #                        -***-                        #
                  #          Department of theory and spectroscopy      #
                  #               Directorship: Frank Neese             #
                  #        Max Planck Institute fuer Kohlenforschung    #
                  #                Kaiser Wilhelm Platz 1               #
                  #                 D-45470 Muelheim/Ruhr               #
                  #                      Germany                        #
                  #                                                     #
                  #                  All rights reserved                #
                  #                        -***-                        #
                  #######################################################


                         Program Version 4.2.0 -  RELEASE  -


 With contributions from (in alphabetic order):
   Daniel Aravena         : Magnetic Suceptibility
   Michael Atanasov       : Ab Initio Ligand Field Theory (pilot matlab implementation)
   Alexander A. Auer      : GIAO ZORA, VPT2
   Ute Becker             : Parallelization
   Giovanni Bistoni       : ED, misc. LED, open-shell LED, HFLED
   Martin Brehm           : Molecular dynamics
   Dmytro Bykov           : SCF Hessian
   Vijay G. Chilkuri      : MRCI spin determinant printing, contributions to CSF-ICE
   Dipayan Datta          : RHF DLPNO-CCSD density
   Achintya Kumar Dutta   : EOM-CC, STEOM-CC
   Dmitry Ganyushin       : Spin-Orbit,Spin-Spin,Magnetic field MRCI
   Miquel Garcia          : C-PCM Hessian, Gaussian charge scheme
   Yang Guo               : DLPNO-NEVPT2, CIM, IAO-localization
   Andreas Hansen         : Spin unrestricted coupled pair/coupled cluster methods
   Benjamin Helmich-Paris : CASSCF linear response (MC-RPA)
   Lee Huntington         : MR-EOM, pCC
   Robert Izsak           : Overlap fitted RIJCOSX, COSX-SCS-MP3, EOM
   Christian Kollmar      : KDIIS, OOCD, Brueckner-CCSD(T), CCSD density
   Simone Kossmann        : Meta GGA functionals, TD-DFT gradient, OOMP2, MP2 Hessian
   Martin Krupicka        : AUTO-CI
   Lucas Lang             : DCDCAS
   Dagmar Lenk            : GEPOL surface, SMD
   Dimitrios Liakos       : Extrapolation schemes; Compound Job, initial MDCI parallelization
   Dimitrios Manganas     : Further ROCIS development; embedding schemes
   Dimitrios Pantazis     : SARC Basis sets
   Taras Petrenko         : DFT Hessian,TD-DFT gradient, ASA, ECA, R-Raman, ABS, FL, XAS/XES, NRVS
   Peter Pinski           : DLPNO-MP2, DLPNO-MP2 Gradient
   Christoph Reimann      : Effective Core Potentials
   Marius Retegan         : Local ZFS, SOC
   Christoph Riplinger    : Optimizer, TS searches, QM/MM, DLPNO-CCSD(T), (RO)-DLPNO pert. Triples
   Tobias Risthaus        : Range-separated hybrids, TD-DFT gradient, RPA, STAB
   Michael Roemelt        : Original ROCIS implementation
   Masaaki Saitow         : Open-shell DLPNO-CCSD energy and density
   Barbara Sandhoefer     : DKH picture change effects
   Avijit Sen             : IP-ROCIS
   Kantharuban Sivalingam : CASSCF convergence, NEVPT2, FIC-MRCI
   Bernardo de Souza      : ESD, SOC TD-DFT
   Georgi Stoychev        : AutoAux, RI-MP2 NMR
   Willem Van den Heuvel  : Paramagnetic NMR
   Boris Wezisla          : Elementary symmetry handling
   Frank Wennmohs         : Technical directorship


 We gratefully acknowledge several colleagues who have allowed us to
 interface, adapt or use parts of their codes:
   Stefan Grimme, W. Hujo, H. Kruse,             : VdW corrections, initial TS optimization,
                  C. Bannwarth                     DFT functionals, gCP, sTDA/sTD-DF
   Ed Valeev, F. Pavosevic, A. Kumar             : LibInt (2-el integral package), F12 methods
   Garnet Chan, S. Sharma, J. Yang, R. Olivares  : DMRG
   Ulf Ekstrom                                   : XCFun DFT Library
   Mihaly Kallay                                 : mrcc  (arbitrary order and MRCC methods)
   Andreas Klamt, Michael Diedenhofen            : otool_cosmo (COSMO solvation model)
   Jiri Pittner, Ondrej Demel                    : Mk-CCSD
   Frank Weinhold                                : gennbo (NPA and NBO analysis)
   Christopher J. Cramer and Donald G. Truhlar   : smd solvation model
   Lars Goerigk                                  : TD-DFT with DH, B97 family of functionals
   V. Asgeirsson, H. Jonsson                     : NEB implementation
   FAccTs GmbH                                   : IRC, NEB, NEB-TS, Multilevel, MM, QM/MM, CI optimization
   S Lehtola, MJT Oliveira, MAL Marques          : LibXC Library


 Your calculation uses the libint2 library for the computation of 2-el integrals
 For citations please refer to: http://libint.valeyev.net

 Your ORCA version has been built with support for libXC version: 4.2.3
 For citations please refer to: https://tddft.org/programs/libxc/

 This ORCA versions uses:
   CBLAS   interface :  Fast vector & matrix operations
   LAPACKE interface :  Fast linear algebra routines
   SCALAPACK package :  Parallel linear algebra routines


----- Orbital basis set information -----
Your calculation utilizes the basis: cc-pVTZ 
       H, B-Ne : Obtained from the ccRepo (grant-hill.group.shef.ac.uk/ccrepo) Feb. 2017
                 T. H. Dunning, Jr., J. Chem. Phys. 90, 1007 (1989)
            He : Obtained from the ccRepo (grant-hill.group.shef.ac.uk/ccrepo) Feb. 2017
                 D. E. Woon, T. H. Dunning, Jr., J. Chem. Phys. 100, 2975 (1994)
  Li-Be, Na-Mg : Obtained from the ccRepo (grant-hill.group.shef.ac.uk/ccrepo) Feb. 2017
                 B. P. Prascher, D. E. Woon, K. A. Peterson, T. H. Dunning, Jr., A. K. Wilson, Theor. Chem. Acc. 128, 69 (2011)
         Al-Ar : Obtained from the ccRepo (grant-hill.group.shef.ac.uk/ccrepo) Feb. 2017
                 D. E. Woon, T. H. Dunning, Jr., J. Chem. Phys. 98, 1358 (1993)
            Ca : Obtained from the Peterson Research Group Website (tyr0.chem.wsu.edu/~kipeters) Feb. 2017
                 J. Koput, K. A. Peterson, J. Phys. Chem. 106, 9595 (2002)
         Sc-Zn : Obtained from the ccRepo (grant-hill.group.shef.ac.uk/ccrepo) Feb. 2017
                 N. B. Balabanov, K. A. Peterson, J. Chem. Phys. 123, 064107 (2005)
                 N. B. Balabanov, K. A. Peterson, J. Chem. Phys. 125, 074110 (2006)
         Ga-Kr : Obtained from the ccRepo (grant-hill.group.shef.ac.uk/ccrepo) Feb. 2017
                 A. K. Wilson, D. E. Woon, K. A. Peterson, T. H. Dunning, Jr., J. Chem. Phys. 110, 7667 (1999)
             Y : Obtained from the ccRepo (grant-hill.group.shef.ac.uk/ccrepo) Feb. 2017
                 K. A. Peterson, D. Figgen, M. Dolg, H. Stoll, J. Chem. Phys. 126, 124101 (2007)
        Ag, Au : Obtained from the Peterson Research Group Website (tyr0.chem.wsu.edu/~kipeters) Feb. 2017
                 K. A. Peterson, C. Puzzarini, Theor. Chem. Acc. 114, 283 (2005)

----- AuxC basis set information -----
Your calculation utilizes the auxiliary basis: cc-pVTZ/C 
  Obtained from the EMSL Basis Set Exchange (bse.pnl.gov) Feb. 2017
  H-He, B-F, Al-Ar, Ga-Kr : F. Weigend, A. Kohn, C. Hattig, J. Chem. Phys. 116, 3175 (2002)
             Li-Be, Na-Mg : C. Haettig, Phys. Chem. Chem. Phys. 7, 59 (2005)
                       Ne : C. Haettig, Phys. Chem. Chem. Phys. 7, 59 (2005)
                            F. Weigend, A. Kohn, C. Hattig, J. Chem. Phys. 116, 3175 (2002)
                    Sc-Zn : J. G. Hill, J. A. Platts, J. Chem. Phys. 128, 044104 (2008)

================================================================================
                                        WARNINGS
                       Please study these warnings very carefully!
================================================================================


WARNING: No MP2 level density has been requested!
         To caclulate MP2 level properties use
         %mp2 Density relaxed end
         or
         %mp2 Density unrelaxed end

WARNING: Post HF methods need fully converged wavefunctions
  ===> : Setting SCFConvForced true
         You can overwrite this default with %scf ConvForced false 


INFO   : the flag for use of LIBINT has been found!

================================================================================
                                       INPUT FILE
================================================================================
NAME = G2_CONFS/Conf865.orca
|  1> ! ri-mp2 cc-pvtz cc-pvtz/c TightSCF NoKeepInts
|  2> 
|  3> %scf
|  4>   MaxCore 4096
|  5> end
|  6> *xyz  0  1
|  7>     C       14.2958388   14.2798462   16.8194134
|  8>     C       14.4015560   15.5319494   15.9338473
|  9>     O       15.5502830   16.2780740   16.3665333
| 10>     C       15.8485322   17.4530674   15.7451312
| 11>     O       15.1850129   17.8529406   14.8026470
| 12>     C       17.0583216   18.1752129   16.2897322
| 13>     C       17.5888829   19.2516302   15.6475388
| 14>     C       17.1822345   19.8292694   14.3088050
| 15>     N       18.4615965   20.1028417   16.3489410
| 16>     C       18.5236634   20.1351730   17.7264324
| 17>     S       19.2222167   21.3857574   18.5533410
| 18>     N       17.9669008   19.0510253   18.3655871
| 19>     C       17.7482452   17.8046314   17.6222797
| 20>     C       17.2099889   16.6743696   18.4947216
| 21>     C       17.8334376   15.4122140   18.4936086
| 22>     C       17.3444788   14.3732046   19.3033356
| 23>     C       16.2255122   14.5982036   20.1231087
| 24>     C       15.6049488   15.8550441   20.1291023
| 25>     O       14.5187047   16.0719203   20.9129165
| 26>     C       16.0953672   16.8891400   19.3257278
| 27>     H       13.4430039   13.6629432   16.5118373
| 28>     H       14.1542466   14.5633260   17.8691065
| 29>     H       15.2073082   13.6744807   16.7438396
| 30>     H       14.5109692   15.2392545   14.8808761
| 31>     H       13.4921760   16.1396099   16.0363409
| 32>     H       17.1033444   19.0402407   13.5502367
| 33>     H       17.8969647   20.5702309   13.9323473
| 34>     H       16.1993570   20.3128869   14.3815431
| 35>     H       18.8537740   20.9055930   15.8824187
| 36>     H       17.9963904   19.0512513   19.3774866
| 37>     H       18.7670413   17.5045733   17.3376202
| 38>     H       18.6963987   15.2337654   17.8579713
| 39>     H       17.8307107   13.3996585   19.2919976
| 40>     H       15.8428743   13.7979444   20.7478935
| 41>     H       14.3327607   15.2477113   21.3871505
| 42>     H       15.5939542   17.8510114   19.3365794
| 43> *
| 44> 
| 45>                          ****END OF INPUT****
================================================================================

                       ****************************
                       * Single Point Calculation *
                       ****************************

---------------------------------
CARTESIAN COORDINATES (ANGSTROEM)
---------------------------------
  C     14.295839   14.279846   16.819413
  C     14.401556   15.531949   15.933847
  O     15.550283   16.278074   16.366533
  C     15.848532   17.453067   15.745131
  O     15.185013   17.852941   14.802647
  C     17.058322   18.175213   16.289732
  C     17.588883   19.251630   15.647539
  C     17.182234   19.829269   14.308805
  N     18.461596   20.102842   16.348941
  C     18.523663   20.135173   17.726432
  S     19.222217   21.385757   18.553341
  N     17.966901   19.051025   18.365587
  C     17.748245   17.804631   17.622280
  C     17.209989   16.674370   18.494722
  C     17.833438   15.412214   18.493609
  C     17.344479   14.373205   19.303336
  C     16.225512   14.598204   20.123109
  C     15.604949   15.855044   20.129102
  O     14.518705   16.071920   20.912916
  C     16.095367   16.889140   19.325728
  H     13.443004   13.662943   16.511837
  H     14.154247   14.563326   17.869107
  H     15.207308   13.674481   16.743840
  H     14.510969   15.239254   14.880876
  H     13.492176   16.139610   16.036341
  H     17.103344   19.040241   13.550237
  H     17.896965   20.570231   13.932347
  H     16.199357   20.312887   14.381543
  H     18.853774   20.905593   15.882419
  H     17.996390   19.051251   19.377487
  H     18.767041   17.504573   17.337620
  H     18.696399   15.233765   17.857971
  H     17.830711   13.399658   19.291998
  H     15.842874   13.797944   20.747893
  H     14.332761   15.247711   21.387150
  H     15.593954   17.851011   19.336579

----------------------------
CARTESIAN COORDINATES (A.U.)
----------------------------
  NO LB      ZA    FRAG     MASS         X           Y           Z
   0 C     6.0000    0    12.011   27.015220   26.984999   31.784085
   1 C     6.0000    0    12.011   27.214997   29.351131   30.110608
   2 O     8.0000    0    15.999   29.385776   30.761102   30.928266
   3 C     6.0000    0    12.011   29.949385   32.981518   29.753986
   4 O     8.0000    0    15.999   28.695516   33.737168   27.972949
   5 C     6.0000    0    12.011   32.235556   34.346175   30.783133
   6 C     6.0000    0    12.011   33.238172   36.380309   29.569563
   7 C     6.0000    0    12.011   32.469718   37.471889   27.039723
   8 N     7.0000    0    14.007   34.887361   37.988865   30.895021
   9 C     6.0000    0    12.011   35.004651   38.049963   33.498103
  10 S    16.0000    0    32.060   36.324725   40.413225   35.060733
  11 N     7.0000    0    14.007   33.952522   36.001220   34.705930
  12 C     6.0000    0    12.011   33.539323   33.645877   33.301282
  13 C     6.0000    0    12.011   32.522166   31.509992   34.949959
  14 C     6.0000    0    12.011   33.700313   29.124864   34.947855
  15 C     6.0000    0    12.011   32.776315   27.161420   36.478018
  16 C     6.0000    0    12.011   30.661774   27.586607   38.027164
  17 C     6.0000    0    12.011   29.489080   29.961691   38.038491
  18 O     8.0000    0    15.999   27.436376   30.371528   39.519685
  19 C     6.0000    0    12.011   30.415836   31.915849   36.520333
  20 H     1.0000    0     1.008   25.403596   25.819221   31.202850
  21 H     1.0000    0     1.008   26.747650   27.520698   33.767718
  22 H     1.0000    0     1.008   28.737648   25.841024   31.641271
  23 H     1.0000    0     1.008   27.421758   28.798017   28.120780
  24 H     1.0000    0     1.008   25.496518   30.499443   30.304292
  25 H     1.0000    0     1.008   32.320637   35.980840   25.606236
  26 H     1.0000    0     1.008   33.820362   38.872103   26.328321
  27 H     1.0000    0     1.008   30.612348   38.385793   27.177178
  28 H     1.0000    0     1.008   35.628469   39.505845   30.013422
  29 H     1.0000    0     1.008   34.008249   36.001647   36.618143
  30 H     1.0000    0     1.008   35.464568   33.078850   32.763354
  31 H     1.0000    0     1.008   35.331073   28.787645   33.746675
  32 H     1.0000    0     1.008   33.695160   25.321685   36.456592
  33 H     1.0000    0     1.008   29.938694   26.074336   39.207837
  34 H     1.0000    0     1.008   27.084992   28.813999   40.415857
  35 H     1.0000    0     1.008   29.468303   33.733523   36.540839

--------------------------------
INTERNAL COORDINATES (ANGSTROEM)
--------------------------------
 C      0   0   0     0.000000000000     0.00000000     0.00000000
 C      1   0   0     1.537259206281     0.00000000     0.00000000
 O      2   1   0     1.436486273464   107.73027780     0.00000000
 C      3   2   1     1.362241771944   119.05795721   181.04380019
 O      4   3   2     1.220013485499   121.06625218   357.42305564
 C      4   3   2     1.510521355269   115.03991914   178.85972314
 C      6   4   3     1.361095830499   121.34389100   170.22074336
 C      7   6   4     1.513683637311   127.90572707   354.86309848
 N      7   6   4     1.406469015486   119.02604377   162.88233737
 C      9   7   6     1.379267983428   122.69480404   341.35150730
 S     10   9   7     1.653999965906   122.41377182   196.98956736
 N     10   9   7     1.376182967016   115.28808041    17.18494223
 C     12  10   9     1.467587788265   119.61065943    18.94473959
 C     13  12  10     1.525898571303   113.08208202   176.23687185
 C     14  13  12     1.407738000806   120.49363685   231.18001537
 C     15  14  13     1.405090408449   120.55848395   179.56182339
 C     16  15  14     1.405253976120   119.66183594   359.84785739
 C     17  16  15     1.401707137422   119.90645876   359.97289565
 O     18  17  16     1.356954763812   120.01159752   179.54428097
 C     18  17  16     1.398311526344   120.35611486   359.83046871
 H      1   2   3     1.096585489307   110.49453288   181.28280665
 H      1   2   3     1.096478341007   110.47444799    61.49116414
 H      1   2   3     1.096793168730   110.65344732   301.41251247
 H      2   1   3     1.098357820043   110.00255219   120.30853379
 H      2   1   3     1.098511814093   109.86946288   239.83889579
 H      8   7   6     1.097367669957   110.87274455   311.59216663
 H      8   7   6     1.096167689345   112.73841437   191.41243863
 H      8   7   6     1.097827353232   110.48907745    70.48430254
 H      9   7   6     1.007896769295   119.51404385   180.41360605
 H     12  10   9     1.012329139008   116.89018351   180.19998015
 H     13  12  10     1.099550538944   102.99322393    62.49713155
 H     15  14  13     1.086545231505   119.96383939   359.16632943
 H     16  15  14     1.088274790504   120.00143918   179.72201122
 H     17  16  15     1.084980458816   119.91094331   179.82913462
 H     19  18  17     0.968913584162   107.48085842     0.19364550
 H     20  18  17     1.084771563017   119.20164347   179.31915764

---------------------------
INTERNAL COORDINATES (A.U.)
---------------------------
 C      0   0   0     0.000000000000     0.00000000     0.00000000
 C      1   0   0     2.904998896720     0.00000000     0.00000000
 O      2   1   0     2.714565651984   107.73027780     0.00000000
 C      3   2   1     2.574263877161   119.05795721   181.04380019
 O      4   3   2     2.305491367285   121.06625218   357.42305564
 C      4   3   2     2.854471680898   115.03991914   178.85972314
 C      6   4   3     2.572098361664   121.34389100   170.22074336
 C      7   6   4     2.860447527915   127.90572707   354.86309848
 N      7   6   4     2.657841255114   119.02604377   162.88233737
 C      9   7   6     2.606438753965   122.69480404   341.35150730
 S     10   9   7     3.125606961078   122.41377182   196.98956736
 N     10   9   7     2.600608917828   115.28808041    17.18494223
 C     12  10   9     2.773338997307   119.61065943    18.94473959
 C     13  12  10     2.883530407904   113.08208202   176.23687185
 C     14  13  12     2.660239289836   120.49363685   231.18001537
 C     15  14  13     2.655236065368   120.55848395   179.56182339
 C     16  15  14     2.655545163470   119.66183594   359.84785739
 C     17  16  15     2.648842609691   119.90645876   359.97289565
 O     18  17  16     2.564272879725   120.01159752   179.54428097
 C     18  17  16     2.642425834695   120.35611486   359.83046871
 H      1   2   3     2.072246257222   110.49453288   181.28280665
 H      1   2   3     2.072043776279   110.47444799    61.49116414
 H      1   2   3     2.072638714456   110.65344732   301.41251247
 H      2   1   3     2.075595476932   110.00255219   120.30853379
 H      2   1   3     2.075886483512   109.86946288   239.83889579
 H      8   7   6     2.073724364438   110.87274455   311.59216663
 H      8   7   6     2.071456729715   112.73841437   191.41243863
 H      8   7   6     2.074593039936   110.48907745    70.48430254
 H      9   7   6     1.904648865231   119.51404385   180.41360605
 H     12  10   9     1.913024830113   116.89018351   180.19998015
 H     13  12  10     2.077849389009   102.99322393    62.49713155
 H     15  14  13     2.053272919663   119.96383939   359.16632943
 H     16  15  14     2.056541312503   120.00143918   179.72201122
 H     17  16  15     2.050315927818   119.91094331   179.82913462
 H     19  18  17     1.830981321502   107.48085842     0.19364550
 H     20  18  17     2.049921171967   119.20164347   179.31915764

---------------------
BASIS SET INFORMATION
---------------------
There are 5 groups of distinct atoms

 Group   1 Type C   : 18s5p2d1f contracted to 4s3p2d1f pattern {8811/311/11/1}
 Group   2 Type O   : 18s5p2d1f contracted to 4s3p2d1f pattern {8811/311/11/1}
 Group   3 Type N   : 18s5p2d1f contracted to 4s3p2d1f pattern {8811/311/11/1}
 Group   4 Type S   : 41s16p2d1f contracted to 5s4p2d1f pattern {13131311/7711/11/1}
 Group   5 Type H   : 5s2p1d contracted to 3s2p1d pattern {311/11/1}

Atom   0C    basis set group =>   1
Atom   1C    basis set group =>   1
Atom   2O    basis set group =>   2
Atom   3C    basis set group =>   1
Atom   4O    basis set group =>   2
Atom   5C    basis set group =>   1
Atom   6C    basis set group =>   1
Atom   7C    basis set group =>   1
Atom   8N    basis set group =>   3
Atom   9C    basis set group =>   1
Atom  10S    basis set group =>   4
Atom  11N    basis set group =>   3
Atom  12C    basis set group =>   1
Atom  13C    basis set group =>   1
Atom  14C    basis set group =>   1
Atom  15C    basis set group =>   1
Atom  16C    basis set group =>   1
Atom  17C    basis set group =>   1
Atom  18O    basis set group =>   2
Atom  19C    basis set group =>   1
Atom  20H    basis set group =>   5
Atom  21H    basis set group =>   5
Atom  22H    basis set group =>   5
Atom  23H    basis set group =>   5
Atom  24H    basis set group =>   5
Atom  25H    basis set group =>   5
Atom  26H    basis set group =>   5
Atom  27H    basis set group =>   5
Atom  28H    basis set group =>   5
Atom  29H    basis set group =>   5
Atom  30H    basis set group =>   5
Atom  31H    basis set group =>   5
Atom  32H    basis set group =>   5
Atom  33H    basis set group =>   5
Atom  34H    basis set group =>   5
Atom  35H    basis set group =>   5
---------------------------------
AUXILIARY/C BASIS SET INFORMATION
---------------------------------
There are 5 groups of distinct atoms

 Group   1 Type C   : 8s6p5d3f1g contracted to 8s6p5d3f1g pattern {11111111/111111/11111/111/1}
 Group   2 Type O   : 8s6p5d3f1g contracted to 8s6p5d3f1g pattern {11111111/111111/11111/111/1}
 Group   3 Type N   : 8s6p5d3f1g contracted to 8s6p5d3f1g pattern {11111111/111111/11111/111/1}
 Group   4 Type S   : 10s8p7d5f2g contracted to 10s8p7d5f2g pattern {1111111111/11111111/1111111/11111/11}
 Group   5 Type H   : 4s3p2d1f contracted to 4s3p2d1f pattern {1111/111/11/1}

Atom   0C    basis set group =>   1
Atom   1C    basis set group =>   1
Atom   2O    basis set group =>   2
Atom   3C    basis set group =>   1
Atom   4O    basis set group =>   2
Atom   5C    basis set group =>   1
Atom   6C    basis set group =>   1
Atom   7C    basis set group =>   1
Atom   8N    basis set group =>   3
Atom   9C    basis set group =>   1
Atom  10S    basis set group =>   4
Atom  11N    basis set group =>   3
Atom  12C    basis set group =>   1
Atom  13C    basis set group =>   1
Atom  14C    basis set group =>   1
Atom  15C    basis set group =>   1
Atom  16C    basis set group =>   1
Atom  17C    basis set group =>   1
Atom  18O    basis set group =>   2
Atom  19C    basis set group =>   1
Atom  20H    basis set group =>   5
Atom  21H    basis set group =>   5
Atom  22H    basis set group =>   5
Atom  23H    basis set group =>   5
Atom  24H    basis set group =>   5
Atom  25H    basis set group =>   5
Atom  26H    basis set group =>   5
Atom  27H    basis set group =>   5
Atom  28H    basis set group =>   5
Atom  29H    basis set group =>   5
Atom  30H    basis set group =>   5
Atom  31H    basis set group =>   5
Atom  32H    basis set group =>   5
Atom  33H    basis set group =>   5
Atom  34H    basis set group =>   5
Atom  35H    basis set group =>   5
------------------------------------------------------------------------------
                           ORCA GTO INTEGRAL CALCULATION
------------------------------------------------------------------------------

                         BASIS SET STATISTICS AND STARTUP INFO

 # of primitive gaussian shells          ...  682
 # of primitive gaussian functions       ... 1312
 # of contracted shells                  ...  298
 # of contracted basis functions         ...  828
 Highest angular momentum                ...    3
 Maximum contraction depth               ...   13
 Integral package used                   ... LIBINT
 Integral threshhold            Thresh   ...  2.500e-11
 Primitive cut-off              TCut     ...  2.500e-12


------------------------------ INTEGRAL EVALUATION ----------------------------


 * One electron integrals 
 Pre-screening matrix                    ... done
 Shell pair data                         ... done (   0.013 sec)

-------------------------------------------------------------------------------
                                 ORCA SCF
-------------------------------------------------------------------------------

------------
SCF SETTINGS
------------
Hamiltonian:
 Ab initio Hamiltonian  Method          .... Hartree-Fock(GTOs)


General Settings:
 Integral files         IntName         .... G2_CONFS/Conf865.orca
 Hartree-Fock type      HFTyp           .... RHF
 Total Charge           Charge          ....    0
 Multiplicity           Mult            ....    1
 Number of Electrons    NEL             ....  154
 Basis Dimension        Dim             ....  828
 Nuclear Repulsion      ENuc            ....   1699.3953472091 Eh

Convergence Acceleration:
 DIIS                   CNVDIIS         .... on
   Start iteration      DIISMaxIt       ....    12
   Startup error        DIISStart       ....  0.200000
   # of expansion vecs  DIISMaxEq       ....     5
   Bias factor          DIISBfac        ....   1.050
   Max. coefficient     DIISMaxC        ....  10.000
 Newton-Raphson         CNVNR           .... off
 SOSCF                  CNVSOSCF        .... on
   Start iteration      SOSCFMaxIt      ....   150
   Startup grad/error   SOSCFStart      ....  0.003300
 Level Shifting         CNVShift        .... on
   Level shift para.    LevelShift      ....    0.2500
   Turn off err/grad.   ShiftErr        ....    0.0010
 Zerner damping         CNVZerner       .... off
 Static damping         CNVDamp         .... on
   Fraction old density DampFac         ....    0.7000
   Max. Damping (<1)    DampMax         ....    0.9800
   Min. Damping (>=0)   DampMin         ....    0.0000
   Turn off err/grad.   DampErr         ....    0.1000
 Fernandez-Rico         CNVRico         .... off

SCF Procedure:
 Maximum # iterations   MaxIter         ....   125
 SCF integral mode      SCFMode         .... Direct
   Integral package                     .... LIBINT
 Reset frequency        DirectResetFreq ....    20
 Integral Threshold     Thresh          ....  2.500e-11 Eh
 Primitive CutOff       TCut            ....  2.500e-12 Eh

Convergence Tolerance:
 Convergence Check Mode ConvCheckMode   .... Total+1el-Energy
 Convergence forced     ConvForced      .... 1
 Energy Change          TolE            ....  1.000e-08 Eh
 1-El. energy change                    ....  1.000e-05 Eh
 Orbital Gradient       TolG            ....  1.000e-05
 Orbital Rotation angle TolX            ....  1.000e-05
 DIIS Error             TolErr          ....  5.000e-07


Diagonalization of the overlap matrix:
Smallest eigenvalue                        ... 3.337e-05
Time for diagonalization                   ...    0.111 sec
Threshold for overlap eigenvalues          ... 1.000e-08
Number of eigenvalues below threshold      ... 0
Time for construction of square roots      ...    0.064 sec
Total time needed                          ...    0.177 sec

-------------------
DFT GRID GENERATION
-------------------

General Integration Accuracy     IntAcc      ...  4.340
Radial Grid Type                 RadialGrid  ... Gauss-Chebyshev
Angular Grid (max. acc.)         AngularGrid ... Lebedev-110
Angular grid pruning method      GridPruning ... 3 (G Style)
Weight generation scheme         WeightScheme... Becke
Basis function cutoff            BFCut       ...    1.0000e-11
Integration weight cutoff        WCut        ...    1.0000e-14
Grids for H and He will be reduced by one unit

# of grid points (after initial pruning)     ...  46246 (   0.0 sec)
# of grid points (after weights+screening)   ...  41373 (   0.3 sec)
nearest neighbour list constructed           ...    0.0 sec
Grid point re-assignment to atoms done       ...    0.0 sec
Grid point division into batches done        ...    0.0 sec
Reduced shell lists constructed in    0.9 sec

Total number of grid points                  ...    41373
Total number of batches                      ...      666
Average number of points per batch           ...       62
Average number of grid points per atom       ...     1149
Average number of shells per batch           ...   147.95 (49.65%)
Average number of basis functions per batch  ...   376.24 (45.44%)
Average number of large shells per batch     ...    94.86 (64.12%)
Average number of large basis fcns per batch ...   243.57 (64.74%)
Maximum spatial batch extension              ...  20.88, 19.23, 19.77 au
Average spatial batch extension              ...   3.39,  3.37,  3.34 au

Time for grid setup =    1.269 sec

------------------------------
INITIAL GUESS: MODEL POTENTIAL
------------------------------
Loading Hartree-Fock densities                     ... done
Calculating cut-offs                               ... done
Setting up the integral package                    ... done
Initializing the effective Hamiltonian             ... done
Starting the Coulomb interaction                   ... done (   3.0 sec)
Reading the grid                                   ... done
Mapping shells                                     ... done
Starting the XC term evaluation                    ... done (   1.3 sec)
Transforming the Hamiltonian                       ... done (   0.1 sec)
Diagonalizing the Hamiltonian                      ... done (   0.1 sec)
Back transforming the eigenvectors                 ... done (   0.0 sec)
Now organizing SCF variables                       ... done
                      ------------------
                      INITIAL GUESS DONE (   5.9 sec)
                      ------------------
--------------
SCF ITERATIONS
--------------
ITER       Energy         Delta-E        Max-DP      RMS-DP      [F,P]     Damp
               ***  Starting incremental Fock matrix formation  ***
  0  -1270.0088074656   0.000000000000 0.04929324  0.00042956  0.3025796 0.7000
  1  -1270.2761529139  -0.267345448277 0.03606667  0.00034456  0.1741450 0.7000
                               ***Turning on DIIS***
  2  -1270.4425745069  -0.166421593044 0.02582886  0.00023084  0.1096493 0.7000
  3  -1272.5751179169  -2.132543410031 0.06311555  0.00049787  0.0829840 0.0000
  4  -1270.7523574099   1.822760507022 0.00747152  0.00009151  0.0074966 0.0000
  5  -1270.8080977989  -0.055740388953 0.00311842  0.00004742  0.0045809 0.0000
                      *** Initiating the SOSCF procedure ***
                           *** Shutting down DIIS ***
                      *** Re-Reading the Fockian *** 
                      *** Removing any level shift *** 
ITER      Energy       Delta-E        Grad      Rot      Max-DP    RMS-DP
  6  -1270.78932346   0.0187743340  0.001410  0.001410  0.001650  0.000024
               *** Restarting incremental Fock matrix formation ***
  7  -1270.80384444  -0.0145209702  0.000840  0.002134  0.001233  0.000014
  8  -1270.80388578  -0.0000413482  0.000342  0.002247  0.001320  0.000014
  9  -1270.80390103  -0.0000152451  0.000138  0.000266  0.000351  0.000004
 10  -1270.80390286  -0.0000018331  0.000034  0.000100  0.000114  0.000001
 11  -1270.80390303  -0.0000001721  0.000023  0.000104  0.000057  0.000001
 12  -1270.80390309  -0.0000000582  0.000010  0.000043  0.000031  0.000000
 13  -1270.80390309  -0.0000000018  0.000004  0.000016  0.000007  0.000000
                  ***Gradient check signals convergence***
              ***Rediagonalizing the Fockian in SOSCF/NRSCF***

               *****************************************************
               *                     SUCCESS                       *
               *           SCF CONVERGED AFTER  14 CYCLES          *
               *****************************************************


----------------
TOTAL SCF ENERGY
----------------

Total Energy       :        -1270.80390308 Eh          -34580.33223 eV

Components:
Nuclear Repulsion  :         1699.39534721 Eh           46242.89834 eV
Electronic Energy  :        -2970.19925029 Eh          -80823.23057 eV
One Electron Energy:        -5120.05969972 Eh         -139323.90752 eV
Two Electron Energy:         2149.86044943 Eh           58500.67695 eV

Virial components:
Potential Energy   :        -2539.70506237 Eh          -69108.88818 eV
Kinetic Energy     :         1268.90115929 Eh           34528.55594 eV
Virial Ratio       :            2.00149952


---------------
SCF CONVERGENCE
---------------

  Last Energy change         ...    1.2909e-08  Tolerance :   1.0000e-08
  Last MAX-Density change    ...    2.1819e-06  Tolerance :   1.0000e-07
  Last RMS-Density change    ...    3.0039e-08  Tolerance :   5.0000e-09
  Last Orbital Gradient      ...    1.2167e-06  Tolerance :   1.0000e-05
  Last Orbital Rotation      ...    2.6979e-06  Tolerance :   1.0000e-05

             **** THE GBW FILE WAS UPDATED (G2_CONFS/Conf865.orca.gbw) ****
             **** DENSITY FILE WAS UPDATED (G2_CONFS/Conf865.orca.scfp) ****
             **** ENERGY FILE WAS UPDATED (G2_CONFS/Conf865.orca.en.tmp) ****
             **** THE GBW FILE WAS UPDATED (G2_CONFS/Conf865.orca.gbw) ****
             **** DENSITY FILE WAS UPDATED (G2_CONFS/Conf865.orca.scfp) ****
----------------
ORBITAL ENERGIES
----------------

  NO   OCC          E(Eh)            E(eV) 
   0   2.0000     -91.890527     -2500.4684 
   1   2.0000     -20.600171      -560.5592 
   2   2.0000     -20.597164      -560.4773 
   3   2.0000     -20.537609      -558.8568 
   4   2.0000     -15.631386      -425.3516 
   5   2.0000     -15.604635      -424.6237 
   6   2.0000     -11.391995      -309.9919 
   7   2.0000     -11.383939      -309.7727 
   8   2.0000     -11.334002      -308.4139 
   9   2.0000     -11.316279      -307.9316 
  10   2.0000     -11.308770      -307.7273 
  11   2.0000     -11.292118      -307.2741 
  12   2.0000     -11.269311      -306.6535 
  13   2.0000     -11.259448      -306.3852 
  14   2.0000     -11.257970      -306.3449 
  15   2.0000     -11.250386      -306.1386 
  16   2.0000     -11.245849      -306.0151 
  17   2.0000     -11.241782      -305.9044 
  18   2.0000     -11.240585      -305.8719 
  19   2.0000     -11.225479      -305.4608 
  20   2.0000      -8.895458      -242.0577 
  21   2.0000      -6.577007      -178.9695 
  22   2.0000      -6.575040      -178.9159 
  23   2.0000      -6.574420      -178.8991 
  24   2.0000      -1.450507       -39.4703 
  25   2.0000      -1.419751       -38.6334 
  26   2.0000      -1.350353       -36.7450 
  27   2.0000      -1.339700       -36.4551 
  28   2.0000      -1.236518       -33.6474 
  29   2.0000      -1.158647       -31.5284 
  30   2.0000      -1.117504       -30.4088 
  31   2.0000      -1.043656       -28.3993 
  32   2.0000      -1.036568       -28.2064 
  33   2.0000      -1.017979       -27.7006 
  34   2.0000      -0.996029       -27.1033 
  35   2.0000      -0.982222       -26.7276 
  36   2.0000      -0.918865       -25.0036 
  37   2.0000      -0.886790       -24.1308 
  38   2.0000      -0.847121       -23.0513 
  39   2.0000      -0.838925       -22.8283 
  40   2.0000      -0.832275       -22.6473 
  41   2.0000      -0.816944       -22.2302 
  42   2.0000      -0.764074       -20.7915 
  43   2.0000      -0.733426       -19.9575 
  44   2.0000      -0.711104       -19.3501 
  45   2.0000      -0.697550       -18.9813 
  46   2.0000      -0.689075       -18.7507 
  47   2.0000      -0.678986       -18.4762 
  48   2.0000      -0.673785       -18.3346 
  49   2.0000      -0.663212       -18.0469 
  50   2.0000      -0.656907       -17.8753 
  51   2.0000      -0.647968       -17.6321 
  52   2.0000      -0.631579       -17.1861 
  53   2.0000      -0.608760       -16.5652 
  54   2.0000      -0.603975       -16.4350 
  55   2.0000      -0.595386       -16.2013 
  56   2.0000      -0.581089       -15.8122 
  57   2.0000      -0.576626       -15.6908 
  58   2.0000      -0.571908       -15.5624 
  59   2.0000      -0.570303       -15.5187 
  60   2.0000      -0.560972       -15.2648 
  61   2.0000      -0.549214       -14.9449 
  62   2.0000      -0.541229       -14.7276 
  63   2.0000      -0.522044       -14.2055 
  64   2.0000      -0.515999       -14.0410 
  65   2.0000      -0.511103       -13.9078 
  66   2.0000      -0.508837       -13.8462 
  67   2.0000      -0.501305       -13.6412 
  68   2.0000      -0.478372       -13.0172 
  69   2.0000      -0.460464       -12.5299 
  70   2.0000      -0.455852       -12.4044 
  71   2.0000      -0.438251       -11.9254 
  72   2.0000      -0.359870        -9.7926 
  73   2.0000      -0.347613        -9.4590 
  74   2.0000      -0.330085        -8.9821 
  75   2.0000      -0.323646        -8.8069 
  76   2.0000      -0.317152        -8.6301 
  77   0.0000       0.077006         2.0954 
  78   0.0000       0.105588         2.8732 
  79   0.0000       0.121301         3.3008 
  80   0.0000       0.127235         3.4623 
  81   0.0000       0.131657         3.5826 
  82   0.0000       0.141754         3.8573 
  83   0.0000       0.148728         4.0471 
  84   0.0000       0.150376         4.0919 
  85   0.0000       0.165740         4.5100 
  86   0.0000       0.171050         4.6545 
  87   0.0000       0.178534         4.8581 
  88   0.0000       0.192846         5.2476 
  89   0.0000       0.197776         5.3818 
  90   0.0000       0.203659         5.5418 
  91   0.0000       0.212208         5.7745 
  92   0.0000       0.215858         5.8738 
  93   0.0000       0.217279         5.9124 
  94   0.0000       0.223360         6.0779 
  95   0.0000       0.230891         6.2829 
  96   0.0000       0.248283         6.7561 
  97   0.0000       0.252502         6.8709 
  98   0.0000       0.267592         7.2815 
  99   0.0000       0.274497         7.4694 
 100   0.0000       0.295963         8.0536 
 101   0.0000       0.309447         8.4205 
 102   0.0000       0.318417         8.6646 
 103   0.0000       0.318995         8.6803 
 104   0.0000       0.325073         8.8457 
 105   0.0000       0.331165         9.0114 
 106   0.0000       0.339293         9.2326 
 107   0.0000       0.342936         9.3318 
 108   0.0000       0.353030         9.6064 
 109   0.0000       0.367045         9.9878 
 110   0.0000       0.371173        10.1001 
 111   0.0000       0.382318        10.4034 
 112   0.0000       0.387834        10.5535 
 113   0.0000       0.391514        10.6536 
 114   0.0000       0.395185        10.7535 
 115   0.0000       0.400010        10.8848 
 116   0.0000       0.414645        11.2831 
 117   0.0000       0.426127        11.5955 
 118   0.0000       0.428282        11.6541 
 119   0.0000       0.433213        11.7883 
 120   0.0000       0.442472        12.0403 
 121   0.0000       0.449426        12.2295 
 122   0.0000       0.456483        12.4215 
 123   0.0000       0.459543        12.5048 
 124   0.0000       0.470749        12.8097 
 125   0.0000       0.479295        13.0423 
 126   0.0000       0.482297        13.1240 
 127   0.0000       0.484965        13.1966 
 128   0.0000       0.489877        13.3302 
 129   0.0000       0.495093        13.4722 
 130   0.0000       0.500111        13.6087 
 131   0.0000       0.512120        13.9355 
 132   0.0000       0.519027        14.1234 
 133   0.0000       0.520927        14.1751 
 134   0.0000       0.527352        14.3500 
 135   0.0000       0.536269        14.5926 
 136   0.0000       0.537396        14.6233 
 137   0.0000       0.540770        14.7151 
 138   0.0000       0.545463        14.8428 
 139   0.0000       0.549883        14.9631 
 140   0.0000       0.553409        15.0590 
 141   0.0000       0.558648        15.2016 
 142   0.0000       0.564729        15.3670 
 143   0.0000       0.570132        15.5141 
 144   0.0000       0.573203        15.5976 
 145   0.0000       0.576936        15.6992 
 146   0.0000       0.582422        15.8485 
 147   0.0000       0.586259        15.9529 
 148   0.0000       0.592694        16.1280 
 149   0.0000       0.600743        16.3470 
 150   0.0000       0.604579        16.4514 
 151   0.0000       0.608053        16.5460 
 152   0.0000       0.617656        16.8073 
 153   0.0000       0.621789        16.9197 
 154   0.0000       0.623357        16.9624 
 155   0.0000       0.630572        17.1587 
 156   0.0000       0.630844        17.1661 
 157   0.0000       0.634407        17.2631 
 158   0.0000       0.639147        17.3921 
 159   0.0000       0.643773        17.5179 
 160   0.0000       0.649288        17.6680 
 161   0.0000       0.656655        17.8685 
 162   0.0000       0.657529        17.8923 
 163   0.0000       0.663846        18.0642 
 164   0.0000       0.667560        18.1652 
 165   0.0000       0.668627        18.1943 
 166   0.0000       0.674188        18.3456 
 167   0.0000       0.675897        18.3921 
 168   0.0000       0.681761        18.5517 
 169   0.0000       0.696675        18.9575 
 170   0.0000       0.703566        19.1450 
 171   0.0000       0.708033        19.2666 
 172   0.0000       0.712229        19.3807 
 173   0.0000       0.712866        19.3981 
 174   0.0000       0.715705        19.4753 
 175   0.0000       0.727547        19.7976 
 176   0.0000       0.730999        19.8915 
 177   0.0000       0.746111        20.3027 
 178   0.0000       0.750623        20.4255 
 179   0.0000       0.754659        20.5353 
 180   0.0000       0.769473        20.9384 
 181   0.0000       0.772598        21.0235 
 182   0.0000       0.787407        21.4264 
 183   0.0000       0.790379        21.5073 
 184   0.0000       0.802425        21.8351 
 185   0.0000       0.805384        21.9156 
 186   0.0000       0.816889        22.2287 
 187   0.0000       0.819424        22.2977 
 188   0.0000       0.832530        22.6543 
 189   0.0000       0.838103        22.8059 
 190   0.0000       0.848628        23.0923 
 191   0.0000       0.855371        23.2758 
 192   0.0000       0.859863        23.3981 
 193   0.0000       0.865449        23.5501 
 194   0.0000       0.871217        23.7070 
 195   0.0000       0.875080        23.8121 
 196   0.0000       0.884263        24.0620 
 197   0.0000       0.892018        24.2730 
 198   0.0000       0.893693        24.3186 
 199   0.0000       0.901250        24.5243 
 200   0.0000       0.903249        24.5787 
 201   0.0000       0.916056        24.9271 
 202   0.0000       0.918220        24.9860 
 203   0.0000       0.933226        25.3944 
 204   0.0000       0.934175        25.4202 
 205   0.0000       0.949742        25.8438 
 206   0.0000       0.954431        25.9714 
 207   0.0000       0.960156        26.1272 
 208   0.0000       0.965362        26.2688 
 209   0.0000       0.975618        26.5479 
 210   0.0000       0.980770        26.6881 
 211   0.0000       0.989445        26.9242 
 212   0.0000       0.994067        27.0499 
 213   0.0000       1.004957        27.3463 
 214   0.0000       1.005600        27.3638 
 215   0.0000       1.008143        27.4330 
 216   0.0000       1.020243        27.7622 
 217   0.0000       1.027116        27.9492 
 218   0.0000       1.030753        28.0482 
 219   0.0000       1.035985        28.1906 
 220   0.0000       1.045653        28.4537 
 221   0.0000       1.054646        28.6984 
 222   0.0000       1.069412        29.1002 
 223   0.0000       1.070976        29.1427 
 224   0.0000       1.079868        29.3847 
 225   0.0000       1.084505        29.5109 
 226   0.0000       1.094956        29.7953 
 227   0.0000       1.100506        29.9463 
 228   0.0000       1.113256        30.2932 
 229   0.0000       1.121102        30.5067 
 230   0.0000       1.125335        30.6219 
 231   0.0000       1.128385        30.7049 
 232   0.0000       1.130109        30.7518 
 233   0.0000       1.151034        31.3212 
 234   0.0000       1.157223        31.4896 
 235   0.0000       1.159035        31.5389 
 236   0.0000       1.166428        31.7401 
 237   0.0000       1.178813        32.0771 
 238   0.0000       1.185526        32.2598 
 239   0.0000       1.188706        32.3463 
 240   0.0000       1.196803        32.5667 
 241   0.0000       1.202308        32.7165 
 242   0.0000       1.211992        32.9800 
 243   0.0000       1.214357        33.0443 
 244   0.0000       1.220775        33.2190 
 245   0.0000       1.233587        33.5676 
 246   0.0000       1.235475        33.6190 
 247   0.0000       1.242942        33.8222 
 248   0.0000       1.247705        33.9518 
 249   0.0000       1.257604        34.2211 
 250   0.0000       1.265846        34.4454 
 251   0.0000       1.278741        34.7963 
 252   0.0000       1.282139        34.8888 
 253   0.0000       1.287313        35.0296 
 254   0.0000       1.296250        35.2728 
 255   0.0000       1.312060        35.7030 
 256   0.0000       1.314996        35.7829 
 257   0.0000       1.321579        35.9620 
 258   0.0000       1.334009        36.3002 
 259   0.0000       1.338351        36.4184 
 260   0.0000       1.349363        36.7180 
 261   0.0000       1.353844        36.8400 
 262   0.0000       1.363122        37.0924 
 263   0.0000       1.370511        37.2935 
 264   0.0000       1.376327        37.4518 
 265   0.0000       1.386848        37.7381 
 266   0.0000       1.395650        37.9776 
 267   0.0000       1.405469        38.2448 
 268   0.0000       1.408830        38.3362 
 269   0.0000       1.414839        38.4997 
 270   0.0000       1.415458        38.5166 
 271   0.0000       1.431052        38.9409 
 272   0.0000       1.435146        39.0523 
 273   0.0000       1.443419        39.2774 
 274   0.0000       1.456933        39.6452 
 275   0.0000       1.460278        39.7362 
 276   0.0000       1.461512        39.7698 
 277   0.0000       1.474678        40.1280 
 278   0.0000       1.489874        40.5415 
 279   0.0000       1.497056        40.7370 
 280   0.0000       1.500024        40.8177 
 281   0.0000       1.502210        40.8772 
 282   0.0000       1.512281        41.1512 
 283   0.0000       1.515025        41.2259 
 284   0.0000       1.517411        41.2908 
 285   0.0000       1.522646        41.4333 
 286   0.0000       1.529268        41.6135 
 287   0.0000       1.530088        41.6358 
 288   0.0000       1.541517        41.9468 
 289   0.0000       1.549954        42.1764 
 290   0.0000       1.552912        42.2569 
 291   0.0000       1.559158        42.4269 
 292   0.0000       1.569894        42.7190 
 293   0.0000       1.575852        42.8811 
 294   0.0000       1.584143        43.1067 
 295   0.0000       1.585044        43.1312 
 296   0.0000       1.602658        43.6105 
 297   0.0000       1.609296        43.7912 
 298   0.0000       1.618658        44.0459 
 299   0.0000       1.624778        44.2124 
 300   0.0000       1.637935        44.5705 
 301   0.0000       1.638683        44.5908 
 302   0.0000       1.651437        44.9379 
 303   0.0000       1.655864        45.0584 
 304   0.0000       1.668620        45.4054 
 305   0.0000       1.674991        45.5788 
 306   0.0000       1.690502        46.0009 
 307   0.0000       1.702536        46.3284 
 308   0.0000       1.711414        46.5700 
 309   0.0000       1.720743        46.8238 
 310   0.0000       1.724522        46.9266 
 311   0.0000       1.732918        47.1551 
 312   0.0000       1.749376        47.6029 
 313   0.0000       1.756811        47.8052 
 314   0.0000       1.756857        47.8065 
 315   0.0000       1.775801        48.3220 
 316   0.0000       1.783859        48.5413 
 317   0.0000       1.793939        48.8156 
 318   0.0000       1.803993        49.0891 
 319   0.0000       1.813982        49.3610 
 320   0.0000       1.817218        49.4490 
 321   0.0000       1.827117        49.7184 
 322   0.0000       1.831574        49.8397 
 323   0.0000       1.848587        50.3026 
 324   0.0000       1.861485        50.6536 
 325   0.0000       1.865505        50.7630 
 326   0.0000       1.895956        51.5916 
 327   0.0000       1.905364        51.8476 
 328   0.0000       1.912789        52.0496 
 329   0.0000       1.920070        52.2478 
 330   0.0000       1.928862        52.4870 
 331   0.0000       1.936167        52.6858 
 332   0.0000       1.942119        52.8477 
 333   0.0000       1.951645        53.1070 
 334   0.0000       1.959939        53.3326 
 335   0.0000       1.970915        53.6313 
 336   0.0000       1.982566        53.9484 
 337   0.0000       1.998963        54.3946 
 338   0.0000       2.012411        54.7605 
 339   0.0000       2.017081        54.8876 
 340   0.0000       2.027865        55.1810 
 341   0.0000       2.037517        55.4437 
 342   0.0000       2.048162        55.7333 
 343   0.0000       2.063423        56.1486 
 344   0.0000       2.097546        57.0771 
 345   0.0000       2.100644        57.1614 
 346   0.0000       2.110929        57.4413 
 347   0.0000       2.135425        58.1079 
 348   0.0000       2.142771        58.3078 
 349   0.0000       2.147166        58.4274 
 350   0.0000       2.183600        59.4188 
 351   0.0000       2.188294        59.5465 
 352   0.0000       2.207376        60.0657 
 353   0.0000       2.220521        60.4235 
 354   0.0000       2.227022        60.6004 
 355   0.0000       2.251609        61.2694 
 356   0.0000       2.277213        61.9661 
 357   0.0000       2.281123        62.0725 
 358   0.0000       2.290001        62.3141 
 359   0.0000       2.302354        62.6503 
 360   0.0000       2.314049        62.9685 
 361   0.0000       2.327581        63.3367 
 362   0.0000       2.344841        63.8064 
 363   0.0000       2.351999        64.0011 
 364   0.0000       2.356067        64.1118 
 365   0.0000       2.364908        64.3524 
 366   0.0000       2.377109        64.6844 
 367   0.0000       2.400691        65.3261 
 368   0.0000       2.409081        65.5544 
 369   0.0000       2.422785        65.9273 
 370   0.0000       2.440803        66.4176 
 371   0.0000       2.446612        66.5757 
 372   0.0000       2.460417        66.9513 
 373   0.0000       2.485748        67.6406 
 374   0.0000       2.499173        68.0059 
 375   0.0000       2.502590        68.0989 
 376   0.0000       2.506064        68.1935 
 377   0.0000       2.517433        68.5028 
 378   0.0000       2.525241        68.7153 
 379   0.0000       2.539508        69.1035 
 380   0.0000       2.545170        69.2576 
 381   0.0000       2.562799        69.7373 
 382   0.0000       2.569639        69.9234 
 383   0.0000       2.589591        70.4664 
 384   0.0000       2.611633        71.0662 
 385   0.0000       2.621114        71.3241 
 386   0.0000       2.636284        71.7369 
 387   0.0000       2.645383        71.9845 
 388   0.0000       2.654193        72.2243 
 389   0.0000       2.674627        72.7803 
 390   0.0000       2.681344        72.9631 
 391   0.0000       2.687792        73.1385 
 392   0.0000       2.693581        73.2961 
 393   0.0000       2.698012        73.4166 
 394   0.0000       2.719682        74.0063 
 395   0.0000       2.724353        74.1334 
 396   0.0000       2.734902        74.4205 
 397   0.0000       2.747712        74.7690 
 398   0.0000       2.756621        75.0115 
 399   0.0000       2.766428        75.2783 
 400   0.0000       2.774731        75.5043 
 401   0.0000       2.784285        75.7642 
 402   0.0000       2.794460        76.0411 
 403   0.0000       2.797918        76.1352 
 404   0.0000       2.805421        76.3394 
 405   0.0000       2.822608        76.8071 
 406   0.0000       2.831932        77.0608 
 407   0.0000       2.839728        77.2729 
 408   0.0000       2.862796        77.9006 
 409   0.0000       2.874418        78.2169 
 410   0.0000       2.876774        78.2810 
 411   0.0000       2.886097        78.5347 
 412   0.0000       2.889895        78.6380 
 413   0.0000       2.910673        79.2034 
 414   0.0000       2.916297        79.3565 
 415   0.0000       2.919542        79.4448 
 416   0.0000       2.924830        79.5887 
 417   0.0000       2.929569        79.7176 
 418   0.0000       2.943772        80.1041 
 419   0.0000       2.956790        80.4584 
 420   0.0000       2.964358        80.6643 
 421   0.0000       2.970022        80.8184 
 422   0.0000       2.975905        80.9785 
 423   0.0000       2.985976        81.2525 
 424   0.0000       3.002275        81.6960 
 425   0.0000       3.009852        81.9022 
 426   0.0000       3.017847        82.1198 
 427   0.0000       3.021281        82.2132 
 428   0.0000       3.029387        82.4338 
 429   0.0000       3.038125        82.6716 
 430   0.0000       3.045605        82.8751 
 431   0.0000       3.057575        83.2008 
 432   0.0000       3.065713        83.4223 
 433   0.0000       3.070629        83.5561 
 434   0.0000       3.081023        83.8389 
 435   0.0000       3.087271        84.0089 
 436   0.0000       3.091981        84.1371 
 437   0.0000       3.096538        84.2611 
 438   0.0000       3.101541        84.3972 
 439   0.0000       3.106940        84.5441 
 440   0.0000       3.115282        84.7711 
 441   0.0000       3.116552        84.8057 
 442   0.0000       3.131673        85.2171 
 443   0.0000       3.135192        85.3129 
 444   0.0000       3.142047        85.4994 
 445   0.0000       3.153100        85.8002 
 446   0.0000       3.155509        85.8658 
 447   0.0000       3.166412        86.1625 
 448   0.0000       3.170494        86.2735 
 449   0.0000       3.178977        86.5044 
 450   0.0000       3.196208        86.9732 
 451   0.0000       3.207817        87.2891 
 452   0.0000       3.210456        87.3609 
 453   0.0000       3.214604        87.4738 
 454   0.0000       3.224485        87.7427 
 455   0.0000       3.232387        87.9577 
 456   0.0000       3.241360        88.2019 
 457   0.0000       3.255330        88.5820 
 458   0.0000       3.260126        88.7125 
 459   0.0000       3.267917        88.9245 
 460   0.0000       3.271311        89.0169 
 461   0.0000       3.273255        89.0698 
 462   0.0000       3.284244        89.3688 
 463   0.0000       3.293230        89.6133 
 464   0.0000       3.296271        89.6961 
 465   0.0000       3.298499        89.7567 
 466   0.0000       3.304098        89.9091 
 467   0.0000       3.308690        90.0340 
 468   0.0000       3.323976        90.4500 
 469   0.0000       3.332019        90.6688 
 470   0.0000       3.336415        90.7885 
 471   0.0000       3.345104        91.0249 
 472   0.0000       3.348294        91.1117 
 473   0.0000       3.350774        91.1792 
 474   0.0000       3.360338        91.4395 
 475   0.0000       3.369307        91.6835 
 476   0.0000       3.377869        91.9165 
 477   0.0000       3.382089        92.0313 
 478   0.0000       3.387864        92.1885 
 479   0.0000       3.390959        92.2727 
 480   0.0000       3.394454        92.3678 
 481   0.0000       3.400433        92.5305 
 482   0.0000       3.408313        92.7449 
 483   0.0000       3.410033        92.7917 
 484   0.0000       3.416775        92.9752 
 485   0.0000       3.421713        93.1096 
 486   0.0000       3.430550        93.3500 
 487   0.0000       3.436799        93.5200 
 488   0.0000       3.444413        93.7272 
 489   0.0000       3.447555        93.8127 
 490   0.0000       3.454770        94.0091 
 491   0.0000       3.460730        94.1712 
 492   0.0000       3.462221        94.2118 
 493   0.0000       3.468020        94.3696 
 494   0.0000       3.475117        94.5627 
 495   0.0000       3.485044        94.8329 
 496   0.0000       3.487281        94.8938 
 497   0.0000       3.491037        94.9959 
 498   0.0000       3.495506        95.1175 
 499   0.0000       3.508238        95.4640 
 500   0.0000       3.519056        95.7584 
 501   0.0000       3.522912        95.8633 
 502   0.0000       3.525476        95.9331 
 503   0.0000       3.537278        96.2542 
 504   0.0000       3.541118        96.3587 
 505   0.0000       3.546019        96.4921 
 506   0.0000       3.557265        96.7981 
 507   0.0000       3.561619        96.9166 
 508   0.0000       3.568057        97.0918 
 509   0.0000       3.579090        97.3920 
 510   0.0000       3.591703        97.7352 
 511   0.0000       3.597029        97.8801 
 512   0.0000       3.608807        98.2006 
 513   0.0000       3.613848        98.3378 
 514   0.0000       3.619146        98.4820 
 515   0.0000       3.625403        98.6522 
 516   0.0000       3.628133        98.7265 
 517   0.0000       3.633310        98.8674 
 518   0.0000       3.635740        98.9335 
 519   0.0000       3.638521        99.0092 
 520   0.0000       3.645995        99.2126 
 521   0.0000       3.658246        99.5459 
 522   0.0000       3.665781        99.7510 
 523   0.0000       3.668800        99.8331 
 524   0.0000       3.676813       100.0512 
 525   0.0000       3.681054       100.1666 
 526   0.0000       3.683372       100.2297 
 527   0.0000       3.691059       100.4388 
 528   0.0000       3.695966       100.5724 
 529   0.0000       3.704335       100.8001 
 530   0.0000       3.708501       100.9134 
 531   0.0000       3.721637       101.2709 
 532   0.0000       3.723656       101.3258 
 533   0.0000       3.728793       101.4656 
 534   0.0000       3.742224       101.8311 
 535   0.0000       3.748258       101.9953 
 536   0.0000       3.755285       102.1865 
 537   0.0000       3.759358       102.2973 
 538   0.0000       3.770265       102.5941 
 539   0.0000       3.771774       102.6352 
 540   0.0000       3.779274       102.8393 
 541   0.0000       3.788013       103.0771 
 542   0.0000       3.798805       103.3708 
 543   0.0000       3.799823       103.3984 
 544   0.0000       3.813738       103.7771 
 545   0.0000       3.818360       103.9029 
 546   0.0000       3.822863       104.0254 
 547   0.0000       3.825676       104.1019 
 548   0.0000       3.831674       104.2651 
 549   0.0000       3.835525       104.3699 
 550   0.0000       3.845429       104.6394 
 551   0.0000       3.855431       104.9116 
 552   0.0000       3.865271       105.1794 
 553   0.0000       3.867638       105.2438 
 554   0.0000       3.873667       105.4078 
 555   0.0000       3.880252       105.5870 
 556   0.0000       3.885138       105.7200 
 557   0.0000       3.901797       106.1733 
 558   0.0000       3.914415       106.5167 
 559   0.0000       3.926073       106.8339 
 560   0.0000       3.937489       107.1445 
 561   0.0000       3.943585       107.3104 
 562   0.0000       3.954568       107.6093 
 563   0.0000       3.967184       107.9526 
 564   0.0000       3.984897       108.4346 
 565   0.0000       3.990562       108.5887 
 566   0.0000       3.998761       108.8118 
 567   0.0000       4.004869       108.9780 
 568   0.0000       4.008455       109.0756 
 569   0.0000       4.023819       109.4937 
 570   0.0000       4.030362       109.6717 
 571   0.0000       4.041062       109.9629 
 572   0.0000       4.048861       110.1751 
 573   0.0000       4.058062       110.4255 
 574   0.0000       4.065656       110.6321 
 575   0.0000       4.077609       110.9574 
 576   0.0000       4.086517       111.1998 
 577   0.0000       4.091212       111.3275 
 578   0.0000       4.102994       111.6481 
 579   0.0000       4.103940       111.6739 
 580   0.0000       4.114115       111.9508 
 581   0.0000       4.130011       112.3833 
 582   0.0000       4.134154       112.4961 
 583   0.0000       4.138914       112.6256 
 584   0.0000       4.148588       112.8888 
 585   0.0000       4.153237       113.0153 
 586   0.0000       4.157351       113.1273 
 587   0.0000       4.168727       113.4368 
 588   0.0000       4.176762       113.6555 
 589   0.0000       4.177897       113.6863 
 590   0.0000       4.180678       113.7620 
 591   0.0000       4.190438       114.0276 
 592   0.0000       4.196996       114.2061 
 593   0.0000       4.200242       114.2944 
 594   0.0000       4.206884       114.4751 
 595   0.0000       4.214687       114.6875 
 596   0.0000       4.219254       114.8117 
 597   0.0000       4.226418       115.0067 
 598   0.0000       4.226609       115.0119 
 599   0.0000       4.235196       115.2455 
 600   0.0000       4.242458       115.4431 
 601   0.0000       4.252013       115.7032 
 602   0.0000       4.259306       115.9016 
 603   0.0000       4.266537       116.0984 
 604   0.0000       4.276048       116.3572 
 605   0.0000       4.285295       116.6088 
 606   0.0000       4.299464       116.9944 
 607   0.0000       4.306705       117.1914 
 608   0.0000       4.323383       117.6452 
 609   0.0000       4.329090       117.8005 
 610   0.0000       4.330691       117.8441 
 611   0.0000       4.336102       117.9913 
 612   0.0000       4.342533       118.1663 
 613   0.0000       4.346319       118.2693 
 614   0.0000       4.355593       118.5217 
 615   0.0000       4.379983       119.1854 
 616   0.0000       4.383609       119.2841 
 617   0.0000       4.391135       119.4889 
 618   0.0000       4.394188       119.5719 
 619   0.0000       4.407209       119.9263 
 620   0.0000       4.414166       120.1156 
 621   0.0000       4.425401       120.4213 
 622   0.0000       4.434006       120.6554 
 623   0.0000       4.436590       120.7257 
 624   0.0000       4.448463       121.0488 
 625   0.0000       4.457502       121.2948 
 626   0.0000       4.468729       121.6003 
 627   0.0000       4.472092       121.6918 
 628   0.0000       4.477300       121.8335 
 629   0.0000       4.482475       121.9744 
 630   0.0000       4.494931       122.3133 
 631   0.0000       4.503130       122.5364 
 632   0.0000       4.513829       122.8275 
 633   0.0000       4.526385       123.1692 
 634   0.0000       4.538268       123.4926 
 635   0.0000       4.547158       123.7344 
 636   0.0000       4.552060       123.8679 
 637   0.0000       4.561322       124.1199 
 638   0.0000       4.567719       124.2940 
 639   0.0000       4.571212       124.3890 
 640   0.0000       4.579593       124.6171 
 641   0.0000       4.586223       124.7975 
 642   0.0000       4.593886       125.0060 
 643   0.0000       4.606896       125.3600 
 644   0.0000       4.612336       125.5081 
 645   0.0000       4.620698       125.7356 
 646   0.0000       4.627744       125.9273 
 647   0.0000       4.634438       126.1095 
 648   0.0000       4.645434       126.4087 
 649   0.0000       4.654094       126.6443 
 650   0.0000       4.661128       126.8358 
 651   0.0000       4.662918       126.8845 
 652   0.0000       4.672143       127.1355 
 653   0.0000       4.688001       127.5670 
 654   0.0000       4.696945       127.8104 
 655   0.0000       4.701603       127.9371 
 656   0.0000       4.708563       128.1265 
 657   0.0000       4.727616       128.6450 
 658   0.0000       4.741176       129.0140 
 659   0.0000       4.745743       129.1382 
 660   0.0000       4.762438       129.5925 
 661   0.0000       4.775520       129.9485 
 662   0.0000       4.788016       130.2885 
 663   0.0000       4.793257       130.4311 
 664   0.0000       4.808450       130.8446 
 665   0.0000       4.813705       130.9876 
 666   0.0000       4.825513       131.3089 
 667   0.0000       4.848167       131.9253 
 668   0.0000       4.883447       132.8853 
 669   0.0000       4.890027       133.0644 
 670   0.0000       4.910998       133.6350 
 671   0.0000       4.920678       133.8985 
 672   0.0000       4.944742       134.5533 
 673   0.0000       4.953759       134.7986 
 674   0.0000       4.993321       135.8752 
 675   0.0000       5.007637       136.2647 
 676   0.0000       5.014188       136.4430 
 677   0.0000       5.029238       136.8525 
 678   0.0000       5.039315       137.1267 
 679   0.0000       5.049746       137.4106 
 680   0.0000       5.055872       137.5773 
 681   0.0000       5.058966       137.6615 
 682   0.0000       5.069518       137.9486 
 683   0.0000       5.080522       138.2480 
 684   0.0000       5.083851       138.3386 
 685   0.0000       5.105432       138.9259 
 686   0.0000       5.113259       139.1389 
 687   0.0000       5.132999       139.6760 
 688   0.0000       5.156547       140.3168 
 689   0.0000       5.163408       140.5035 
 690   0.0000       5.171609       140.7266 
 691   0.0000       5.182809       141.0314 
 692   0.0000       5.192009       141.2818 
 693   0.0000       5.203450       141.5931 
 694   0.0000       5.207609       141.7062 
 695   0.0000       5.212990       141.8527 
 696   0.0000       5.221584       142.0865 
 697   0.0000       5.226077       142.2088 
 698   0.0000       5.232617       142.3868 
 699   0.0000       5.247715       142.7976 
 700   0.0000       5.274760       143.5335 
 701   0.0000       5.282593       143.7467 
 702   0.0000       5.293990       144.0568 
 703   0.0000       5.313764       144.5949 
 704   0.0000       5.321369       144.8018 
 705   0.0000       5.325376       144.9108 
 706   0.0000       5.343781       145.4117 
 707   0.0000       5.361562       145.8955 
 708   0.0000       5.367388       146.0541 
 709   0.0000       5.387307       146.5961 
 710   0.0000       5.413077       147.2973 
 711   0.0000       5.431838       147.8078 
 712   0.0000       5.442240       148.0909 
 713   0.0000       5.454705       148.4301 
 714   0.0000       5.472803       148.9225 
 715   0.0000       5.477574       149.0524 
 716   0.0000       5.490122       149.3938 
 717   0.0000       5.511395       149.9727 
 718   0.0000       5.523610       150.3051 
 719   0.0000       5.528987       150.4514 
 720   0.0000       5.545024       150.8878 
 721   0.0000       5.550776       151.0443 
 722   0.0000       5.559084       151.2704 
 723   0.0000       5.566245       151.4652 
 724   0.0000       5.579332       151.8213 
 725   0.0000       5.588633       152.0744 
 726   0.0000       5.597350       152.3116 
 727   0.0000       5.623532       153.0241 
 728   0.0000       5.630252       153.2070 
 729   0.0000       5.649381       153.7275 
 730   0.0000       5.664043       154.1264 
 731   0.0000       5.675304       154.4329 
 732   0.0000       5.683440       154.6543 
 733   0.0000       5.694658       154.9595 
 734   0.0000       5.703684       155.2051 
 735   0.0000       5.712007       155.4316 
 736   0.0000       5.725008       155.7854 
 737   0.0000       5.754619       156.5911 
 738   0.0000       5.755728       156.6213 
 739   0.0000       5.765169       156.8782 
 740   0.0000       5.791570       157.5966 
 741   0.0000       5.797945       157.7701 
 742   0.0000       5.804079       157.9370 
 743   0.0000       5.823184       158.4569 
 744   0.0000       5.826549       158.5485 
 745   0.0000       5.848420       159.1436 
 746   0.0000       5.877083       159.9236 
 747   0.0000       5.906971       160.7369 
 748   0.0000       5.918635       161.0542 
 749   0.0000       5.936605       161.5432 
 750   0.0000       5.953998       162.0165 
 751   0.0000       5.971840       162.5020 
 752   0.0000       5.975868       162.6116 
 753   0.0000       5.979830       162.7194 
 754   0.0000       6.034429       164.2052 
 755   0.0000       6.041231       164.3903 
 756   0.0000       6.054286       164.7455 
 757   0.0000       6.072941       165.2531 
 758   0.0000       6.087072       165.6377 
 759   0.0000       6.108419       166.2185 
 760   0.0000       6.130918       166.8308 
 761   0.0000       6.157197       167.5459 
 762   0.0000       6.171686       167.9401 
 763   0.0000       6.200954       168.7365 
 764   0.0000       6.237678       169.7359 
 765   0.0000       6.281888       170.9389 
 766   0.0000       6.293888       171.2654 
 767   0.0000       6.325205       172.1176 
 768   0.0000       6.343891       172.6260 
 769   0.0000       6.351345       172.8289 
 770   0.0000       6.354476       172.9141 
 771   0.0000       6.379918       173.6064 
 772   0.0000       6.394566       174.0050 
 773   0.0000       6.462738       175.8600 
 774   0.0000       6.463884       175.8912 
 775   0.0000       6.495647       176.7555 
 776   0.0000       6.504343       176.9922 
 777   0.0000       6.536107       177.8565 
 778   0.0000       6.548860       178.2035 
 779   0.0000       6.571131       178.8096 
 780   0.0000       6.632057       180.4674 
 781   0.0000       6.687307       181.9709 
 782   0.0000       6.699267       182.2963 
 783   0.0000       6.738575       183.3660 
 784   0.0000       6.751018       183.7045 
 785   0.0000       6.878362       187.1697 
 786   0.0000       6.913239       188.1188 
 787   0.0000       6.915685       188.1854 
 788   0.0000       6.917142       188.2250 
 789   0.0000       7.047355       191.7683 
 790   0.0000       7.055374       191.9865 
 791   0.0000       7.077278       192.5825 
 792   0.0000       7.080251       192.6634 
 793   0.0000       7.103986       193.3093 
 794   0.0000       7.250697       197.3015 
 795   0.0000       7.255966       197.4449 
 796   0.0000       7.280222       198.1049 
 797   0.0000       7.313620       199.0137 
 798   0.0000       7.345820       199.8899 
 799   0.0000       7.363634       200.3747 
 800   0.0000       7.457183       202.9203 
 801   0.0000       7.480599       203.5574 
 802   0.0000       7.582661       206.3347 
 803   0.0000       7.592827       206.6113 
 804   0.0000       7.696913       209.4437 
 805   0.0000       7.824269       212.9092 
 806   0.0000       7.861106       213.9116 
 807   0.0000       7.930565       215.8016 
 808   0.0000       7.971730       216.9218 
 809   0.0000       9.411211       256.0921 
 810   0.0000       9.589471       260.9428 
 811   0.0000      10.577187       287.8199 
 812   0.0000      11.318288       307.9863 
 813   0.0000      11.976507       325.8973 
 814   0.0000      12.691628       345.3567 
 815   0.0000      12.922517       351.6396 
 816   0.0000      12.991209       353.5088 
 817   0.0000      13.164070       358.2126 
 818   0.0000      13.237657       360.2149 
 819   0.0000      13.384011       364.1974 
 820   0.0000      13.433556       365.5457 
 821   0.0000      13.734415       373.7324 
 822   0.0000      13.837438       376.5358 
 823   0.0000      14.035181       381.9167 
 824   0.0000      14.066195       382.7606 
 825   0.0000      14.263634       388.1332 
 826   0.0000      14.655979       398.8095 
 827   0.0000      15.998859       435.3511 

                    ********************************
                    * MULLIKEN POPULATION ANALYSIS *
                    ********************************

-----------------------
MULLIKEN ATOMIC CHARGES
-----------------------
   0 C :   -0.278592
   1 C :    0.042431
   2 O :   -0.327168
   3 C :    0.455775
   4 O :   -0.436292
   5 C :   -0.150071
   6 C :    0.121111
   7 C :   -0.267777
   8 N :   -0.147420
   9 C :    0.213475
  10 S :   -0.433395
  11 N :   -0.203903
  12 C :    0.015007
  13 C :    0.062372
  14 C :   -0.209924
  15 C :   -0.134890
  16 C :   -0.275027
  17 C :    0.295079
  18 O :   -0.363659
  19 C :   -0.213699
  20 H :    0.103413
  21 H :    0.102156
  22 H :    0.095407
  23 H :    0.096198
  24 H :    0.092922
  25 H :    0.126871
  26 H :    0.092310
  27 H :    0.137526
  28 H :    0.197813
  29 H :    0.203961
  30 H :    0.129241
  31 H :    0.147343
  32 H :    0.163931
  33 H :    0.133057
  34 H :    0.241816
  35 H :    0.172602
Sum of atomic charges:   -0.0000000

--------------------------------
MULLIKEN REDUCED ORBITAL CHARGES
--------------------------------
  0 C s       :     3.255008  s :     3.255008
      pz      :     0.984518  p :     2.944811
      px      :     1.018128
      py      :     0.942165
      dz2     :     0.024215  d :     0.074277
      dxz     :     0.005965
      dyz     :     0.014725
      dx2y2   :     0.008958
      dxy     :     0.020415
      f0      :     0.000912  f :     0.004496
      f+1     :     0.000158
      f-1     :     0.000963
      f+2     :     0.000709
      f-2     :     0.000335
      f+3     :     0.000269
      f-3     :     0.001150
  1 C s       :     3.172732  s :     3.172732
      pz      :     0.971746  p :     2.623846
      px      :     0.775553
      py      :     0.876548
      dz2     :     0.037801  d :     0.149324
      dxz     :     0.017762
      dyz     :     0.023653
      dx2y2   :     0.027210
      dxy     :     0.042898
      f0      :     0.001359  f :     0.011668
      f+1     :     0.001375
      f-1     :     0.001506
      f+2     :     0.001271
      f-2     :     0.001738
      f+3     :     0.002209
      f-3     :     0.002210
  2 O s       :     3.708170  s :     3.708170
      pz      :     1.687560  p :     4.581357
      px      :     1.530292
      py      :     1.363505
      dz2     :     0.004186  d :     0.035350
      dxz     :     0.005930
      dyz     :     0.009309
      dx2y2   :     0.010126
      dxy     :     0.005798
      f0      :     0.000249  f :     0.002291
      f+1     :     0.000119
      f-1     :     0.000279
      f+2     :     0.000394
      f-2     :     0.000348
      f+3     :     0.000398
      f-3     :     0.000503
  3 C s       :     3.060926  s :     3.060926
      pz      :     0.705886  p :     2.154779
      px      :     0.775680
      py      :     0.673212
      dz2     :     0.069353  d :     0.302114
      dxz     :     0.047213
      dyz     :     0.068339
      dx2y2   :     0.069934
      dxy     :     0.047275
      f0      :     0.003633  f :     0.026406
      f+1     :     0.002844
      f-1     :     0.004353
      f+2     :     0.004682
      f-2     :     0.004321
      f+3     :     0.003405
      f-3     :     0.003168
  4 O s       :     3.767744  s :     3.767744
      pz      :     1.391411  p :     4.631233
      px      :     1.547768
      py      :     1.692053
      dz2     :     0.011271  d :     0.034909
      dxz     :     0.009366
      dyz     :     0.006060
      dx2y2   :     0.003207
      dxy     :     0.005005
      f0      :     0.000434  f :     0.002406
      f+1     :     0.000571
      f-1     :     0.000304
      f+2     :     0.000338
      f-2     :     0.000492
      f+3     :     0.000112
      f-3     :     0.000156
  5 C s       :     3.174133  s :     3.174133
      pz      :     0.935870  p :     2.890219
      px      :     0.995423
      py      :     0.958926
      dz2     :     0.020791  d :     0.075360
      dxz     :     0.010936
      dyz     :     0.019815
      dx2y2   :     0.010883
      dxy     :     0.012935
      f0      :     0.001062  f :     0.010359
      f+1     :     0.001464
      f-1     :     0.001520
      f+2     :     0.001171
      f-2     :     0.002022
      f+3     :     0.001102
      f-3     :     0.002018
  6 C s       :     3.208381  s :     3.208381
      pz      :     0.922479  p :     2.482269
      px      :     0.754851
      py      :     0.804939
      dz2     :     0.032765  d :     0.173949
      dxz     :     0.031778
      dyz     :     0.036865
      dx2y2   :     0.047718
      dxy     :     0.024822
      f0      :     0.001462  f :     0.014290
      f+1     :     0.001472
      f-1     :     0.002634
      f+2     :     0.002330
      f-2     :     0.002674
      f+3     :     0.001457
      f-3     :     0.002262
  7 C s       :     3.267668  s :     3.267668
      pz      :     0.894641  p :     2.925262
      px      :     1.022219
      py      :     1.008402
      dz2     :     0.016565  d :     0.070172
      dxz     :     0.010160
      dyz     :     0.018218
      dx2y2   :     0.006189
      dxy     :     0.019041
      f0      :     0.000681  f :     0.004675
      f+1     :     0.000680
      f-1     :     0.001337
      f+2     :     0.000413
      f-2     :     0.000665
      f+3     :     0.000150
      f-3     :     0.000750
  8 N s       :     3.358611  s :     3.358611
      pz      :     1.038323  p :     3.724541
      px      :     1.439019
      py      :     1.247198
      dz2     :     0.017063  d :     0.059473
      dxz     :     0.012399
      dyz     :     0.016587
      dx2y2   :     0.006806
      dxy     :     0.006617
      f0      :     0.001203  f :     0.004795
      f+1     :     0.000763
      f-1     :     0.000799
      f+2     :     0.000252
      f-2     :     0.000703
      f+3     :     0.000621
      f-3     :     0.000455
  9 C s       :     3.154531  s :     3.154531
      pz      :     0.783235  p :     2.357802
      px      :     0.709948
      py      :     0.864618
      dz2     :     0.063600  d :     0.256814
      dxz     :     0.048061
      dyz     :     0.059020
      dx2y2   :     0.047892
      dxy     :     0.038240
      f0      :     0.003052  f :     0.017379
      f+1     :     0.002923
      f-1     :     0.003664
      f+2     :     0.001864
      f-2     :     0.001769
      f+3     :     0.001470
      f-3     :     0.002636
 10 S s       :     5.855643  s :     5.855643
      pz      :     3.668004  p :    10.482495
      px      :     3.493081
      py      :     3.321410
      dz2     :     0.005316  d :     0.085135
      dxz     :     0.012585
      dyz     :     0.028942
      dx2y2   :     0.016821
      dxy     :     0.021471
      f0      :     0.001451  f :     0.010122
      f+1     :     0.000300
      f-1     :     0.000946
      f+2     :     0.001819
      f-2     :     0.002748
      f+3     :     0.001535
      f-3     :     0.001324
 11 N s       :     3.385875  s :     3.385875
      pz      :     1.085004  p :     3.756331
      px      :     1.585618
      py      :     1.085709
      dz2     :     0.015381  d :     0.057186
      dxz     :     0.004640
      dyz     :     0.016261
      dx2y2   :     0.010254
      dxy     :     0.010650
      f0      :     0.000674  f :     0.004510
      f+1     :     0.000206
      f-1     :     0.000662
      f+2     :     0.000711
      f-2     :     0.000659
      f+3     :     0.000816
      f-3     :     0.000782
 12 C s       :     3.180476  s :     3.180476
      pz      :     0.839383  p :     2.617770
      px      :     1.001975
      py      :     0.776412
      dz2     :     0.035509  d :     0.175476
      dxz     :     0.029840
      dyz     :     0.037904
      dx2y2   :     0.032568
      dxy     :     0.039655
      f0      :     0.001304  f :     0.011271
      f+1     :     0.001046
      f-1     :     0.001833
      f+2     :     0.002186
      f-2     :     0.002005
      f+3     :     0.001596
      f-3     :     0.001301
 13 C s       :     3.103641  s :     3.103641
      pz      :     0.893196  p :     2.710625
      px      :     0.907941
      py      :     0.909488
      dz2     :     0.019020  d :     0.112071
      dxz     :     0.012760
      dyz     :     0.030702
      dx2y2   :     0.025868
      dxy     :     0.023721
      f0      :     0.001148  f :     0.011291
      f+1     :     0.001662
[...]
      f+2     :     0.005853
      f-2     :     0.006121
      f+3     :     0.006120
      f-3     :     0.009685
 15 C s       :     2.705406  s :     2.705406
      pz      :     0.900372  p :     2.792662
      px      :     0.927715
      py      :     0.964574
      dz2     :     0.096460  d :     0.416422
      dxz     :     0.065777
      dyz     :     0.061883
      dx2y2   :     0.090188
      dxy     :     0.102113
      f0      :     0.003161  f :     0.041102
      f+1     :     0.005389
      f-1     :     0.006267
      f+2     :     0.006667
      f-2     :     0.006879
      f+3     :     0.006427
      f-3     :     0.006312
 16 C s       :     2.701655  s :     2.701655
      pz      :     0.938368  p :     2.866901
      px      :     0.963339
      py      :     0.965194
      dz2     :     0.047074  d :     0.390493
      dxz     :     0.057748
      dyz     :     0.088360
      dx2y2   :     0.093055
      dxy     :     0.104256
      f0      :     0.004837  f :     0.040330
      f+1     :     0.005175
      f-1     :     0.002977
      f+2     :     0.005133
      f-2     :     0.006658
      f+3     :     0.006852
      f-3     :     0.008698
 17 C s       :     2.701987  s :     2.701987
      pz      :     0.835442  p :     2.682325
      px      :     0.819031
      py      :     1.027852
      dz2     :     0.130948  d :     0.709132
      dxz     :     0.119023
      dyz     :     0.132909
      dx2y2   :     0.167680
      dxy     :     0.158571
      f0      :     0.010362  f :     0.099258
      f+1     :     0.017055
      f-1     :     0.008550
      f+2     :     0.014110
      f-2     :     0.017154
      f+3     :     0.012990
      f-3     :     0.019036
 18 O s       :     3.177002  s :     3.177002
      pz      :     1.445383  p :     4.346820
      px      :     1.438297
      py      :     1.463140
      dz2     :     0.009080  d :     0.075576
      dxz     :     0.018256
      dyz     :     0.016313
      dx2y2   :     0.019644
      dxy     :     0.012282
      f0      :     0.000600  f :     0.005067
      f+1     :     0.000837
      f-1     :     0.000280
      f+2     :     0.000931
      f-2     :     0.000836
      f+3     :     0.000672
      f-3     :     0.000910
 19 C s       :     2.696080  s :     2.696080
      pz      :     0.936689  p :     2.847424
      px      :     0.947584
      py      :     0.963151
      dz2     :     0.076319  d :     0.387015
      dxz     :     0.064284
      dyz     :     0.065995
      dx2y2   :     0.080904
      dxy     :     0.099513
      f0      :     0.003248  f :     0.040663
      f+1     :     0.005457
      f-1     :     0.005765
      f+2     :     0.006803
      f-2     :     0.007316
      f+3     :     0.006218
      f-3     :     0.005855
 20 H s       :     0.847415  s :     0.847415
      pz      :     0.041997  p :     0.150943
      px      :     0.059307
      py      :     0.049639
      dz2     :     0.003714  d :     0.027387
      dxz     :     0.005060
      dyz     :     0.003616
      dx2y2   :     0.008134
      dxy     :     0.006863
 21 H s       :     0.847098  s :     0.847098
      pz      :     0.072841  p :     0.153027
      px      :     0.039925
      py      :     0.040261
      dz2     :     0.009390  d :     0.027626
      dxz     :     0.008287
      dyz     :     0.008344
      dx2y2   :     0.000470
      dxy     :     0.001135
 22 H s       :     0.849132  s :     0.849132
      pz      :     0.039113  p :     0.151066
      px      :     0.062877
      py      :     0.049076
      dz2     :     0.002541  d :     0.027570
      dxz     :     0.005996
      dyz     :     0.003042
      dx2y2   :     0.008437
      dxy     :     0.007554
 23 H s       :     0.857236  s :     0.857236
      pz      :     0.078393  p :     0.145050
      px      :     0.028424
      py      :     0.038232
      dz2     :     0.010301  d :     0.026992
      dxz     :     0.006329
      dyz     :     0.008913
      dx2y2   :     0.000359
      dxy     :     0.001089
 24 H s       :     0.856901  s :     0.856901
      pz      :     0.037508  p :     0.144842
      px      :     0.060548
      py      :     0.046786
      dz2     :     0.002968  d :     0.026982
      dxz     :     0.005995
      dyz     :     0.003191
      dx2y2   :     0.007112
      dxy     :     0.007717
 25 H s       :     0.829512  s :     0.829512
      pz      :     0.052740  p :     0.150015
      px      :     0.040072
      py      :     0.057203
      dz2     :     0.007149  d :     0.027729
      dxz     :     0.004180
      dyz     :     0.007192
      dx2y2   :     0.003634
      dxy     :     0.005573
 26 H s       :     0.845546  s :     0.845546
      pz      :     0.040504  p :     0.150687
      px      :     0.053814
      py      :     0.056369
      dz2     :     0.003617  d :     0.027697
      dxz     :     0.004431
      dyz     :     0.005239
      dx2y2   :     0.008323
      dxy     :     0.006087
 27 H s       :     0.823472  s :     0.823472
      pz      :     0.036961  p :     0.151425
      px      :     0.069572
      py      :     0.044892
      dz2     :     0.002358  d :     0.027712
      dxz     :     0.006704
      dyz     :     0.002148
      dx2y2   :     0.008117
      dxy     :     0.008386
 28 H s       :     0.744757  s :     0.744757
      pz      :     0.057649  p :     0.252512
      px      :     0.085425
      py      :     0.109438
      dz2     :     0.009098  d :     0.061660
      dxz     :     0.007759
      dyz     :     0.013708
      dx2y2   :     0.017097
      dxy     :     0.013998
 29 H s       :     0.750761  s :     0.750761
      pz      :     0.122483  p :     0.257546
      px      :     0.087672
      py      :     0.047391
      dz2     :     0.020883  d :     0.061180
      dxz     :     0.023726
      dyz     :     0.016317
      dx2y2   :     0.000129
      dxy     :     0.000124
 30 H s       :     0.832638  s :     0.832638
      pz      :     0.041109  p :     0.154180
      px      :     0.076488
      py      :     0.036583
      dz2     :     0.003085  d :     0.029471
      dxz     :     0.008736
      dyz     :     0.001919
      dx2y2   :     0.007886
      dxy     :     0.007845
 31 H s       :     0.844262  s :     0.844262
      pz      :     0.056938  p :     0.157457
      px      :     0.066615
      py      :     0.033903
      dz2     :     0.005718  d :     0.027540
      dxz     :     0.007401
      dyz     :     0.003327
      dx2y2   :     0.005363
      dxy     :     0.005732
 32 H s       :     0.842508  s :     0.842508
      pz      :     0.036842  p :     0.151396
      px      :     0.044487
      py      :     0.070067
      dz2     :     0.002605  d :     0.026489
      dxz     :     0.001637
      dyz     :     0.006375
      dx2y2   :     0.007992
      dxy     :     0.007880
 33 H s       :     0.848408  s :     0.848408
      pz      :     0.056414  p :     0.159343
      px      :     0.043686
      py      :     0.059243
      dz2     :     0.005841  d :     0.027790
      dxz     :     0.003775
      dyz     :     0.006799
      dx2y2   :     0.005791
      dxy     :     0.005584
 34 H s       :     0.706371  s :     0.706371
      pz      :     0.105610  p :     0.347890
      px      :     0.082452
      py      :     0.159827
      dz2     :     0.019881  d :     0.099590
      dxz     :     0.008393
      dyz     :     0.025991
      dx2y2   :     0.022346
      dxy     :     0.022979
 35 H s       :     0.838442  s :     0.838442
      pz      :     0.040234  p :     0.158089
      px      :     0.046803
      py      :     0.071051
      dz2     :     0.002594  d :     0.027987
      dxz     :     0.001935
      dyz     :     0.006920
      dx2y2   :     0.008431
      dxy     :     0.008107


                      *****************************
                      * MAYER POPULATION ANALYSIS *
                      *****************************

  NA   - Mulliken gross atomic population
  ZA   - Total nuclear charge
  QA   - Mulliken gross atomic charge
  VA   - Mayer's total valence
  BVA  - Mayer's bonded valence
  FA   - Mayer's free valence

  ATOM       NA         ZA         QA         VA         BVA        FA
  0 C      6.2786     6.0000    -0.2786     3.8834     3.8834    -0.0000
  1 C      5.9576     6.0000     0.0424     3.8733     3.8733     0.0000
  2 O      8.3272     8.0000    -0.3272     2.0771     2.0771    -0.0000
  3 C      5.5442     6.0000     0.4558     4.1970     4.1970    -0.0000
  4 O      8.4363     8.0000    -0.4363     2.0727     2.0727    -0.0000
  5 C      6.1501     6.0000    -0.1501     3.6113     3.6113     0.0000
  6 C      5.8789     6.0000     0.1211     3.8688     3.8688    -0.0000
  7 C      6.2678     6.0000    -0.2678     3.9081     3.9081     0.0000
  8 N      7.1474     7.0000    -0.1474     3.2936     3.2936    -0.0000
  9 C      5.7865     6.0000     0.2135     4.1661     4.1661     0.0000
 10 S     16.4334    16.0000    -0.4334     1.7615     1.7615     0.0000
 11 N      7.2039     7.0000    -0.2039     3.2124     3.2124    -0.0000
 12 C      5.9850     6.0000     0.0150     3.9646     3.9646    -0.0000
 13 C      5.9376     6.0000     0.0624     3.7601     3.7601     0.0000
 14 C      6.2099     6.0000    -0.2099     3.8904     3.8904    -0.0000
 15 C      6.1349     6.0000    -0.1349     3.8004     3.8004    -0.0000
 16 C      6.2750     6.0000    -0.2750     3.7914     3.7914    -0.0000
 17 C      5.7049     6.0000     0.2951     3.8572     3.8572    -0.0000
 18 O      8.3637     8.0000    -0.3637     2.1077     2.1077     0.0000
 19 C      6.2137     6.0000    -0.2137     3.8063     3.8063     0.0000
 20 H      0.8966     1.0000     0.1034     0.9823     0.9823    -0.0000
 21 H      0.8978     1.0000     0.1022     0.9758     0.9758    -0.0000
 22 H      0.9046     1.0000     0.0954     0.9857     0.9857    -0.0000
 23 H      0.9038     1.0000     0.0962     0.9822     0.9822    -0.0000
 24 H      0.9071     1.0000     0.0929     0.9808     0.9808     0.0000
 25 H      0.8731     1.0000     0.1269     0.9826     0.9826    -0.0000
 26 H      0.9077     1.0000     0.0923     0.9841     0.9841     0.0000
 27 H      0.8625     1.0000     0.1375     0.9792     0.9792     0.0000
 28 H      0.8022     1.0000     0.1978     1.0211     1.0211    -0.0000
 29 H      0.7960     1.0000     0.2040     1.0124     1.0124     0.0000
 30 H      0.8708     1.0000     0.1292     0.9775     0.9775    -0.0000
 31 H      0.8527     1.0000     0.1473     0.9879     0.9879    -0.0000
 32 H      0.8361     1.0000     0.1639     0.9760     0.9760    -0.0000
 33 H      0.8669     1.0000     0.1331     0.9906     0.9906    -0.0000
 34 H      0.7582     1.0000     0.2418     1.0095     1.0095    -0.0000
 35 H      0.8274     1.0000     0.1726     0.9890     0.9890     0.0000

  Mayer bond orders larger than 0.100000
B(  0-C ,  1-C ) :   0.9716 B(  0-C , 20-H ) :   0.9809 B(  0-C , 21-H ) :   0.9756 
B(  0-C , 22-H ) :   0.9752 B(  1-C ,  2-O ) :   0.9065 B(  1-C , 23-H ) :   0.9799 
B(  1-C , 24-H ) :   0.9771 B(  2-O ,  3-C ) :   1.1877 B(  3-C ,  4-O ) :   1.9569 
B(  3-C ,  5-C ) :   1.0253 B(  5-C ,  6-C ) :   1.6901 B(  5-C , 12-C ) :   0.9284 
B(  6-C ,  7-C ) :   0.9748 B(  6-C ,  8-N ) :   1.1275 B(  7-C , 25-H ) :   0.9677 
B(  7-C , 26-H ) :   0.9851 B(  7-C , 27-H ) :   0.9540 B(  8-N ,  9-C ) :   1.1901 
B(  8-N , 28-H ) :   0.9510 B(  9-C , 10-S ) :   1.6139 B(  9-C , 11-N ) :   1.3048 
B( 11-N , 12-C ) :   0.9429 B( 11-N , 29-H ) :   0.9377 B( 12-C , 13-C ) :   1.0279 
B( 12-C , 30-H ) :   0.9934 B( 13-C , 14-C ) :   1.3735 B( 13-C , 19-C ) :   1.3320 
B( 14-C , 15-C ) :   1.3982 B( 14-C , 31-H ) :   0.9753 B( 15-C , 16-C ) :   1.3547 
B( 15-C , 32-H ) :   0.9706 B( 16-C , 17-C ) :   1.3360 B( 16-C , 33-H ) :   0.9848 
B( 17-C , 18-O ) :   1.0924 B( 17-C , 19-C ) :   1.3686 B( 18-O , 34-H ) :   0.9791 
B( 19-C , 35-H ) :   0.9561 

-------
TIMINGS
-------

Total SCF time: 0 days 1 hours 31 min 10 sec 

Total time                  ....    5470.461 sec
Sum of individual times     ....    5464.640 sec  ( 99.9%)

Fock matrix formation       ....    5453.263 sec  ( 99.7%)
Diagonalization             ....       1.173 sec  (  0.0%)
Density matrix formation    ....       0.210 sec  (  0.0%)
Population analysis         ....       0.295 sec  (  0.0%)
Initial guess               ....       4.639 sec  (  0.1%)
Orbital Transformation      ....       0.000 sec  (  0.0%)
Orbital Orthonormalization  ....       0.000 sec  (  0.0%)
DIIS solution               ....       1.855 sec  (  0.0%)
SOSCF solution              ....       1.936 sec  (  0.0%)

------------------------------------------------------------------------------
                                ORCA  MP2 
------------------------------------------------------------------------------

Freezing NCore=48 chemical core electrons

-------------
RI-MP2 ENERGY
-------------
Dimension of the basis                    ...  828
Memory devoted to MP2                     ...  256 MB   
Data format for buffers                   ... DOUBLE
Compression type for matrix containers    ... UNCOMPRESSED
Overall scaling of the MP2 energy         ...   1.000e+00
Calculating two index integrals           ... done (    0.041 sec)
Cholesky decomposition of V**-1           ... done (    0.332 sec)

-----------------
RI-TRANSFORMATION (AUX index driven)
-----------------

Dimension of the orbital-basis         ... 828
Dimension of the aux-basis             ... 2141
Transformation of internal/external MOs...   24-  76 to   77- 827
Number Format for Storage              ... Double (8 Byte)
Integral mode                          ... Direct

First Phase: integral generation and transformation of MO indices
  Aux angular momentum 0               ... done (    4.904 sec)
  Aux angular momentum 1               ... done (    7.488 sec)
  Aux angular momentum 2               ... done (    9.364 sec)
  Aux angular momentum 3               ... done (    7.621 sec)
  Aux angular momentum 4               ... done (    2.793 sec)
Closing buffer VIA ( 0.63 GB; CompressionRatio= 1.00)
  Phase 1 completed in    32.436 sec
Second Phase: sorting and transformation of aux index

IA-Transformation
Memory available                       ... 167 MB 
Max. # MO pairs treated in a batch     ... 12    
# of internal orbitals                 ... 53
# batches for internal orbitals        ... 5
Closing buffer IAV ( 0.63 GB; CompressionRatio= 1.00)
(ia|v) transformation done in    27.564 sec

  Phase 2 completed in    27.590 sec
RI-Integral transformation completed in    60.037 sec
Opening buffers                              ... done

Starting loop over batches of integrals:

Operator 0  - window                       ... ( 24- 76)x( 77-827)
Operator 0  - Memory available             ...   256 MB
Operator 0  - Memory needed per MO         ...  12.3 MB
Operator 0  - Number of orbitals per batch ... 13
Operator 0  - Number of batches            ... 5

OPERATOR  0   PASS   0:  MOs    24 ...   36
  Reading integrals       ... ok
  Internal MO  26
  Internal MO  29
  Internal MO  32
  Internal MO  35
OPERATOR  0   PASS   1:  MOs    37 ...   49
  Reading integrals       ... ok
  Internal MO  38
  Internal MO  41
  Internal MO  44
  Internal MO  47
OPERATOR  0   PASS   2:  MOs    50 ...   62
  Reading integrals       ... ok
  Internal MO  50
  Internal MO  53
  Internal MO  56
  Internal MO  59
  Internal MO  62
OPERATOR  0   PASS   3:  MOs    63 ...   75
  Reading integrals       ... ok
  Internal MO  65
  Internal MO  68
  Internal MO  71
  Internal MO  74
OPERATOR  0   PASS   4:  MOs    76 ...   76
  Reading integrals       ... ok
Time spent in pair loops =    71.130 sec
Deleting buffer (Ka|jb)[aa] ...done

-----------------------------------------------
 RI-MP2 CORRELATION ENERGY:     -3.536092336 Eh
-----------------------------------------------


-------
TIMINGS
-------

Total time                :  131.676 sec
Integral trafo            :   60.052 sec ( 45.6%)
I/O of integrals          :    5.475 sec (  4.2%)
K(i,j) Operators          :   40.144 sec ( 30.5%)
T(i,j) pair energies      :    7.399 sec (  5.6%)
V-calculation             :    0.041 sec (  0.0%)
V**(-1/2)                 :    0.332 sec (  0.3%)
Gamma(ia|P)               :    0.000 sec (  0.0%)
Gamma-Trafo               :    0.000 sec (  0.0%)
D(virtual)                :    0.000 sec (  0.0%)
D(internal)               :    0.000 sec (  0.0%)
W(virtual)                :    0.000 sec (  0.0%)
W(internal)               :    0.000 sec (  0.0%)
L(virtual)                :    0.000 sec (  0.0%)
L(internal)               :    0.000 sec (  0.0%)
G(D)                      :    0.000 sec (  0.0%)
G(Z)                      :    0.000 sec (  0.0%)
Z-Vector Solution         :    0.000 sec (  0.0%)
3-Index Derivative        :    0.000 sec (  0.0%)
2-Index Derivative        :    0.000 sec (  0.0%)
Separable Gradient        :    0.000 sec (  0.0%)


---------------------------------------
MP2 TOTAL ENERGY:    -1274.339995417 Eh
---------------------------------------

-------------------------   --------------------
FINAL SINGLE POINT ENERGY     -1274.339995416540
-------------------------   --------------------


                            ***************************************
                            *     ORCA property calculations      *
                            ***************************************


  WARNING: The energy has been calculated at the MP2 level but the densities
           used in the property calculations are still SCF densities
           MP2 response densities have not been calculated 
           use %mp2 Density relaxed end
           or  %mp2 Density unrelaxed end

                                    ---------------------
                                    Active property flags
                                    ---------------------
   (+) Dipole Moment


------------------------------------------------------------------------------
                       ORCA ELECTRIC PROPERTIES CALCULATION
------------------------------------------------------------------------------

Dipole Moment Calculation                       ... on
Quadrupole Moment Calculation                   ... off
Polarizability Calculation                      ... off
GBWName                                         ... G2_CONFS/Conf865.orca.gbw
Electron density file                           ... G2_CONFS/Conf865.orca.scfp
The origin for moment calculation is the CENTER OF MASS  = (31.741594, 33.245722 33.262415)

-------------
DIPOLE MOMENT
-------------
                                X             Y             Z
Electronic contribution:      8.00210      12.29000       5.71112
Nuclear contribution   :     -8.41427     -14.47223      -6.14109
                        -----------------------------------------
Total Dipole Moment    :     -0.41217      -2.18223      -0.42997
                        -----------------------------------------
Magnitude (a.u.)       :      2.26206
Magnitude (Debye)      :      5.74969



--------------------
Rotational spectrum 
--------------------
 
Rotational constants in cm-1:     0.014235     0.007693     0.005654 
Rotational constants in MHz :   426.749746   230.622225   169.508355 

 Dipole components along the rotational axes: 
x,y,z [a.u.] :     1.917989    -0.714720     0.963013 
x,y,z [Debye]:     4.875140    -1.816675     2.447786 

 

Timings for individual modules:

Sum of individual times         ...     5603.860 sec (=  93.398 min)
GTO integral calculation        ...        1.211 sec (=   0.020 min)   0.0 %
SCF iterations                  ...     5470.539 sec (=  91.176 min)  97.6 %
MP2 module                      ...      132.110 sec (=   2.202 min)   2.4 %
                             ****ORCA TERMINATED NORMALLY****
TOTAL RUN TIME: 0 days 1 hours 33 minutes 25 seconds 511 msec
