
                                 *****************
                                 * O   R   C   A *
                                 *****************

           --- An Ab Initio, DFT and Semiempirical electronic structure package ---

                  #######################################################
                  #                        -***-                        #
                  #          Department of theory and spectroscopy      #
                  #               Directorship: Frank Neese             #
                  #        Max Planck Institute fuer Kohlenforschung    #
                  #                Kaiser Wilhelm Platz 1               #
                  #                 D-45470 Muelheim/Ruhr               #
                  #                      Germany                        #
                  #                                                     #
                  #                  All rights reserved                #
                  #                        -***-                        #
                  #######################################################


                         Program Version 4.2.0 -  RELEASE  -


 With contributions from (in alphabetic order):
   Daniel Aravena         : Magnetic Suceptibility
   Michael Atanasov       : Ab Initio Ligand Field Theory (pilot matlab implementation)
   Alexander A. Auer      : GIAO ZORA, VPT2
   Ute Becker             : Parallelization
   Giovanni Bistoni       : ED, misc. LED, open-shell LED, HFLED
   Martin Brehm           : Molecular dynamics
   Dmytro Bykov           : SCF Hessian
   Vijay G. Chilkuri      : MRCI spin determinant printing, contributions to CSF-ICE
   Dipayan Datta          : RHF DLPNO-CCSD density
   Achintya Kumar Dutta   : EOM-CC, STEOM-CC
   Dmitry Ganyushin       : Spin-Orbit,Spin-Spin,Magnetic field MRCI
   Miquel Garcia          : C-PCM Hessian, Gaussian charge scheme
   Yang Guo               : DLPNO-NEVPT2, CIM, IAO-localization
   Andreas Hansen         : Spin unrestricted coupled pair/coupled cluster methods
   Benjamin Helmich-Paris : CASSCF linear response (MC-RPA)
   Lee Huntington         : MR-EOM, pCC
   Robert Izsak           : Overlap fitted RIJCOSX, COSX-SCS-MP3, EOM
   Christian Kollmar      : KDIIS, OOCD, Brueckner-CCSD(T), CCSD density
   Simone Kossmann        : Meta GGA functionals, TD-DFT gradient, OOMP2, MP2 Hessian
   Martin Krupicka        : AUTO-CI
   Lucas Lang             : DCDCAS
   Dagmar Lenk            : GEPOL surface, SMD
   Dimitrios Liakos       : Extrapolation schemes; Compound Job, initial MDCI parallelization
   Dimitrios Manganas     : Further ROCIS development; embedding schemes
   Dimitrios Pantazis     : SARC Basis sets
   Taras Petrenko         : DFT Hessian,TD-DFT gradient, ASA, ECA, R-Raman, ABS, FL, XAS/XES, NRVS
   Peter Pinski           : DLPNO-MP2, DLPNO-MP2 Gradient
   Christoph Reimann      : Effective Core Potentials
   Marius Retegan         : Local ZFS, SOC
   Christoph Riplinger    : Optimizer, TS searches, QM/MM, DLPNO-CCSD(T), (RO)-DLPNO pert. Triples
   Tobias Risthaus        : Range-separated hybrids, TD-DFT gradient, RPA, STAB
   Michael Roemelt        : Original ROCIS implementation
   Masaaki Saitow         : Open-shell DLPNO-CCSD energy and density
   Barbara Sandhoefer     : DKH picture change effects
   Avijit Sen             : IP-ROCIS
   Kantharuban Sivalingam : CASSCF convergence, NEVPT2, FIC-MRCI
   Bernardo de Souza      : ESD, SOC TD-DFT
   Georgi Stoychev        : AutoAux, RI-MP2 NMR
   Willem Van den Heuvel  : Paramagnetic NMR
   Boris Wezisla          : Elementary symmetry handling
   Frank Wennmohs         : Technical directorship


 We gratefully acknowledge several colleagues who have allowed us to
 interface, adapt or use parts of their codes:
   Stefan Grimme, W. Hujo, H. Kruse,             : VdW corrections, initial TS optimization,
                  C. Bannwarth                     DFT functionals, gCP, sTDA/sTD-DF
   Ed Valeev, F. Pavosevic, A. Kumar             : LibInt (2-el integral package), F12 methods
   Garnet Chan, S. Sharma, J. Yang, R. Olivares  : DMRG
   Ulf Ekstrom                                   : XCFun DFT Library
   Mihaly Kallay                                 : mrcc  (arbitrary order and MRCC methods)
   Andreas Klamt, Michael Diedenhofen            : otool_cosmo (COSMO solvation model)
   Jiri Pittner, Ondrej Demel                    : Mk-CCSD
   Frank Weinhold                                : gennbo (NPA and NBO analysis)
   Christopher J. Cramer and Donald G. Truhlar   : smd solvation model
   Lars Goerigk                                  : TD-DFT with DH, B97 family of functionals
   V. Asgeirsson, H. Jonsson                     : NEB implementation
   FAccTs GmbH                                   : IRC, NEB, NEB-TS, Multilevel, MM, QM/MM, CI optimization
   S Lehtola, MJT Oliveira, MAL Marques          : LibXC Library


 Your calculation uses the libint2 library for the computation of 2-el integrals
 For citations please refer to: http://libint.valeyev.net

 Your ORCA version has been built with support for libXC version: 4.2.3
 For citations please refer to: https://tddft.org/programs/libxc/

 This ORCA versions uses:
   CBLAS   interface :  Fast vector & matrix operations
   LAPACKE interface :  Fast linear algebra routines
   SCALAPACK package :  Parallel linear algebra routines


----- Orbital basis set information -----
Your calculation utilizes the basis: cc-pVTZ 
       H, B-Ne : Obtained from the ccRepo (grant-hill.group.shef.ac.uk/ccrepo) Feb. 2017
                 T. H. Dunning, Jr., J. Chem. Phys. 90, 1007 (1989)
            He : Obtained from the ccRepo (grant-hill.group.shef.ac.uk/ccrepo) Feb. 2017
                 D. E. Woon, T. H. Dunning, Jr., J. Chem. Phys. 100, 2975 (1994)
  Li-Be, Na-Mg : Obtained from the ccRepo (grant-hill.group.shef.ac.uk/ccrepo) Feb. 2017
                 B. P. Prascher, D. E. Woon, K. A. Peterson, T. H. Dunning, Jr., A. K. Wilson, Theor. Chem. Acc. 128, 69 (2011)
         Al-Ar : Obtained from the ccRepo (grant-hill.group.shef.ac.uk/ccrepo) Feb. 2017
                 D. E. Woon, T. H. Dunning, Jr., J. Chem. Phys. 98, 1358 (1993)
            Ca : Obtained from the Peterson Research Group Website (tyr0.chem.wsu.edu/~kipeters) Feb. 2017
                 J. Koput, K. A. Peterson, J. Phys. Chem. 106, 9595 (2002)
         Sc-Zn : Obtained from the ccRepo (grant-hill.group.shef.ac.uk/ccrepo) Feb. 2017
                 N. B. Balabanov, K. A. Peterson, J. Chem. Phys. 123, 064107 (2005)
                 N. B. Balabanov, K. A. Peterson, J. Chem. Phys. 125, 074110 (2006)
         Ga-Kr : Obtained from the ccRepo (grant-hill.group.shef.ac.uk/ccrepo) Feb. 2017
                 A. K. Wilson, D. E. Woon, K. A. Peterson, T. H. Dunning, Jr., J. Chem. Phys. 110, 7667 (1999)
             Y : Obtained from the ccRepo (grant-hill.group.shef.ac.uk/ccrepo) Feb. 2017
                 K. A. Peterson, D. Figgen, M. Dolg, H. Stoll, J. Chem. Phys. 126, 124101 (2007)
        Ag, Au : Obtained from the Peterson Research Group Website (tyr0.chem.wsu.edu/~kipeters) Feb. 2017
                 K. A. Peterson, C. Puzzarini, Theor. Chem. Acc. 114, 283 (2005)

----- AuxC basis set information -----
Your calculation utilizes the auxiliary basis: cc-pVTZ/C 
  Obtained from the EMSL Basis Set Exchange (bse.pnl.gov) Feb. 2017
  H-He, B-F, Al-Ar, Ga-Kr : F. Weigend, A. Kohn, C. Hattig, J. Chem. Phys. 116, 3175 (2002)
             Li-Be, Na-Mg : C. Haettig, Phys. Chem. Chem. Phys. 7, 59 (2005)
                       Ne : C. Haettig, Phys. Chem. Chem. Phys. 7, 59 (2005)
                            F. Weigend, A. Kohn, C. Hattig, J. Chem. Phys. 116, 3175 (2002)
                    Sc-Zn : J. G. Hill, J. A. Platts, J. Chem. Phys. 128, 044104 (2008)

================================================================================
                                        WARNINGS
                       Please study these warnings very carefully!
================================================================================


WARNING: No MP2 level density has been requested!
         To caclulate MP2 level properties use
         %mp2 Density relaxed end
         or
         %mp2 Density unrelaxed end

WARNING: Post HF methods need fully converged wavefunctions
  ===> : Setting SCFConvForced true
         You can overwrite this default with %scf ConvForced false 


INFO   : the flag for use of LIBINT has been found!

================================================================================
                                       INPUT FILE
================================================================================
NAME = G2_CONFS/Conf116.orca
|  1> ! ri-mp2 cc-pvtz cc-pvtz/c TightSCF NoKeepInts
|  2> 
|  3> %scf
|  4>   MaxCore 4096
|  5> end
|  6> *xyz  0  1
|  7>     C       15.5225176   13.9236978   14.0643523
|  8>     C       15.3344085   15.4493470   14.0197276
|  9>     O       16.0433954   16.0040321   15.1392524
| 10>     C       16.0223934   17.3569712   15.3245607
| 11>     O       15.4225703   18.1106983   14.5768146
| 12>     C       16.7947663   17.7897431   16.5352507
| 13>     C       16.8844201   19.0800929   16.9441757
| 14>     C       16.1963656   20.2855851   16.3452870
| 15>     N       17.9760284   19.4173782   17.7650845
| 16>     C       19.0904384   18.6036001   17.8706160
| 17>     S       20.5345923   19.1420983   18.4728464
| 18>     N       18.9143292   17.2939343   17.4635007
| 19>     C       17.5488958   16.7472977   17.3731321
| 20>     C       16.9280969   16.6251531   18.7783038
| 21>     C       17.7076523   16.5447922   19.9547287
| 22>     C       17.1017826   16.4168624   21.2157488
| 23>     C       15.7029516   16.3516042   21.3143119
| 24>     C       14.9222808   16.4081427   20.1537403
| 25>     O       13.5702600   16.3338749   20.2408740
| 26>     C       15.5270633   16.5366612   18.8994831
| 27>     H       16.5858688   13.6626391   13.9952961
| 28>     H       14.9969734   13.4471428   13.2278436
| 29>     H       15.1237229   13.5118621   14.9998445
| 30>     H       15.7327726   15.8500040   13.0776045
| 31>     H       14.2660961   15.6976515   14.0819632
| 32>     H       15.1168774   20.1097551   16.2563612
| 33>     H       16.5802392   20.4886229   15.3374055
| 34>     H       16.3315657   21.1889892   16.9511465
| 35>     H       18.0997220   20.3696362   18.0689293
| 36>     H       19.7186702   16.6866600   17.5437025
| 37>     H       17.5078985   15.7387951   16.9408207
| 38>     H       18.7922437   16.5885395   19.9061593
| 39>     H       17.7192837   16.3693819   22.1112504
| 40>     H       15.2326097   16.2528440   22.2870605
| 41>     H       13.3450156   16.2513047   21.1799715
| 42>     H       14.8922350   16.5646030   18.0208442
| 43> *
| 44> 
| 45>                          ****END OF INPUT****
================================================================================

                       ****************************
                       * Single Point Calculation *
                       ****************************

---------------------------------
CARTESIAN COORDINATES (ANGSTROEM)
---------------------------------
  C     15.522518   13.923698   14.064352
  C     15.334409   15.449347   14.019728
  O     16.043395   16.004032   15.139252
  C     16.022393   17.356971   15.324561
  O     15.422570   18.110698   14.576815
  C     16.794766   17.789743   16.535251
  C     16.884420   19.080093   16.944176
  C     16.196366   20.285585   16.345287
  N     17.976028   19.417378   17.765084
  C     19.090438   18.603600   17.870616
  S     20.534592   19.142098   18.472846
  N     18.914329   17.293934   17.463501
  C     17.548896   16.747298   17.373132
  C     16.928097   16.625153   18.778304
  C     17.707652   16.544792   19.954729
  C     17.101783   16.416862   21.215749
  C     15.702952   16.351604   21.314312
  C     14.922281   16.408143   20.153740
  O     13.570260   16.333875   20.240874
  C     15.527063   16.536661   18.899483
  H     16.585869   13.662639   13.995296
  H     14.996973   13.447143   13.227844
  H     15.123723   13.511862   14.999845
  H     15.732773   15.850004   13.077604
  H     14.266096   15.697651   14.081963
  H     15.116877   20.109755   16.256361
  H     16.580239   20.488623   15.337405
  H     16.331566   21.188989   16.951147
  H     18.099722   20.369636   18.068929
  H     19.718670   16.686660   17.543702
  H     17.507898   15.738795   16.940821
  H     18.792244   16.588539   19.906159
  H     17.719284   16.369382   22.111250
  H     15.232610   16.252844   22.287060
  H     13.345016   16.251305   21.179971
  H     14.892235   16.564603   18.020844

----------------------------
CARTESIAN COORDINATES (A.U.)
----------------------------
  NO LB      ZA    FRAG     MASS         X           Y           Z
   0 C     6.0000    0    12.011   29.333307   26.311976   26.577774
   1 C     6.0000    0    12.011   28.977832   29.195035   26.493446
   2 O     8.0000    0    15.999   30.317624   30.243238   28.609041
   3 C     6.0000    0    12.011   30.277936   32.799922   28.959223
   4 O     8.0000    0    15.999   29.144434   34.224260   27.546187
   5 C     6.0000    0    12.011   31.737509   33.617742   31.247095
   6 C     6.0000    0    12.011   31.906930   36.056150   32.019852
   7 C     6.0000    0    12.011   30.606695   38.334200   30.888116
   8 N     7.0000    0    14.007   33.969771   36.693527   33.571144
   9 C     6.0000    0    12.011   36.075700   35.155709   33.770570
  10 S    16.0000    0    32.060   38.804756   36.173323   34.908621
  11 N     7.0000    0    14.007   35.742902   32.680800   33.001234
  12 C     6.0000    0    12.011   33.162607   31.647806   32.830462
  13 C     6.0000    0    12.011   31.989467   31.416986   35.485851
  14 C     6.0000    0    12.011   33.462613   31.265126   37.708972
  15 C     6.0000    0    12.011   32.317686   31.023374   40.091955
  16 C     6.0000    0    12.011   29.674278   30.900054   40.278212
  17 C     6.0000    0    12.011   28.199024   31.006896   38.085050
  18 O     8.0000    0    15.999   25.644075   30.866550   38.249709
  19 C     6.0000    0    12.011   29.341897   31.249761   35.714847
  20 H     1.0000    0     1.008   31.342750   25.818646   26.447277
  21 H     1.0000    0     1.008   28.340173   25.411417   24.997002
  22 H     1.0000    0     1.008   28.579694   25.533719   28.345598
  23 H     1.0000    0     1.008   29.730632   29.952167   24.713091
  24 H     1.0000    0     1.008   26.959015   29.664262   26.611054
  25 H     1.0000    0     1.008   28.566758   38.001930   30.720071
  26 H     1.0000    0     1.008   31.332111   38.717886   28.983496
  27 H     1.0000    0     1.008   30.862187   40.041387   32.033025
  28 H     1.0000    0     1.008   34.203518   38.493034   34.145328
  29 H     1.0000    0     1.008   37.262886   31.533217   33.152793
  30 H     1.0000    0     1.008   33.085133   29.742012   32.013512
  31 H     1.0000    0     1.008   35.512194   31.347797   37.617189
  32 H     1.0000    0     1.008   33.484593   30.933649   41.784208
  33 H     1.0000    0     1.008   28.785461   30.713424   42.116441
  34 H     1.0000    0     1.008   25.218425   30.710515   40.024346
  35 H     1.0000    0     1.008   28.142246   31.302563   34.054460

--------------------------------
INTERNAL COORDINATES (ANGSTROEM)
--------------------------------
 C      0   0   0     0.000000000000     0.00000000     0.00000000
 C      1   0   0     1.537849758206     0.00000000     0.00000000
 O      2   1   0     1.436549255107   107.46223743     0.00000000
 C      3   2   1     1.365732205947   118.72836378   180.31904436
 O      4   3   2     1.219432869261   122.45725869     0.13459696
 C      4   3   2     1.499873891427   112.79534334   179.56886321
 C      6   4   3     1.356561854778   123.49136022   181.98164576
 C      7   6   4     1.511720249986   127.51784665     3.65181253
 N      7   6   4     1.406862222161   117.07867235   201.98609940
 C      9   7   6     1.383936899440   121.89243001    16.82434867
 S     10   9   7     1.654763503638   122.62623081   162.69193051
 N     10   9   7     1.382744309519   115.59015248   341.43142921
 C     12  10   9     1.473562494827   119.17177466   340.69651561
 C     13  12  10     1.541044478278   110.28963201   292.32592655
 C     14  13  12     1.413555814695   122.76609058   337.49360099
 C     15  14  13     1.404854376692   120.95570559   180.82926712
 C     16  15  14     1.403816755816   119.80122561     0.75305435
 C     17  16  15     1.399846398246   119.71033082     0.30416800
 O     18  17  16     1.356859694819   120.01608295   179.42596008
 C     18  17  16     1.398370480560   120.40754868   359.63807588
 H      1   2   3     1.097103540303   110.65835116   299.77751053
 H      1   2   3     1.096835529765   110.50538408   179.89901063
 H      1   2   3     1.097174331090   110.65033561    60.02486790
 H      2   1   3     1.098551739051   110.02009242   120.23251767
 H      2   1   3     1.098553493746   109.97095911   239.79780952
 H      8   7   6     1.097323453110   110.61441102    52.07615208
 H      8   7   6     1.097455423718   110.61926134   293.18030796
 H      8   7   6     1.096122150436   112.46486876   172.09585330
 H      9   7   6     1.007182738003   119.86714972   178.06326503
 H     12  10   9     1.011028609113   116.37373049   180.55455210
 H     13  12  10     1.098021593314   113.54454987   173.87207146
 H     15  14  13     1.086559394524   120.73020391     1.32119522
 H     16  15  14     1.088799853960   119.84406081   180.78490390
 H     17  16  15     1.084995354277   119.94283382   180.00280747
 H     19  18  17     0.969255896121   107.36405816     0.35246291
 H     20  18  17     1.084340366887   118.42163594   179.23281879

---------------------------
INTERNAL COORDINATES (A.U.)
---------------------------
 C      0   0   0     0.000000000000     0.00000000     0.00000000
 C      1   0   0     2.906114878126     0.00000000     0.00000000
 O      2   1   0     2.714684670041   107.46223743     0.00000000
 C      3   2   1     2.580859841517   118.72836378   180.31904436
 O      4   3   2     2.304394161604   122.45725869     0.13459696
 C      4   3   2     2.834350890216   112.79534334   179.56886321
 C      6   4   3     2.563530389255   123.49136022   181.98164576
 C      7   6   4     2.856737263577   127.51784665     3.65181253
 N      7   6   4     2.658584308043   117.07867235   201.98609940
 C      9   7   6     2.615261726570   121.89243001    16.82434867
 S     10   9   7     3.127049838284   122.62623081   162.69193051
 N     10   9   7     2.613008058230   115.59015248   341.43142921
 C     12  10   9     2.784629556441   119.17177466   340.69651561
 C     13  12  10     2.912152024137   110.28963201   292.32592655
 C     14  13  12     2.671233364785   122.76609058   337.49360099
 C     15  14  13     2.654790029988   120.95570559   180.82926712
 C     16  15  14     2.652829210702   119.80122561     0.75305435
 C     17  16  15     2.645326322240   119.71033082     0.30416800
 O     18  17  16     2.564093225364   120.01608295   179.42596008
 C     18  17  16     2.642537242017   120.40754868   359.63807588
 H      1   2   3     2.073225231728   110.65835116   299.77751053
 H      1   2   3     2.072718765210   110.50538408   179.89901063
 H      1   2   3     2.073359006929   110.65033561    60.02486790
 H      2   1   3     2.075961930749   110.02009242   120.23251767
 H      2   1   3     2.075965246642   109.97095911   239.79780952
 H      8   7   6     2.073640806706   110.61441102    52.07615208
 H      8   7   6     2.073890195014   110.61926134   293.18030796
 H      8   7   6     2.071370673649   112.46486876   172.09585330
 H      9   7   6     1.903299541639   119.86714972   178.06326503
 H     12  10   9     1.910567184783   116.37373049   180.55455210
 H     13  12  10     2.074960100495   113.54454987   173.87207146
 H     15  14  13     2.053299683889   120.73020391     1.32119522
 H     16  15  14     2.057533538638   119.84406081   180.78490390
 H     17  16  15     2.050344076159   119.94283382   180.00280747
 H     19  18  17     1.831628197357   107.36405816     0.35246291
 H     20  18  17     2.049106329373   118.42163594   179.23281879

---------------------
BASIS SET INFORMATION
---------------------
There are 5 groups of distinct atoms

 Group   1 Type C   : 18s5p2d1f contracted to 4s3p2d1f pattern {8811/311/11/1}
 Group   2 Type O   : 18s5p2d1f contracted to 4s3p2d1f pattern {8811/311/11/1}
 Group   3 Type N   : 18s5p2d1f contracted to 4s3p2d1f pattern {8811/311/11/1}
 Group   4 Type S   : 41s16p2d1f contracted to 5s4p2d1f pattern {13131311/7711/11/1}
 Group   5 Type H   : 5s2p1d contracted to 3s2p1d pattern {311/11/1}

Atom   0C    basis set group =>   1
Atom   1C    basis set group =>   1
Atom   2O    basis set group =>   2
Atom   3C    basis set group =>   1
Atom   4O    basis set group =>   2
Atom   5C    basis set group =>   1
Atom   6C    basis set group =>   1
Atom   7C    basis set group =>   1
Atom   8N    basis set group =>   3
Atom   9C    basis set group =>   1
Atom  10S    basis set group =>   4
Atom  11N    basis set group =>   3
Atom  12C    basis set group =>   1
Atom  13C    basis set group =>   1
Atom  14C    basis set group =>   1
Atom  15C    basis set group =>   1
Atom  16C    basis set group =>   1
Atom  17C    basis set group =>   1
Atom  18O    basis set group =>   2
Atom  19C    basis set group =>   1
Atom  20H    basis set group =>   5
Atom  21H    basis set group =>   5
Atom  22H    basis set group =>   5
Atom  23H    basis set group =>   5
Atom  24H    basis set group =>   5
Atom  25H    basis set group =>   5
Atom  26H    basis set group =>   5
Atom  27H    basis set group =>   5
Atom  28H    basis set group =>   5
Atom  29H    basis set group =>   5
Atom  30H    basis set group =>   5
Atom  31H    basis set group =>   5
Atom  32H    basis set group =>   5
Atom  33H    basis set group =>   5
Atom  34H    basis set group =>   5
Atom  35H    basis set group =>   5
---------------------------------
AUXILIARY/C BASIS SET INFORMATION
---------------------------------
There are 5 groups of distinct atoms

 Group   1 Type C   : 8s6p5d3f1g contracted to 8s6p5d3f1g pattern {11111111/111111/11111/111/1}
 Group   2 Type O   : 8s6p5d3f1g contracted to 8s6p5d3f1g pattern {11111111/111111/11111/111/1}
 Group   3 Type N   : 8s6p5d3f1g contracted to 8s6p5d3f1g pattern {11111111/111111/11111/111/1}
 Group   4 Type S   : 10s8p7d5f2g contracted to 10s8p7d5f2g pattern {1111111111/11111111/1111111/11111/11}
 Group   5 Type H   : 4s3p2d1f contracted to 4s3p2d1f pattern {1111/111/11/1}

Atom   0C    basis set group =>   1
Atom   1C    basis set group =>   1
Atom   2O    basis set group =>   2
Atom   3C    basis set group =>   1
Atom   4O    basis set group =>   2
Atom   5C    basis set group =>   1
Atom   6C    basis set group =>   1
Atom   7C    basis set group =>   1
Atom   8N    basis set group =>   3
Atom   9C    basis set group =>   1
Atom  10S    basis set group =>   4
Atom  11N    basis set group =>   3
Atom  12C    basis set group =>   1
Atom  13C    basis set group =>   1
Atom  14C    basis set group =>   1
Atom  15C    basis set group =>   1
Atom  16C    basis set group =>   1
Atom  17C    basis set group =>   1
Atom  18O    basis set group =>   2
Atom  19C    basis set group =>   1
Atom  20H    basis set group =>   5
Atom  21H    basis set group =>   5
Atom  22H    basis set group =>   5
Atom  23H    basis set group =>   5
Atom  24H    basis set group =>   5
Atom  25H    basis set group =>   5
Atom  26H    basis set group =>   5
Atom  27H    basis set group =>   5
Atom  28H    basis set group =>   5
Atom  29H    basis set group =>   5
Atom  30H    basis set group =>   5
Atom  31H    basis set group =>   5
Atom  32H    basis set group =>   5
Atom  33H    basis set group =>   5
Atom  34H    basis set group =>   5
Atom  35H    basis set group =>   5
------------------------------------------------------------------------------
                           ORCA GTO INTEGRAL CALCULATION
------------------------------------------------------------------------------

                         BASIS SET STATISTICS AND STARTUP INFO

 # of primitive gaussian shells          ...  682
 # of primitive gaussian functions       ... 1312
 # of contracted shells                  ...  298
 # of contracted basis functions         ...  828
 Highest angular momentum                ...    3
 Maximum contraction depth               ...   13
 Integral package used                   ... LIBINT
 Integral threshhold            Thresh   ...  2.500e-11
 Primitive cut-off              TCut     ...  2.500e-12


------------------------------ INTEGRAL EVALUATION ----------------------------


 * One electron integrals 
 Pre-screening matrix                    ... done
 Shell pair data                         ... done (   0.013 sec)

-------------------------------------------------------------------------------
                                 ORCA SCF
-------------------------------------------------------------------------------

------------
SCF SETTINGS
------------
Hamiltonian:
 Ab initio Hamiltonian  Method          .... Hartree-Fock(GTOs)


General Settings:
 Integral files         IntName         .... G2_CONFS/Conf116.orca
 Hartree-Fock type      HFTyp           .... RHF
 Total Charge           Charge          ....    0
 Multiplicity           Mult            ....    1
 Number of Electrons    NEL             ....  154
 Basis Dimension        Dim             ....  828
 Nuclear Repulsion      ENuc            ....   1692.4803538872 Eh

Convergence Acceleration:
 DIIS                   CNVDIIS         .... on
   Start iteration      DIISMaxIt       ....    12
   Startup error        DIISStart       ....  0.200000
   # of expansion vecs  DIISMaxEq       ....     5
   Bias factor          DIISBfac        ....   1.050
   Max. coefficient     DIISMaxC        ....  10.000
 Newton-Raphson         CNVNR           .... off
 SOSCF                  CNVSOSCF        .... on
   Start iteration      SOSCFMaxIt      ....   150
   Startup grad/error   SOSCFStart      ....  0.003300
 Level Shifting         CNVShift        .... on
   Level shift para.    LevelShift      ....    0.2500
   Turn off err/grad.   ShiftErr        ....    0.0010
 Zerner damping         CNVZerner       .... off
 Static damping         CNVDamp         .... on
   Fraction old density DampFac         ....    0.7000
   Max. Damping (<1)    DampMax         ....    0.9800
   Min. Damping (>=0)   DampMin         ....    0.0000
   Turn off err/grad.   DampErr         ....    0.1000
 Fernandez-Rico         CNVRico         .... off

SCF Procedure:
 Maximum # iterations   MaxIter         ....   125
 SCF integral mode      SCFMode         .... Direct
   Integral package                     .... LIBINT
 Reset frequency        DirectResetFreq ....    20
 Integral Threshold     Thresh          ....  2.500e-11 Eh
 Primitive CutOff       TCut            ....  2.500e-12 Eh

Convergence Tolerance:
 Convergence Check Mode ConvCheckMode   .... Total+1el-Energy
 Convergence forced     ConvForced      .... 1
 Energy Change          TolE            ....  1.000e-08 Eh
 1-El. energy change                    ....  1.000e-05 Eh
 Orbital Gradient       TolG            ....  1.000e-05
 Orbital Rotation angle TolX            ....  1.000e-05
 DIIS Error             TolErr          ....  5.000e-07


Diagonalization of the overlap matrix:
Smallest eigenvalue                        ... 3.354e-05
Time for diagonalization                   ...    0.109 sec
Threshold for overlap eigenvalues          ... 1.000e-08
Number of eigenvalues below threshold      ... 0
Time for construction of square roots      ...    0.063 sec
Total time needed                          ...    0.174 sec

-------------------
DFT GRID GENERATION
-------------------

General Integration Accuracy     IntAcc      ...  4.340
Radial Grid Type                 RadialGrid  ... Gauss-Chebyshev
Angular Grid (max. acc.)         AngularGrid ... Lebedev-110
Angular grid pruning method      GridPruning ... 3 (G Style)
Weight generation scheme         WeightScheme... Becke
Basis function cutoff            BFCut       ...    1.0000e-11
Integration weight cutoff        WCut        ...    1.0000e-14
Grids for H and He will be reduced by one unit

# of grid points (after initial pruning)     ...  46246 (   0.0 sec)
# of grid points (after weights+screening)   ...  41391 (   0.3 sec)
nearest neighbour list constructed           ...    0.0 sec
Grid point re-assignment to atoms done       ...    0.0 sec
Grid point division into batches done        ...    0.0 sec
Reduced shell lists constructed in    0.9 sec

Total number of grid points                  ...    41391
Total number of batches                      ...      666
Average number of points per batch           ...       62
Average number of grid points per atom       ...     1150
Average number of shells per batch           ...   145.07 (48.68%)
Average number of basis functions per batch  ...   368.76 (44.54%)
Average number of large shells per batch     ...    92.90 (64.03%)
Average number of large basis fcns per batch ...   240.18 (65.13%)
Maximum spatial batch extension              ...  22.65, 19.53, 20.30 au
Average spatial batch extension              ...   3.45,  3.60,  3.34 au

Time for grid setup =    1.235 sec

------------------------------
INITIAL GUESS: MODEL POTENTIAL
------------------------------
Loading Hartree-Fock densities                     ... done
Calculating cut-offs                               ... done
Setting up the integral package                    ... done
Initializing the effective Hamiltonian             ... done
Starting the Coulomb interaction                   ... done (   3.0 sec)
Reading the grid                                   ... done
Mapping shells                                     ... done
Starting the XC term evaluation                    ... done (   1.2 sec)
Transforming the Hamiltonian                       ... done (   0.1 sec)
Diagonalizing the Hamiltonian                      ... done (   0.1 sec)
Back transforming the eigenvectors                 ... done (   0.0 sec)
Now organizing SCF variables                       ... done
                      ------------------
                      INITIAL GUESS DONE (   5.9 sec)
                      ------------------
--------------
SCF ITERATIONS
--------------
ITER       Energy         Delta-E        Max-DP      RMS-DP      [F,P]     Damp
               ***  Starting incremental Fock matrix formation  ***
  0  -1270.0100957951   0.000000000000 0.04948237  0.00044194  0.3152268 0.7000
  1  -1270.2778946203  -0.267798825202 0.03618677  0.00035737  0.1861621 0.7000
                               ***Turning on DIIS***
  2  -1270.4446684173  -0.166773796949 0.02590480  0.00023811  0.1097092 0.7000
  3  -1272.5550364819  -2.110368064595 0.06326609  0.00050493  0.0830028 0.0000
  4  -1270.7546367433   1.800399738539 0.00796791  0.00009968  0.0081754 0.0000
  5  -1270.8151189962  -0.060482252890 0.00338041  0.00005084  0.0047538 0.0000
                      *** Initiating the SOSCF procedure ***
                           *** Shutting down DIIS ***
                      *** Re-Reading the Fockian *** 
                      *** Removing any level shift *** 
ITER      Energy       Delta-E        Grad      Rot      Max-DP    RMS-DP
  6  -1270.79235871   0.0227602836  0.001529  0.001529  0.001663  0.000026
               *** Restarting incremental Fock matrix formation ***
  7  -1270.80694927  -0.0145905546  0.000883  0.002262  0.001279  0.000016
  8  -1270.80699693  -0.0000476585  0.000433  0.002482  0.001364  0.000017
  9  -1270.80701493  -0.0000180026  0.000202  0.000328  0.000370  0.000004
 10  -1270.80701717  -0.0000022449  0.000045  0.000125  0.000117  0.000001
 11  -1270.80701738  -0.0000002023  0.000026  0.000130  0.000061  0.000001
 12  -1270.80701744  -0.0000000655  0.000009  0.000039  0.000032  0.000000
 13  -1270.80701744  -0.0000000033  0.000004  0.000015  0.000007  0.000000
                  ***Gradient check signals convergence***
              ***Rediagonalizing the Fockian in SOSCF/NRSCF***

               *****************************************************
               *                     SUCCESS                       *
               *           SCF CONVERGED AFTER  14 CYCLES          *
               *****************************************************


----------------
TOTAL SCF ENERGY
----------------

Total Energy       :        -1270.80701744 Eh          -34580.41698 eV

Components:
Nuclear Repulsion  :         1692.48035389 Eh           46054.73181 eV
Electronic Energy  :        -2963.28737132 Eh          -80635.14879 eV
One Electron Energy:        -5106.35343045 Eh         -138950.94097 eV
Two Electron Energy:         2143.06605913 Eh           58315.79219 eV

Virial components:
Potential Energy   :        -2539.69865474 Eh          -69108.71381 eV
Kinetic Energy     :         1268.89163730 Eh           34528.29684 eV
Virial Ratio       :            2.00150949


---------------
SCF CONVERGENCE
---------------

  Last Energy change         ...    8.0609e-09  Tolerance :   1.0000e-08
  Last MAX-Density change    ...    2.5554e-06  Tolerance :   1.0000e-07
  Last RMS-Density change    ...    2.9462e-08  Tolerance :   5.0000e-09
  Last Orbital Gradient      ...    1.2677e-06  Tolerance :   1.0000e-05
  Last Orbital Rotation      ...    2.9309e-06  Tolerance :   1.0000e-05

             **** THE GBW FILE WAS UPDATED (G2_CONFS/Conf116.orca.gbw) ****
             **** DENSITY FILE WAS UPDATED (G2_CONFS/Conf116.orca.scfp) ****
             **** ENERGY FILE WAS UPDATED (G2_CONFS/Conf116.orca.en.tmp) ****
             **** THE GBW FILE WAS UPDATED (G2_CONFS/Conf116.orca.gbw) ****
             **** DENSITY FILE WAS UPDATED (G2_CONFS/Conf116.orca.scfp) ****
----------------
ORBITAL ENERGIES
----------------

  NO   OCC          E(Eh)            E(eV) 
   0   2.0000     -91.891829     -2500.5038 
   1   2.0000     -20.606535      -560.7323 
   2   2.0000     -20.594850      -560.4144 
   3   2.0000     -20.541425      -558.9606 
   4   2.0000     -15.631184      -425.3461 
   5   2.0000     -15.606825      -424.6833 
   6   2.0000     -11.393100      -310.0220 
   7   2.0000     -11.385879      -309.8255 
   8   2.0000     -11.332482      -308.3725 
   9   2.0000     -11.310098      -307.7634 
  10   2.0000     -11.307309      -307.6875 
  11   2.0000     -11.298097      -307.4369 
  12   2.0000     -11.260086      -306.4025 
  13   2.0000     -11.253364      -306.2196 
  14   2.0000     -11.250600      -306.1444 
  15   2.0000     -11.249994      -306.1279 
  16   2.0000     -11.237940      -305.7999 
  17   2.0000     -11.234294      -305.7007 
  18   2.0000     -11.233065      -305.6673 
  19   2.0000     -11.232971      -305.6647 
  20   2.0000      -8.896714      -242.0919 
  21   2.0000      -6.578262      -179.0036 
  22   2.0000      -6.576303      -178.9503 
  23   2.0000      -6.575693      -178.9337 
  24   2.0000      -1.454880       -39.5893 
  25   2.0000      -1.414476       -38.4898 
  26   2.0000      -1.355815       -36.8936 
  27   2.0000      -1.338402       -36.4198 
  28   2.0000      -1.234822       -33.6012 
  29   2.0000      -1.152372       -31.3576 
  30   2.0000      -1.117442       -30.4071 
  31   2.0000      -1.042860       -28.3777 
  32   2.0000      -1.038177       -28.2502 
  33   2.0000      -1.009355       -27.4659 
  34   2.0000      -0.993909       -27.0457 
  35   2.0000      -0.982119       -26.7248 
  36   2.0000      -0.918309       -24.9885 
  37   2.0000      -0.892421       -24.2840 
  38   2.0000      -0.842829       -22.9346 
  39   2.0000      -0.838122       -22.8065 
  40   2.0000      -0.827496       -22.5173 
  41   2.0000      -0.817180       -22.2366 
  42   2.0000      -0.766423       -20.8554 
  43   2.0000      -0.729045       -19.8383 
  44   2.0000      -0.708219       -19.2716 
  45   2.0000      -0.692532       -18.8447 
  46   2.0000      -0.689284       -18.7564 
  47   2.0000      -0.681838       -18.5537 
  48   2.0000      -0.679475       -18.4895 
  49   2.0000      -0.667078       -18.1521 
  50   2.0000      -0.651505       -17.7284 
  51   2.0000      -0.638040       -17.3619 
  52   2.0000      -0.635086       -17.2816 
  53   2.0000      -0.608870       -16.5682 
  54   2.0000      -0.597648       -16.2628 
  55   2.0000      -0.592076       -16.1112 
  56   2.0000      -0.584858       -15.9148 
  57   2.0000      -0.576687       -15.6924 
  58   2.0000      -0.571834       -15.5604 
  59   2.0000      -0.570565       -15.5259 
  60   2.0000      -0.555740       -15.1224 
  61   2.0000      -0.553519       -15.0620 
  62   2.0000      -0.543031       -14.7766 
  63   2.0000      -0.520703       -14.1690 
  64   2.0000      -0.517119       -14.0715 
  65   2.0000      -0.509858       -13.8739 
  66   2.0000      -0.507603       -13.8126 
  67   2.0000      -0.502225       -13.6662 
  68   2.0000      -0.477566       -12.9952 
  69   2.0000      -0.462778       -12.5928 
  70   2.0000      -0.461674       -12.5628 
  71   2.0000      -0.434910       -11.8345 
  72   2.0000      -0.370297       -10.0763 
  73   2.0000      -0.339034        -9.2256 
  74   2.0000      -0.330927        -9.0050 
  75   2.0000      -0.318033        -8.6541 
  76   2.0000      -0.314705        -8.5636 
  77   0.0000       0.076659         2.0860 
  78   0.0000       0.110764         3.0140 
  79   0.0000       0.124754         3.3947 
  80   0.0000       0.134565         3.6617 
  81   0.0000       0.135115         3.6767 
  82   0.0000       0.138485         3.7684 
  83   0.0000       0.143854         3.9145 
  84   0.0000       0.151215         4.1148 
  85   0.0000       0.162689         4.4270 
  86   0.0000       0.170360         4.6357 
  87   0.0000       0.180787         4.9195 
  88   0.0000       0.188054         5.1172 
  89   0.0000       0.199506         5.4288 
  90   0.0000       0.206402         5.6165 
  91   0.0000       0.214927         5.8485 
  92   0.0000       0.216317         5.8863 
  93   0.0000       0.219247         5.9660 
  94   0.0000       0.231127         6.2893 
  95   0.0000       0.235298         6.4028 
  96   0.0000       0.242721         6.6048 
  97   0.0000       0.246339         6.7032 
  98   0.0000       0.265446         7.2232 
  99   0.0000       0.280373         7.6293 
 100   0.0000       0.293168         7.9775 
 101   0.0000       0.305059         8.3011 
 102   0.0000       0.313071         8.5191 
 103   0.0000       0.314673         8.5627 
 104   0.0000       0.328400         8.9362 
 105   0.0000       0.332337         9.0433 
 106   0.0000       0.337611         9.1869 
 107   0.0000       0.355975         9.6866 
 108   0.0000       0.361594         9.8395 
 109   0.0000       0.371337        10.1046 
 110   0.0000       0.373642        10.1673 
 111   0.0000       0.376337        10.2407 
 112   0.0000       0.385209        10.4821 
 113   0.0000       0.388291        10.5659 
 114   0.0000       0.393315        10.7026 
 115   0.0000       0.399122        10.8607 
 116   0.0000       0.413595        11.2545 
 117   0.0000       0.419601        11.4179 
 118   0.0000       0.427192        11.6245 
 119   0.0000       0.436698        11.8832 
 120   0.0000       0.445505        12.1228 
 121   0.0000       0.452270        12.3069 
 122   0.0000       0.456160        12.4127 
 123   0.0000       0.457255        12.4425 
 124   0.0000       0.462052        12.5731 
 125   0.0000       0.465429        12.6650 
 126   0.0000       0.475122        12.9287 
 127   0.0000       0.483881        13.1671 
 128   0.0000       0.490033        13.3345 
 129   0.0000       0.495964        13.4959 
 130   0.0000       0.500461        13.6182 
 131   0.0000       0.512313        13.9407 
 132   0.0000       0.513416        13.9708 
 133   0.0000       0.518938        14.1210 
 134   0.0000       0.523163        14.2360 
 135   0.0000       0.527949        14.3662 
 136   0.0000       0.534815        14.5531 
 137   0.0000       0.536925        14.6105 
 138   0.0000       0.547215        14.8905 
 139   0.0000       0.551240        15.0000 
 140   0.0000       0.558832        15.2066 
 141   0.0000       0.565207        15.3801 
 142   0.0000       0.566750        15.4221 
 143   0.0000       0.572639        15.5823 
 144   0.0000       0.575700        15.6656 
 145   0.0000       0.579263        15.7625 
 146   0.0000       0.580885        15.8067 
 147   0.0000       0.590871        16.0784 
 148   0.0000       0.592822        16.1315 
 149   0.0000       0.601161        16.3584 
 150   0.0000       0.604281        16.4433 
 151   0.0000       0.609272        16.5791 
 152   0.0000       0.614626        16.7248 
 153   0.0000       0.617380        16.7998 
 154   0.0000       0.619276        16.8513 
 155   0.0000       0.623709        16.9720 
 156   0.0000       0.627168        17.0661 
 157   0.0000       0.630287        17.1510 
 158   0.0000       0.635508        17.2931 
 159   0.0000       0.643308        17.5053 
 160   0.0000       0.647283        17.6135 
 161   0.0000       0.650655        17.7052 
 162   0.0000       0.656712        17.8701 
 163   0.0000       0.657106        17.8808 
 164   0.0000       0.660759        17.9802 
 165   0.0000       0.665540        18.1103 
 166   0.0000       0.669933        18.2298 
 167   0.0000       0.674483        18.3536 
 168   0.0000       0.681123        18.5343 
 169   0.0000       0.693223        18.8636 
 170   0.0000       0.699647        19.0384 
 171   0.0000       0.706966        19.2375 
 172   0.0000       0.713606        19.4182 
 173   0.0000       0.714850        19.4521 
 174   0.0000       0.727695        19.8016 
 175   0.0000       0.730235        19.8707 
 176   0.0000       0.737790        20.0763 
 177   0.0000       0.739813        20.1313 
 178   0.0000       0.742648        20.2085 
 179   0.0000       0.750974        20.4351 
 180   0.0000       0.754632        20.5346 
 181   0.0000       0.771191        20.9852 
 182   0.0000       0.783084        21.3088 
 183   0.0000       0.791439        21.5362 
 184   0.0000       0.796255        21.6672 
 185   0.0000       0.809644        22.0315 
 186   0.0000       0.812921        22.1207 
 187   0.0000       0.824448        22.4344 
 188   0.0000       0.829499        22.5718 
 189   0.0000       0.842618        22.9288 
 190   0.0000       0.847097        23.0507 
 191   0.0000       0.851144        23.1608 
 192   0.0000       0.857532        23.3346 
 193   0.0000       0.865817        23.5601 
 194   0.0000       0.874685        23.8014 
 195   0.0000       0.880754        23.9665 
 196   0.0000       0.885183        24.0870 
 197   0.0000       0.887460        24.1490 
 198   0.0000       0.899211        24.4688 
 199   0.0000       0.910114        24.7655 
 200   0.0000       0.912550        24.8318 
 201   0.0000       0.919649        25.0249 
 202   0.0000       0.923148        25.1201 
 203   0.0000       0.937268        25.5044 
 204   0.0000       0.941341        25.6152 
 205   0.0000       0.946390        25.7526 
 206   0.0000       0.956166        26.0186 
 207   0.0000       0.962081        26.1796 
 208   0.0000       0.964859        26.2551 
 209   0.0000       0.972463        26.4621 
 210   0.0000       0.981352        26.7039 
 211   0.0000       0.988805        26.9067 
 212   0.0000       0.996440        27.1145 
 213   0.0000       0.996981        27.1292 
 214   0.0000       1.002379        27.2761 
 215   0.0000       1.016756        27.6673 
 216   0.0000       1.022104        27.8129 
 217   0.0000       1.024318        27.8731 
 218   0.0000       1.031816        28.0771 
 219   0.0000       1.035807        28.1857 
 220   0.0000       1.042887        28.3784 
 221   0.0000       1.048807        28.5395 
 222   0.0000       1.063938        28.9512 
 223   0.0000       1.068056        29.0633 
 224   0.0000       1.075015        29.2526 
 225   0.0000       1.083631        29.4871 
 226   0.0000       1.089894        29.6575 
 227   0.0000       1.098673        29.8964 
 228   0.0000       1.105147        30.0726 
 229   0.0000       1.115690        30.3595 
 230   0.0000       1.122232        30.5375 
 231   0.0000       1.139803        31.0156 
 232   0.0000       1.141969        31.0746 
 233   0.0000       1.147423        31.2230 
 234   0.0000       1.149884        31.2899 
 235   0.0000       1.159422        31.5495 
 236   0.0000       1.163008        31.6471 
 237   0.0000       1.166950        31.7543 
 238   0.0000       1.174271        31.9535 
 239   0.0000       1.186410        32.2839 
 240   0.0000       1.200948        32.6795 
 241   0.0000       1.209701        32.9176 
 242   0.0000       1.216464        33.1017 
 243   0.0000       1.221717        33.2446 
 244   0.0000       1.231389        33.5078 
 245   0.0000       1.235977        33.6326 
 246   0.0000       1.240003        33.7422 
 247   0.0000       1.240128        33.7456 
 248   0.0000       1.253604        34.1123 
 249   0.0000       1.260563        34.3017 
 250   0.0000       1.267568        34.4923 
 251   0.0000       1.269582        34.5471 
 252   0.0000       1.273659        34.6580 
 253   0.0000       1.283363        34.9221 
 254   0.0000       1.286879        35.0178 
 255   0.0000       1.293854        35.2076 
 256   0.0000       1.302470        35.4420 
 257   0.0000       1.312430        35.7130 
 258   0.0000       1.321013        35.9466 
 259   0.0000       1.335185        36.3322 
 260   0.0000       1.343969        36.5713 
 261   0.0000       1.346562        36.6418 
 262   0.0000       1.349514        36.7222 
 263   0.0000       1.362794        37.0835 
 264   0.0000       1.370713        37.2990 
 265   0.0000       1.379462        37.5371 
 266   0.0000       1.386615        37.7317 
 267   0.0000       1.389682        37.8152 
 268   0.0000       1.407479        38.2994 
 269   0.0000       1.415134        38.5077 
 270   0.0000       1.423303        38.7300 
 271   0.0000       1.430507        38.9261 
 272   0.0000       1.439165        39.1617 
 273   0.0000       1.454145        39.5693 
 274   0.0000       1.461370        39.7659 
 275   0.0000       1.463469        39.8230 
 276   0.0000       1.467972        39.9456 
 277   0.0000       1.477334        40.2003 
 278   0.0000       1.483898        40.3789 
 279   0.0000       1.486163        40.4406 
 280   0.0000       1.490601        40.5613 
 281   0.0000       1.492164        40.6039 
 282   0.0000       1.501279        40.8519 
 283   0.0000       1.511527        41.1307 
 284   0.0000       1.519263        41.3413 
 285   0.0000       1.526227        41.5307 
 286   0.0000       1.530989        41.6603 
 287   0.0000       1.540415        41.9168 
 288   0.0000       1.542717        41.9795 
 289   0.0000       1.555745        42.3340 
 290   0.0000       1.565870        42.6095 
 291   0.0000       1.570492        42.7353 
 292   0.0000       1.575277        42.8655 
 293   0.0000       1.577521        42.9265 
 294   0.0000       1.581352        43.0308 
 295   0.0000       1.588304        43.2199 
 296   0.0000       1.595482        43.4153 
 297   0.0000       1.603145        43.6238 
 298   0.0000       1.621177        44.1145 
 299   0.0000       1.635550        44.5056 
 300   0.0000       1.638638        44.5896 
 301   0.0000       1.641127        44.6573 
 302   0.0000       1.644583        44.7514 
 303   0.0000       1.660119        45.1741 
 304   0.0000       1.662876        45.2492 
 305   0.0000       1.670931        45.4683 
 306   0.0000       1.676575        45.6219 
 307   0.0000       1.686089        45.8808 
 308   0.0000       1.691706        46.0337 
 309   0.0000       1.705745        46.4157 
 310   0.0000       1.712225        46.5920 
 311   0.0000       1.716687        46.7134 
 312   0.0000       1.724978        46.9390 
 313   0.0000       1.744535        47.4712 
 314   0.0000       1.746770        47.5320 
 315   0.0000       1.753862        47.7250 
 316   0.0000       1.770143        48.1680 
 317   0.0000       1.779114        48.4121 
 318   0.0000       1.785104        48.5751 
 319   0.0000       1.794340        48.8265 
 320   0.0000       1.804466        49.1020 
 321   0.0000       1.812983        49.3338 
 322   0.0000       1.819300        49.5057 
 323   0.0000       1.836795        49.9817 
 324   0.0000       1.846343        50.2415 
 325   0.0000       1.852952        50.4214 
 326   0.0000       1.871116        50.9157 
 327   0.0000       1.901089        51.7313 
 328   0.0000       1.907254        51.8990 
 329   0.0000       1.916033        52.1379 
 330   0.0000       1.927886        52.4604 
 331   0.0000       1.932453        52.5847 
 332   0.0000       1.943061        52.8734 
 333   0.0000       1.955428        53.2099 
 334   0.0000       1.957902        53.2772 
 335   0.0000       1.978107        53.8270 
 336   0.0000       1.993298        54.2404 
 337   0.0000       2.007782        54.6345 
 338   0.0000       2.014176        54.8085 
 339   0.0000       2.019580        54.9556 
 340   0.0000       2.021254        55.0011 
 341   0.0000       2.039647        55.5016 
 342   0.0000       2.045494        55.6607 
 343   0.0000       2.085172        56.7404 
 344   0.0000       2.092526        56.9405 
 345   0.0000       2.100237        57.1504 
 346   0.0000       2.126163        57.8558 
 347   0.0000       2.138068        58.1798 
 348   0.0000       2.154958        58.6394 
 349   0.0000       2.169034        59.0224 
 350   0.0000       2.173349        59.1398 
 351   0.0000       2.178997        59.2935 
 352   0.0000       2.192500        59.6609 
 353   0.0000       2.213290        60.2267 
 354   0.0000       2.223232        60.4972 
 355   0.0000       2.247678        61.1624 
 356   0.0000       2.258571        61.4588 
 357   0.0000       2.267354        61.6978 
 358   0.0000       2.292854        62.3917 
 359   0.0000       2.298476        62.5447 
 360   0.0000       2.312957        62.9388 
 361   0.0000       2.325738        63.2865 
 362   0.0000       2.339956        63.6734 
 363   0.0000       2.350962        63.9729 
 364   0.0000       2.357284        64.1450 
 365   0.0000       2.367378        64.4196 
 366   0.0000       2.386087        64.9287 
 367   0.0000       2.394178        65.1489 
 368   0.0000       2.407675        65.5162 
 369   0.0000       2.425663        66.0057 
 370   0.0000       2.428188        66.0744 
 371   0.0000       2.445571        66.5474 
 372   0.0000       2.457119        66.8616 
 373   0.0000       2.480054        67.4857 
 374   0.0000       2.482915        67.5635 
 375   0.0000       2.489621        67.7460 
 376   0.0000       2.508714        68.2656 
 377   0.0000       2.521522        68.6141 
 378   0.0000       2.528148        68.7944 
 379   0.0000       2.543025        69.1992 
 380   0.0000       2.563282        69.7505 
 381   0.0000       2.580667        70.2235 
 382   0.0000       2.585468        70.3541 
 383   0.0000       2.603296        70.8393 
 384   0.0000       2.615373        71.1679 
 385   0.0000       2.629911        71.5635 
 386   0.0000       2.634660        71.6928 
 387   0.0000       2.643167        71.9242 
 388   0.0000       2.655558        72.2614 
 389   0.0000       2.662835        72.4594 
 390   0.0000       2.673121        72.7393 
 391   0.0000       2.678473        72.8850 
 392   0.0000       2.696027        73.3626 
 393   0.0000       2.702375        73.5354 
 394   0.0000       2.709076        73.7177 
 395   0.0000       2.727310        74.2139 
 396   0.0000       2.735204        74.4287 
 397   0.0000       2.745485        74.7084 
 398   0.0000       2.751496        74.8720 
 399   0.0000       2.756542        75.0093 
 400   0.0000       2.776837        75.5616 
 401   0.0000       2.783875        75.7531 
 402   0.0000       2.788088        75.8677 
 403   0.0000       2.801351        76.2286 
 404   0.0000       2.815259        76.6071 
 405   0.0000       2.827492        76.9400 
 406   0.0000       2.832896        77.0870 
 407   0.0000       2.846858        77.4669 
 408   0.0000       2.852546        77.6217 
 409   0.0000       2.859964        77.8236 
 410   0.0000       2.863222        77.9122 
 411   0.0000       2.874992        78.2325 
 412   0.0000       2.881924        78.4211 
 413   0.0000       2.899784        78.9071 
 414   0.0000       2.904479        79.0349 
 415   0.0000       2.907209        79.1092 
 416   0.0000       2.925347        79.6027 
 417   0.0000       2.937554        79.9349 
 418   0.0000       2.940081        80.0037 
 419   0.0000       2.949498        80.2599 
 420   0.0000       2.955805        80.4315 
 421   0.0000       2.973176        80.9042 
 422   0.0000       2.976275        80.9886 
 423   0.0000       2.989558        81.3500 
 424   0.0000       2.990404        81.3730 
 425   0.0000       3.013754        82.0084 
 426   0.0000       3.024716        82.3067 
 427   0.0000       3.031951        82.5036 
 428   0.0000       3.037056        82.6425 
 429   0.0000       3.047072        82.9150 
 430   0.0000       3.056930        83.1833 
 431   0.0000       3.059479        83.2527 
 432   0.0000       3.062805        83.3432 
 433   0.0000       3.066932        83.4555 
 434   0.0000       3.068639        83.5019 
 435   0.0000       3.079528        83.7982 
 436   0.0000       3.083551        83.9077 
 437   0.0000       3.089585        84.0719 
 438   0.0000       3.093703        84.1839 
 439   0.0000       3.105259        84.4984 
 440   0.0000       3.111390        84.6652 
 441   0.0000       3.112906        84.7065 
 442   0.0000       3.122358        84.9637 
 443   0.0000       3.132207        85.2317 
 444   0.0000       3.140882        85.4677 
 445   0.0000       3.155136        85.8556 
 446   0.0000       3.162508        86.0562 
 447   0.0000       3.165832        86.1467 
 448   0.0000       3.183827        86.6363 
 449   0.0000       3.185106        86.6711 
 450   0.0000       3.194293        86.9211 
 451   0.0000       3.198355        87.0317 
 452   0.0000       3.209022        87.3219 
 453   0.0000       3.221936        87.6733 
 454   0.0000       3.225560        87.7720 
 455   0.0000       3.229901        87.8901 
 456   0.0000       3.238317        88.1191 
 457   0.0000       3.252480        88.5045 
 458   0.0000       3.257324        88.6363 
 459   0.0000       3.258951        88.6806 
 460   0.0000       3.264504        88.8317 
 461   0.0000       3.267894        88.9239 
 462   0.0000       3.272573        89.0512 
 463   0.0000       3.283002        89.3350 
 464   0.0000       3.293304        89.6154 
 465   0.0000       3.296142        89.6926 
 466   0.0000       3.306064        89.9626 
 467   0.0000       3.309381        90.0528 
 468   0.0000       3.318807        90.3093 
 469   0.0000       3.323405        90.4344 
 470   0.0000       3.327751        90.5527 
 471   0.0000       3.333444        90.7076 
 472   0.0000       3.343638        90.9850 
 473   0.0000       3.355101        91.2969 
 474   0.0000       3.362050        91.4860 
 475   0.0000       3.374162        91.8156 
 476   0.0000       3.379203        91.9528 
 477   0.0000       3.385498        92.1241 
 478   0.0000       3.392490        92.3143 
 479   0.0000       3.397376        92.4473 
 480   0.0000       3.399509        92.5053 
 481   0.0000       3.402321        92.5819 
 482   0.0000       3.405207        92.6604 
 483   0.0000       3.409632        92.7808 
 484   0.0000       3.416292        92.9620 
 485   0.0000       3.418345        93.0179 
 486   0.0000       3.420350        93.0725 
 487   0.0000       3.434647        93.4615 
 488   0.0000       3.441045        93.6356 
 489   0.0000       3.443821        93.7111 
 490   0.0000       3.448511        93.8387 
 491   0.0000       3.450293        93.8872 
 492   0.0000       3.452501        93.9473 
 493   0.0000       3.460713        94.1708 
 494   0.0000       3.472629        94.4950 
 495   0.0000       3.475837        94.5823 
 496   0.0000       3.487109        94.8891 
 497   0.0000       3.494712        95.0959 
 498   0.0000       3.502449        95.3065 
 499   0.0000       3.514442        95.6328 
 500   0.0000       3.517097        95.7051 
 501   0.0000       3.521055        95.8128 
 502   0.0000       3.523244        95.8723 
 503   0.0000       3.541994        96.3826 
 504   0.0000       3.554510        96.7231 
 505   0.0000       3.560962        96.8987 
 506   0.0000       3.564155        96.9856 
 507   0.0000       3.565838        97.0314 
 508   0.0000       3.573099        97.2290 
 509   0.0000       3.578956        97.3884 
 510   0.0000       3.580906        97.4414 
 511   0.0000       3.596722        97.8718 
 512   0.0000       3.601022        97.9888 
 513   0.0000       3.606297        98.1323 
 514   0.0000       3.613656        98.3326 
 515   0.0000       3.620076        98.5073 
 516   0.0000       3.624218        98.6200 
 517   0.0000       3.634322        98.8949 
 518   0.0000       3.639542        99.0370 
 519   0.0000       3.649367        99.3043 
 520   0.0000       3.654846        99.4534 
 521   0.0000       3.661539        99.6355 
 522   0.0000       3.667942        99.8098 
 523   0.0000       3.672588        99.9362 
 524   0.0000       3.678538       100.0981 
 525   0.0000       3.684248       100.2535 
 526   0.0000       3.690326       100.4189 
 527   0.0000       3.692141       100.4683 
 528   0.0000       3.693323       100.5004 
 529   0.0000       3.700765       100.7029 
 530   0.0000       3.715287       101.0981 
 531   0.0000       3.719063       101.2008 
 532   0.0000       3.730350       101.5080 
 533   0.0000       3.737097       101.6916 
 534   0.0000       3.738148       101.7202 
 535   0.0000       3.741288       101.8056 
 536   0.0000       3.756321       102.2147 
 537   0.0000       3.758833       102.2830 
 538   0.0000       3.765137       102.4546 
 539   0.0000       3.780080       102.8612 
 540   0.0000       3.785836       103.0178 
 541   0.0000       3.787403       103.0605 
 542   0.0000       3.791729       103.1782 
 543   0.0000       3.799787       103.3974 
 544   0.0000       3.803691       103.5037 
 545   0.0000       3.815604       103.8279 
 546   0.0000       3.819217       103.9262 
 547   0.0000       3.827190       104.1431 
 548   0.0000       3.835770       104.3766 
 549   0.0000       3.839068       104.4664 
 550   0.0000       3.840186       104.4968 
 551   0.0000       3.854792       104.8942 
 552   0.0000       3.866191       105.2044 
 553   0.0000       3.870541       105.3228 
 554   0.0000       3.880495       105.5937 
 555   0.0000       3.888683       105.8165 
 556   0.0000       3.897954       106.0687 
 557   0.0000       3.911057       106.4253 
 558   0.0000       3.917108       106.5899 
 559   0.0000       3.922880       106.7470 
 560   0.0000       3.940115       107.2160 
 561   0.0000       3.954480       107.6069 
 562   0.0000       3.965864       107.9167 
 563   0.0000       3.973219       108.1168 
 564   0.0000       3.977417       108.2310 
 565   0.0000       3.988873       108.5427 
 566   0.0000       3.991474       108.6135 
 567   0.0000       4.000035       108.8465 
 568   0.0000       4.020140       109.3936 
 569   0.0000       4.025707       109.5451 
 570   0.0000       4.036287       109.8330 
 571   0.0000       4.039999       109.9340 
 572   0.0000       4.060719       110.4978 
 573   0.0000       4.073572       110.8475 
 574   0.0000       4.081051       111.0510 
 575   0.0000       4.081611       111.0663 
 576   0.0000       4.089376       111.2776 
 577   0.0000       4.096353       111.4674 
 578   0.0000       4.110614       111.8555 
 579   0.0000       4.112938       111.9187 
 580   0.0000       4.114430       111.9593 
 581   0.0000       4.125404       112.2580 
 582   0.0000       4.132752       112.4579 
 583   0.0000       4.137478       112.5865 
 584   0.0000       4.141480       112.6954 
 585   0.0000       4.143245       112.7434 
 586   0.0000       4.158453       113.1573 
 587   0.0000       4.161889       113.2507 
 588   0.0000       4.172895       113.5503 
 589   0.0000       4.179661       113.7344 
 590   0.0000       4.179932       113.7417 
 591   0.0000       4.182882       113.8220 
 592   0.0000       4.192087       114.0725 
 593   0.0000       4.196377       114.1892 
 594   0.0000       4.202681       114.3608 
 595   0.0000       4.208131       114.5091 
 596   0.0000       4.220671       114.8503 
 597   0.0000       4.226685       115.0139 
 598   0.0000       4.229747       115.0973 
 599   0.0000       4.233872       115.2095 
 600   0.0000       4.242289       115.4386 
 601   0.0000       4.259828       115.9158 
 602   0.0000       4.264034       116.0303 
 603   0.0000       4.271504       116.2335 
 604   0.0000       4.283877       116.5702 
 605   0.0000       4.290865       116.7604 
 606   0.0000       4.295076       116.8750 
 607   0.0000       4.308941       117.2523 
 608   0.0000       4.328186       117.7759 
 609   0.0000       4.333171       117.9116 
 610   0.0000       4.334264       117.9413 
 611   0.0000       4.353742       118.4713 
 612   0.0000       4.354567       118.4938 
 613   0.0000       4.361308       118.6772 
 614   0.0000       4.367059       118.8337 
 615   0.0000       4.372506       118.9819 
 616   0.0000       4.378016       119.1319 
 617   0.0000       4.385134       119.3256 
 618   0.0000       4.388960       119.4297 
 619   0.0000       4.400258       119.7371 
 620   0.0000       4.412552       120.0716 
 621   0.0000       4.415637       120.1556 
 622   0.0000       4.429096       120.5218 
 623   0.0000       4.436424       120.7212 
 624   0.0000       4.442571       120.8885 
 625   0.0000       4.448707       121.0555 
 626   0.0000       4.453129       121.1758 
 627   0.0000       4.463997       121.4715 
 628   0.0000       4.470062       121.6366 
 629   0.0000       4.484576       122.0315 
 630   0.0000       4.500444       122.4633 
 631   0.0000       4.504162       122.5645 
 632   0.0000       4.507804       122.6636 
 633   0.0000       4.518836       122.9638 
 634   0.0000       4.523341       123.0864 
 635   0.0000       4.535048       123.4049 
 636   0.0000       4.540664       123.5577 
 637   0.0000       4.548470       123.7702 
 638   0.0000       4.550579       123.8276 
 639   0.0000       4.567370       124.2844 
 640   0.0000       4.572251       124.4173 
 641   0.0000       4.573396       124.4484 
 642   0.0000       4.596110       125.0665 
 643   0.0000       4.605232       125.3147 
 644   0.0000       4.606404       125.3466 
 645   0.0000       4.618896       125.6865 
 646   0.0000       4.625287       125.8605 
 647   0.0000       4.632745       126.0634 
 648   0.0000       4.639942       126.2592 
 649   0.0000       4.646929       126.4494 
 650   0.0000       4.649903       126.5303 
 651   0.0000       4.665967       126.9674 
 652   0.0000       4.670421       127.0886 
 653   0.0000       4.681305       127.3848 
 654   0.0000       4.691768       127.6695 
 655   0.0000       4.702307       127.9563 
 656   0.0000       4.710003       128.1657 
 657   0.0000       4.722033       128.4931 
 658   0.0000       4.732243       128.7709 
 659   0.0000       4.744650       129.1085 
 660   0.0000       4.749478       129.2399 
 661   0.0000       4.766076       129.6915 
 662   0.0000       4.778471       130.0288 
 663   0.0000       4.789754       130.3358 
 664   0.0000       4.800563       130.6300 
 665   0.0000       4.821787       131.2075 
 666   0.0000       4.835309       131.5754 
 667   0.0000       4.842207       131.7632 
 668   0.0000       4.850272       131.9826 
 669   0.0000       4.891171       133.0955 
 670   0.0000       4.904833       133.4673 
 671   0.0000       4.913510       133.7034 
 672   0.0000       4.958312       134.9225 
 673   0.0000       4.970038       135.2416 
 674   0.0000       4.986621       135.6929 
 675   0.0000       5.001855       136.1074 
 676   0.0000       5.018571       136.5622 
 677   0.0000       5.024005       136.7101 
 678   0.0000       5.036333       137.0456 
 679   0.0000       5.041147       137.1766 
 680   0.0000       5.047405       137.3469 
 681   0.0000       5.057687       137.6267 
 682   0.0000       5.063346       137.7807 
 683   0.0000       5.073478       138.0563 
 684   0.0000       5.090087       138.5083 
 685   0.0000       5.101078       138.8074 
 686   0.0000       5.130909       139.6191 
 687   0.0000       5.143522       139.9624 
 688   0.0000       5.148024       140.0849 
 689   0.0000       5.164330       140.5286 
 690   0.0000       5.167415       140.6125 
 691   0.0000       5.177145       140.8773 
 692   0.0000       5.183592       141.0527 
 693   0.0000       5.201714       141.5458 
 694   0.0000       5.207218       141.6956 
 695   0.0000       5.215307       141.9157 
 696   0.0000       5.223452       142.1373 
 697   0.0000       5.228679       142.2796 
 698   0.0000       5.234754       142.4449 
 699   0.0000       5.243168       142.6738 
 700   0.0000       5.273384       143.4961 
 701   0.0000       5.278846       143.6447 
 702   0.0000       5.292511       144.0165 
 703   0.0000       5.307251       144.4176 
 704   0.0000       5.310583       144.5083 
 705   0.0000       5.338865       145.2779 
 706   0.0000       5.348676       145.5449 
 707   0.0000       5.353585       145.6785 
 708   0.0000       5.363763       145.9554 
 709   0.0000       5.381207       146.4301 
 710   0.0000       5.397857       146.8832 
 711   0.0000       5.413655       147.3130 
 712   0.0000       5.432867       147.8358 
 713   0.0000       5.448879       148.2715 
 714   0.0000       5.458740       148.5399 
 715   0.0000       5.475779       149.0035 
 716   0.0000       5.502126       149.7205 
 717   0.0000       5.507773       149.8741 
 718   0.0000       5.511054       149.9634 
 719   0.0000       5.524139       150.3195 
 720   0.0000       5.535923       150.6401 
 721   0.0000       5.549874       151.0198 
 722   0.0000       5.566045       151.4598 
 723   0.0000       5.579043       151.8135 
 724   0.0000       5.585318       151.9842 
 725   0.0000       5.590383       152.1220 
 726   0.0000       5.597648       152.3197 
 727   0.0000       5.604436       152.5045 
 728   0.0000       5.620290       152.9359 
 729   0.0000       5.624884       153.0609 
 730   0.0000       5.653952       153.8518 
 731   0.0000       5.659131       153.9928 
 732   0.0000       5.670717       154.3081 
 733   0.0000       5.675420       154.4360 
 734   0.0000       5.684501       154.6831 
 735   0.0000       5.705139       155.2447 
 736   0.0000       5.720636       155.6664 
 737   0.0000       5.724575       155.7736 
 738   0.0000       5.744840       156.3250 
 739   0.0000       5.762199       156.7974 
 740   0.0000       5.774627       157.1356 
 741   0.0000       5.777833       157.2228 
 742   0.0000       5.788669       157.5177 
 743   0.0000       5.815265       158.2414 
 744   0.0000       5.824371       158.4892 
 745   0.0000       5.831133       158.6732 
 746   0.0000       5.845823       159.0729 
 747   0.0000       5.888498       160.2342 
 748   0.0000       5.902515       160.6156 
 749   0.0000       5.940396       161.6464 
 750   0.0000       5.949093       161.8830 
 751   0.0000       5.959028       162.1534 
 752   0.0000       5.974874       162.5846 
 753   0.0000       5.980735       162.7441 
 754   0.0000       5.993001       163.0778 
 755   0.0000       6.045207       164.4985 
 756   0.0000       6.051710       164.6754 
 757   0.0000       6.078149       165.3948 
 758   0.0000       6.092964       165.7980 
 759   0.0000       6.113545       166.3580 
 760   0.0000       6.154359       167.4686 
 761   0.0000       6.171897       167.9458 
 762   0.0000       6.185796       168.3241 
 763   0.0000       6.214379       169.1018 
 764   0.0000       6.239679       169.7903 
 765   0.0000       6.256611       170.2511 
 766   0.0000       6.261053       170.3719 
 767   0.0000       6.276549       170.7936 
 768   0.0000       6.315385       171.8504 
 769   0.0000       6.335526       172.3984 
 770   0.0000       6.352254       172.8536 
 771   0.0000       6.371898       173.3882 
 772   0.0000       6.397143       174.0751 
 773   0.0000       6.445835       175.4001 
 774   0.0000       6.456876       175.7005 
 775   0.0000       6.489105       176.5775 
 776   0.0000       6.497614       176.8091 
 777   0.0000       6.529175       177.6679 
 778   0.0000       6.555716       178.3901 
 779   0.0000       6.563259       178.5954 
 780   0.0000       6.632938       180.4914 
 781   0.0000       6.680956       181.7981 
 782   0.0000       6.706106       182.4824 
 783   0.0000       6.743915       183.5113 
 784   0.0000       6.751199       183.7095 
 785   0.0000       6.886074       187.3796 
 786   0.0000       6.894030       187.5961 
 787   0.0000       6.914602       188.1559 
 788   0.0000       6.919421       188.2870 
 789   0.0000       7.023451       191.1178 
 790   0.0000       7.043761       191.6705 
 791   0.0000       7.059842       192.1081 
 792   0.0000       7.082947       192.7368 
 793   0.0000       7.112754       193.5479 
 794   0.0000       7.228412       196.6951 
 795   0.0000       7.256739       197.4659 
 796   0.0000       7.281835       198.1488 
 797   0.0000       7.282682       198.1718 
 798   0.0000       7.340381       199.7419 
 799   0.0000       7.353713       200.1047 
 800   0.0000       7.448390       202.6810 
 801   0.0000       7.466425       203.1718 
 802   0.0000       7.579967       206.2614 
 803   0.0000       7.589368       206.5172 
 804   0.0000       7.701171       209.5595 
 805   0.0000       7.818925       212.7638 
 806   0.0000       7.884692       214.5534 
 807   0.0000       7.934599       215.9114 
 808   0.0000       7.974363       216.9934 
 809   0.0000       9.403084       255.8709 
 810   0.0000       9.507496       258.7121 
 811   0.0000      10.620254       288.9918 
 812   0.0000      11.331327       308.3411 
 813   0.0000      11.911962       324.1410 
 814   0.0000      12.559023       341.7484 
 815   0.0000      12.907330       351.2263 
 816   0.0000      13.030968       354.5907 
 817   0.0000      13.168138       358.3233 
 818   0.0000      13.252108       360.6082 
 819   0.0000      13.399342       364.6146 
 820   0.0000      13.468480       366.4960 
 821   0.0000      13.787825       375.1858 
 822   0.0000      13.904431       378.3588 
 823   0.0000      13.926690       378.9645 
 824   0.0000      13.941204       379.3594 
 825   0.0000      14.407845       392.0574 
 826   0.0000      14.819162       403.2499 
 827   0.0000      15.959653       434.2842 

                    ********************************
                    * MULLIKEN POPULATION ANALYSIS *
                    ********************************

-----------------------
MULLIKEN ATOMIC CHARGES
-----------------------
   0 C :   -0.267191
   1 C :    0.049583
   2 O :   -0.345060
   3 C :    0.506501
   4 O :   -0.433032
   5 C :   -0.221263
   6 C :    0.132800
   7 C :   -0.267097
   8 N :   -0.129389
   9 C :    0.202076
  10 S :   -0.429331
  11 N :   -0.233186
  12 C :    0.083886
  13 C :    0.020132
  14 C :   -0.198098
  15 C :   -0.133226
  16 C :   -0.282227
  17 C :    0.319253
  18 O :   -0.359755
  19 C :   -0.262356
  20 H :    0.094651
  21 H :    0.097220
  22 H :    0.098163
  23 H :    0.094245
  24 H :    0.091422
  25 H :    0.129655
  26 H :    0.135560
  27 H :    0.092650
  28 H :    0.197204
  29 H :    0.193174
  30 H :    0.168218
  31 H :    0.163826
  32 H :    0.162129
  33 H :    0.128123
  34 H :    0.241258
  35 H :    0.159480
Sum of atomic charges:    0.0000000

--------------------------------
MULLIKEN REDUCED ORBITAL CHARGES
--------------------------------
  0 C s       :     3.257199  s :     3.257199
      pz      :     1.017261  p :     2.932872
      px      :     1.014227
      py      :     0.901384
      dz2     :     0.014882  d :     0.072668
      dxz     :     0.009962
      dyz     :     0.013430
      dx2y2   :     0.020003
      dxy     :     0.014391
      f0      :     0.000214  f :     0.004452
      f+1     :     0.000993
      f-1     :     0.000958
      f+2     :     0.000289
      f-2     :     0.000082
      f+3     :     0.000775
      f-3     :     0.001141
  1 C s       :     3.172994  s :     3.172994
      pz      :     0.789218  p :     2.618336
      px      :     0.920301
      py      :     0.908817
      dz2     :     0.032572  d :     0.147448
      dxz     :     0.023481
      dyz     :     0.035291
      dx2y2   :     0.030531
      dxy     :     0.025573
      f0      :     0.001962  f :     0.011639
      f+1     :     0.002160
      f-1     :     0.001788
      f+2     :     0.001835
      f-2     :     0.001435
      f+3     :     0.001154
      f-3     :     0.001305
  2 O s       :     3.716393  s :     3.716393
      pz      :     1.564749  p :     4.591365
      px      :     1.704065
      py      :     1.322551
      dz2     :     0.008174  d :     0.035058
      dxz     :     0.005832
      dyz     :     0.005537
      dx2y2   :     0.010435
      dxy     :     0.005080
      f0      :     0.000213  f :     0.002244
      f+1     :     0.000283
      f-1     :     0.000389
      f+2     :     0.000333
      f-2     :     0.000253
      f+3     :     0.000294
      f-3     :     0.000480
  3 C s       :     3.014481  s :     3.014481
      pz      :     0.774324  p :     2.152808
      px      :     0.697701
      py      :     0.680784
      dz2     :     0.073787  d :     0.299774
      dxz     :     0.032997
      dyz     :     0.059990
      dx2y2   :     0.073025
      dxy     :     0.059975
      f0      :     0.003328  f :     0.026436
      f+1     :     0.002587
      f-1     :     0.004267
      f+2     :     0.005632
      f-2     :     0.002452
      f+3     :     0.004659
      f-3     :     0.003510
  4 O s       :     3.767968  s :     3.767968
      pz      :     1.528224  p :     4.627747
      px      :     1.463064
      py      :     1.636460
      dz2     :     0.006824  d :     0.034919
      dxz     :     0.005925
      dyz     :     0.009425
      dx2y2   :     0.005380
      dxy     :     0.007365
      f0      :     0.000257  f :     0.002398
      f+1     :     0.000198
      f-1     :     0.000452
      f+2     :     0.000373
      f-2     :     0.000610
      f+3     :     0.000243
      f-3     :     0.000265
  5 C s       :     3.193971  s :     3.193971
      pz      :     0.978587  p :     2.934797
      px      :     1.068503
      py      :     0.887707
      dz2     :     0.013758  d :     0.081443
      dxz     :     0.008329
      dyz     :     0.023793
      dx2y2   :     0.015194
      dxy     :     0.020369
      f0      :     0.000928  f :     0.011052
      f+1     :     0.001383
      f-1     :     0.001894
      f+2     :     0.002008
      f-2     :     0.001988
      f+3     :     0.001641
      f-3     :     0.001210
  6 C s       :     3.216401  s :     3.216401
      pz      :     0.743712  p :     2.464000
      px      :     0.817178
      py      :     0.903110
      dz2     :     0.033711  d :     0.172560
      dxz     :     0.023691
      dyz     :     0.033467
      dx2y2   :     0.031695
      dxy     :     0.049996
      f0      :     0.001242  f :     0.014238
      f+1     :     0.002276
      f-1     :     0.001679
      f+2     :     0.002537
      f-2     :     0.001835
      f+3     :     0.002606
      f-3     :     0.002062
  7 C s       :     3.269609  s :     3.269609
      pz      :     1.005960  p :     2.922734
      px      :     1.019011
      py      :     0.897763
      dz2     :     0.012720  d :     0.070070
      dxz     :     0.007330
      dyz     :     0.020899
      dx2y2   :     0.018240
      dxy     :     0.010881
      f0      :     0.000659  f :     0.004682
      f+1     :     0.000594
      f-1     :     0.000456
      f+2     :     0.000745
      f-2     :     0.000618
      f+3     :     0.001040
      f-3     :     0.000571
  8 N s       :     3.352584  s :     3.352584
      pz      :     1.476718  p :     3.712369
      px      :     1.104011
      py      :     1.131640
      dz2     :     0.007713  d :     0.059643
      dxz     :     0.011029
      dyz     :     0.006617
      dx2y2   :     0.019215
      dxy     :     0.015069
      f0      :     0.000614  f :     0.004793
      f+1     :     0.000813
      f-1     :     0.000431
      f+2     :     0.000680
      f-2     :     0.000725
      f+3     :     0.000694
      f-3     :     0.000836
  9 C s       :     3.170949  s :     3.170949
      pz      :     0.691390  p :     2.354245
      px      :     0.880437
      py      :     0.782418
      dz2     :     0.027810  d :     0.255438
      dxz     :     0.042857
      dyz     :     0.051565
      dx2y2   :     0.067286
      dxy     :     0.065919
      f0      :     0.001912  f :     0.017293
      f+1     :     0.001786
      f-1     :     0.002222
      f+2     :     0.002249
      f-2     :     0.002294
      f+3     :     0.003529
      f-3     :     0.003301
 10 S s       :     5.857120  s :     5.857120
      pz      :     3.514533  p :    10.477390
      px      :     3.161302
      py      :     3.801555
      dz2     :     0.010844  d :     0.084712
      dxz     :     0.027268
      dyz     :     0.004127
      dx2y2   :     0.023462
      dxy     :     0.019011
      f0      :     0.001020  f :     0.010108
      f+1     :     0.001601
      f-1     :     0.000251
      f+2     :     0.001859
      f-2     :     0.001345
      f+3     :     0.001460
      f-3     :     0.002572
 11 N s       :     3.397723  s :     3.397723
      pz      :     1.633830  p :     3.773377
      px      :     1.097971
      py      :     1.041576
      dz2     :     0.004886  d :     0.057631
      dxz     :     0.006496
      dyz     :     0.008395
      dx2y2   :     0.017645
      dxy     :     0.020209
      f0      :     0.000649  f :     0.004455
      f+1     :     0.000684
      f-1     :     0.000741
      f+2     :     0.000545
      f-2     :     0.000232
      f+3     :     0.000725
      f-3     :     0.000879
 12 C s       :     3.112954  s :     3.112954
      pz      :     0.895043  p :     2.622190
      px      :     0.708298
      py      :     1.018848
      dz2     :     0.029480  d :     0.169861
      dxz     :     0.038913
      dyz     :     0.033458
      dx2y2   :     0.037741
      dxy     :     0.030269
      f0      :     0.001859  f :     0.011109
      f+1     :     0.001776
      f-1     :     0.001095
      f+2     :     0.001640
      f-2     :     0.001480
      f+3     :     0.001328
      f-3     :     0.001931
 13 C s       :     3.132168  s :     3.132168
      pz      :     0.904303  p :     2.728921
      px      :     0.934407
      py      :     0.890211
      dz2     :     0.022184  d :     0.107774
      dxz     :     0.027048
      dyz     :     0.021524
      dx2y2   :     0.009408
      dxy     :     0.027609
      f0      :     0.002159  f :     0.011006
      f+1     :     0.002474
[...]
      f+2     :     0.006144
      f-2     :     0.006493
      f+3     :     0.002487
      f-3     :     0.000445
 15 C s       :     2.705552  s :     2.705552
      pz      :     0.984966  p :     2.791693
      px      :     0.994183
      py      :     0.812543
      dz2     :     0.094630  d :     0.418638
      dxz     :     0.156320
      dyz     :     0.041003
      dx2y2   :     0.053670
      dxy     :     0.073016
      f0      :     0.009453  f :     0.041242
      f+1     :     0.008040
      f-1     :     0.004617
      f+2     :     0.007406
      f-2     :     0.002847
      f+3     :     0.003851
      f-3     :     0.005029
 16 C s       :     2.701167  s :     2.701167
      pz      :     0.963542  p :     2.872340
      px      :     0.995862
      py      :     0.912936
      dz2     :     0.094514  d :     0.391072
      dxz     :     0.150941
      dyz     :     0.028396
      dx2y2   :     0.054997
      dxy     :     0.062224
      f0      :     0.008462  f :     0.040487
      f+1     :     0.008486
      f-1     :     0.002927
      f+2     :     0.008280
      f-2     :     0.003872
      f+3     :     0.004228
      f-3     :     0.004232
 17 C s       :     2.701565  s :     2.701565
      pz      :     1.048984  p :     2.681833
      px      :     0.826555
      py      :     0.806294
      dz2     :     0.156725  d :     0.710013
      dxz     :     0.199806
      dyz     :     0.091116
      dx2y2   :     0.115442
      dxy     :     0.146924
      f0      :     0.019739  f :     0.099458
      f+1     :     0.016017
      f-1     :     0.007764
      f+2     :     0.017022
      f-2     :     0.008153
      f+3     :     0.012394
      f-3     :     0.018369
 18 O s       :     3.177306  s :     3.177306
      pz      :     1.381949  p :     4.349467
      px      :     1.331618
      py      :     1.635900
      dz2     :     0.023914  d :     0.075497
      dxz     :     0.018999
      dyz     :     0.000833
      dx2y2   :     0.018327
      dxy     :     0.013424
      f0      :     0.001174  f :     0.005069
      f+1     :     0.001149
      f-1     :     0.000282
      f+2     :     0.000674
      f-2     :     0.000069
      f+3     :     0.000839
      f-3     :     0.000883
 19 C s       :     2.695272  s :     2.695272
      pz      :     0.969868  p :     2.853676
      px      :     0.984767
      py      :     0.899041
      dz2     :     0.090961  d :     0.388695
      dxz     :     0.154741
      dyz     :     0.035805
      dx2y2   :     0.052926
      dxy     :     0.054263
      f0      :     0.008764  f :     0.040586
      f+1     :     0.008823
      f-1     :     0.004043
      f+2     :     0.007847
      f-2     :     0.002783
      f+3     :     0.004022
      f-3     :     0.004303
 20 H s       :     0.849307  s :     0.849307
      pz      :     0.039364  p :     0.150807
      px      :     0.071280
      py      :     0.040164
      dz2     :     0.002387  d :     0.027481
      dxz     :     0.008965
      dyz     :     0.000301
      dx2y2   :     0.007344
      dxy     :     0.008484
 21 H s       :     0.845249  s :     0.845249
      pz      :     0.058593  p :     0.150586
      px      :     0.047139
      py      :     0.044854
      dz2     :     0.008328  d :     0.027378
      dxz     :     0.005789
      dyz     :     0.005840
      dx2y2   :     0.004410
      dxy     :     0.003011
 22 H s       :     0.848374  s :     0.848374
      pz      :     0.064070  p :     0.150776
      px      :     0.043441
      py      :     0.043266
      dz2     :     0.008719  d :     0.027471
      dxz     :     0.006802
      dyz     :     0.007014
      dx2y2   :     0.003037
      dxy     :     0.001899
 23 H s       :     0.856426  s :     0.856426
      pz      :     0.063481  p :     0.144936
      px      :     0.038784
      py      :     0.042671
      dz2     :     0.008141  d :     0.026947
      dxz     :     0.006924
      dyz     :     0.007187
      dx2y2   :     0.003325
      dxy     :     0.001370
 24 H s       :     0.856484  s :     0.856484
      pz      :     0.028815  p :     0.144948
      px      :     0.076810
      py      :     0.039322
      dz2     :     0.002699  d :     0.026958
      dxz     :     0.007372
      dyz     :     0.000176
      dx2y2   :     0.008386
      dxy     :     0.008325
 25 H s       :     0.828848  s :     0.828848
      pz      :     0.039518  p :     0.149848
      px      :     0.073510
      py      :     0.036820
      dz2     :     0.002347  d :     0.027691
      dxz     :     0.009075
      dyz     :     0.000642
      dx2y2   :     0.007445
      dxy     :     0.008183
 26 H s       :     0.823498  s :     0.823498
      pz      :     0.070643  p :     0.151372
      px      :     0.043070
      py      :     0.037659
      dz2     :     0.009221  d :     0.027708
      dxz     :     0.007573
      dyz     :     0.008113
      dx2y2   :     0.001630
      dxy     :     0.001172
 27 H s       :     0.844627  s :     0.844627
      pz      :     0.049127  p :     0.150429
      px      :     0.040673
      py      :     0.060630
      dz2     :     0.005953  d :     0.027666
      dxz     :     0.002777
      dyz     :     0.006922
      dx2y2   :     0.005626
      dxy     :     0.006388
 28 H s       :     0.745606  s :     0.745606
      pz      :     0.084543  p :     0.252622
      px      :     0.050766
      py      :     0.117313
      dz2     :     0.008634  d :     0.061640
      dxz     :     0.001767
      dyz     :     0.020481
      dx2y2   :     0.014999
      dxy     :     0.015759
 29 H s       :     0.755917  s :     0.755917
      pz      :     0.093400  p :     0.259891
      px      :     0.097684
      py      :     0.068807
      dz2     :     0.005074  d :     0.061230
      dxz     :     0.015429
      dyz     :     0.009180
      dx2y2   :     0.015676
      dxy     :     0.015871
 30 H s       :     0.824255  s :     0.824255
      pz      :     0.050586  p :     0.154663
      px      :     0.030871
      py      :     0.073206
      dz2     :     0.004998  d :     0.028068
      dxz     :     0.001266
      dyz     :     0.008507
      dx2y2   :     0.007101
      dxy     :     0.006196
 31 H s       :     0.841836  s :     0.841836
      pz      :     0.034812  p :     0.162090
      px      :     0.080217
      py      :     0.047061
      dz2     :     0.002989  d :     0.027800
      dxz     :     0.008751
      dyz     :     0.000103
      dx2y2   :     0.007559
      dxy     :     0.008398
 32 H s       :     0.841770  s :     0.841770
      pz      :     0.063740  p :     0.150761
      px      :     0.047421
      py      :     0.039600
      dz2     :     0.008407  d :     0.026423
      dxz     :     0.008035
      dyz     :     0.004943
      dx2y2   :     0.002654
      dxy     :     0.002384
 33 H s       :     0.849205  s :     0.849205
      pz      :     0.069567  p :     0.159277
      px      :     0.040339
      py      :     0.049370
      dz2     :     0.009284  d :     0.027775
      dxz     :     0.007985
      dyz     :     0.007062
      dx2y2   :     0.001709
      dxy     :     0.001736
 34 H s       :     0.706663  s :     0.706663
      pz      :     0.172559  p :     0.347670
      px      :     0.070123
      py      :     0.104989
      dz2     :     0.034400  d :     0.099524
      dxz     :     0.026207
      dyz     :     0.034213
      dx2y2   :     0.002398
      dxy     :     0.002306
 35 H s       :     0.839444  s :     0.839444
      pz      :     0.064444  p :     0.158965
      px      :     0.047712
      py      :     0.046809
      dz2     :     0.008419  d :     0.028263
      dxz     :     0.008140
      dyz     :     0.005839
      dx2y2   :     0.002842
      dxy     :     0.003022


                      *****************************
                      * MAYER POPULATION ANALYSIS *
                      *****************************

  NA   - Mulliken gross atomic population
  ZA   - Total nuclear charge
  QA   - Mulliken gross atomic charge
  VA   - Mayer's total valence
  BVA  - Mayer's bonded valence
  FA   - Mayer's free valence

  ATOM       NA         ZA         QA         VA         BVA        FA
  0 C      6.2672     6.0000    -0.2672     3.8933     3.8933    -0.0000
  1 C      5.9504     6.0000     0.0496     3.8642     3.8642    -0.0000
  2 O      8.3451     8.0000    -0.3451     2.0802     2.0802     0.0000
  3 C      5.4935     6.0000     0.5065     4.1815     4.1815     0.0000
  4 O      8.4330     8.0000    -0.4330     2.0815     2.0815     0.0000
  5 C      6.2213     6.0000    -0.2213     3.6539     3.6539     0.0000
  6 C      5.8672     6.0000     0.1328     3.8773     3.8773    -0.0000
  7 C      6.2671     6.0000    -0.2671     3.9038     3.9038    -0.0000
  8 N      7.1294     7.0000    -0.1294     3.2952     3.2952     0.0000
  9 C      5.7979     6.0000     0.2021     4.1475     4.1475     0.0000
 10 S     16.4293    16.0000    -0.4293     1.7665     1.7665     0.0000
 11 N      7.2332     7.0000    -0.2332     3.2075     3.2075     0.0000
 12 C      5.9161     6.0000     0.0839     3.9048     3.9048    -0.0000
 13 C      5.9799     6.0000     0.0201     3.8115     3.8115     0.0000
 14 C      6.1981     6.0000    -0.1981     3.8500     3.8500     0.0000
 15 C      6.1332     6.0000    -0.1332     3.8210     3.8210     0.0000
 16 C      6.2822     6.0000    -0.2822     3.7938     3.7938     0.0000
 17 C      5.6807     6.0000     0.3193     3.8442     3.8442     0.0000
 18 O      8.3598     8.0000    -0.3598     2.1145     2.1145    -0.0000
 19 C      6.2624     6.0000    -0.2624     3.8449     3.8449     0.0000
 20 H      0.9053     1.0000     0.0947     0.9832     0.9832    -0.0000
 21 H      0.9028     1.0000     0.0972     0.9834     0.9834     0.0000
 22 H      0.9018     1.0000     0.0982     0.9829     0.9829    -0.0000
 23 H      0.9058     1.0000     0.0942     0.9804     0.9804    -0.0000
 24 H      0.9086     1.0000     0.0914     0.9799     0.9799     0.0000
 25 H      0.8703     1.0000     0.1297     0.9821     0.9821     0.0000
 26 H      0.8644     1.0000     0.1356     0.9789     0.9789    -0.0000
 27 H      0.9073     1.0000     0.0927     0.9851     0.9851    -0.0000
 28 H      0.8028     1.0000     0.1972     1.0214     1.0214    -0.0000
 29 H      0.8068     1.0000     0.1932     1.0146     1.0146     0.0000
 30 H      0.8318     1.0000     0.1682     0.9908     0.9908    -0.0000
 31 H      0.8362     1.0000     0.1638     0.9894     0.9894     0.0000
 32 H      0.8379     1.0000     0.1621     0.9775     0.9775    -0.0000
 33 H      0.8719     1.0000     0.1281     0.9925     0.9925     0.0000
 34 H      0.7587     1.0000     0.2413     1.0099     1.0099    -0.0000
 35 H      0.8405     1.0000     0.1595     0.9930     0.9930    -0.0000

  Mayer bond orders larger than 0.100000
B(  0-C ,  1-C ) :   0.9715 B(  0-C , 20-H ) :   0.9773 B(  0-C , 21-H ) :   0.9787 
B(  0-C , 22-H ) :   0.9768 B(  1-C ,  2-O ) :   0.9041 B(  1-C , 23-H ) :   0.9779 
B(  1-C , 24-H ) :   0.9758 B(  2-O ,  3-C ) :   1.1694 B(  3-C ,  4-O ) :   1.9562 
B(  3-C ,  5-C ) :   1.0363 B(  5-C ,  6-C ) :   1.6738 B(  5-C , 12-C ) :   0.9556 
B(  6-C ,  7-C ) :   0.9716 B(  6-C ,  8-N ) :   1.1348 B(  7-C , 25-H ) :   0.9692 
B(  7-C , 26-H ) :   0.9535 B(  7-C , 27-H ) :   0.9843 B(  8-N ,  9-C ) :   1.1895 
B(  8-N , 28-H ) :   0.9526 B(  9-C , 10-S ) :   1.6217 B(  9-C , 11-N ) :   1.2696 
B( 11-N , 12-C ) :   0.9397 B( 11-N , 29-H ) :   0.9536 B( 12-C , 13-C ) :   1.0054 
B( 12-C , 30-H ) :   0.9668 B( 13-C , 14-C ) :   1.3520 B( 13-C , 19-C ) :   1.3951 
B( 14-C , 15-C ) :   1.4019 B( 14-C , 31-H ) :   0.9598 B( 15-C , 16-C ) :   1.3635 
B( 15-C , 32-H ) :   0.9705 B( 16-C , 17-C ) :   1.3293 B( 16-C , 33-H ) :   0.9864 
B( 17-C , 18-O ) :   1.1027 B( 17-C , 19-C ) :   1.3587 B( 18-O , 34-H ) :   0.9797 
B( 19-C , 35-H ) :   0.9577 

-------
TIMINGS
-------

Total SCF time: 0 days 1 hours 29 min 15 sec 

Total time                  ....    5355.941 sec
Sum of individual times     ....    5349.881 sec  ( 99.9%)

Fock matrix formation       ....    5337.830 sec  ( 99.7%)
Diagonalization             ....       1.161 sec  (  0.0%)
Density matrix formation    ....       0.209 sec  (  0.0%)
Population analysis         ....       0.529 sec  (  0.0%)
Initial guess               ....       4.645 sec  (  0.1%)
Orbital Transformation      ....       0.000 sec  (  0.0%)
Orbital Orthonormalization  ....       0.000 sec  (  0.0%)
DIIS solution               ....       2.348 sec  (  0.0%)
SOSCF solution              ....       1.924 sec  (  0.0%)

------------------------------------------------------------------------------
                                ORCA  MP2 
------------------------------------------------------------------------------

Freezing NCore=48 chemical core electrons

-------------
RI-MP2 ENERGY
-------------
Dimension of the basis                    ...  828
Memory devoted to MP2                     ...  256 MB   
Data format for buffers                   ... DOUBLE
Compression type for matrix containers    ... UNCOMPRESSED
Overall scaling of the MP2 energy         ...   1.000e+00
Calculating two index integrals           ... done (    0.040 sec)
Cholesky decomposition of V**-1           ... done (    0.313 sec)

-----------------
RI-TRANSFORMATION (AUX index driven)
-----------------

Dimension of the orbital-basis         ... 828
Dimension of the aux-basis             ... 2141
Transformation of internal/external MOs...   24-  76 to   77- 827
Number Format for Storage              ... Double (8 Byte)
Integral mode                          ... Direct

First Phase: integral generation and transformation of MO indices
  Aux angular momentum 0               ... done (    4.702 sec)
  Aux angular momentum 1               ... done (    6.839 sec)
  Aux angular momentum 2               ... done (    8.581 sec)
  Aux angular momentum 3               ... done (    6.646 sec)
  Aux angular momentum 4               ... done (    2.337 sec)
Closing buffer VIA ( 0.63 GB; CompressionRatio= 1.00)
  Phase 1 completed in    29.296 sec
Second Phase: sorting and transformation of aux index

IA-Transformation
Memory available                       ... 167 MB 
Max. # MO pairs treated in a batch     ... 12    
# of internal orbitals                 ... 53
# batches for internal orbitals        ... 5
Closing buffer IAV ( 0.63 GB; CompressionRatio= 1.00)
(ia|v) transformation done in    19.374 sec

  Phase 2 completed in    19.378 sec
RI-Integral transformation completed in    48.744 sec
Opening buffers                              ... done

Starting loop over batches of integrals:

Operator 0  - window                       ... ( 24- 76)x( 77-827)
Operator 0  - Memory available             ...   256 MB
Operator 0  - Memory needed per MO         ...  12.3 MB
Operator 0  - Number of orbitals per batch ... 13
Operator 0  - Number of batches            ... 5

OPERATOR  0   PASS   0:  MOs    24 ...   36
  Reading integrals       ... ok
  Internal MO  26
  Internal MO  29
  Internal MO  32
  Internal MO  35
OPERATOR  0   PASS   1:  MOs    37 ...   49
  Reading integrals       ... ok
  Internal MO  38
  Internal MO  41
  Internal MO  44
  Internal MO  47
OPERATOR  0   PASS   2:  MOs    50 ...   62
  Reading integrals       ... ok
  Internal MO  50
  Internal MO  53
  Internal MO  56
  Internal MO  59
  Internal MO  62
OPERATOR  0   PASS   3:  MOs    63 ...   75
  Reading integrals       ... ok
  Internal MO  65
  Internal MO  68
  Internal MO  71
  Internal MO  74
OPERATOR  0   PASS   4:  MOs    76 ...   76
  Reading integrals       ... ok
Time spent in pair loops =    78.081 sec
Deleting buffer (Ka|jb)[aa] ...done

-----------------------------------------------
 RI-MP2 CORRELATION ENERGY:     -3.536626402 Eh
-----------------------------------------------


-------
TIMINGS
-------

Total time                :  127.289 sec
Integral trafo            :   48.753 sec ( 38.3%)
I/O of integrals          :    2.822 sec (  2.2%)
K(i,j) Operators          :   47.022 sec ( 36.9%)
T(i,j) pair energies      :    8.092 sec (  6.4%)
V-calculation             :    0.040 sec (  0.0%)
V**(-1/2)                 :    0.313 sec (  0.2%)
Gamma(ia|P)               :    0.000 sec (  0.0%)
Gamma-Trafo               :    0.000 sec (  0.0%)
D(virtual)                :    0.000 sec (  0.0%)
D(internal)               :    0.000 sec (  0.0%)
W(virtual)                :    0.000 sec (  0.0%)
W(internal)               :    0.000 sec (  0.0%)
L(virtual)                :    0.000 sec (  0.0%)
L(internal)               :    0.000 sec (  0.0%)
G(D)                      :    0.000 sec (  0.0%)
G(Z)                      :    0.000 sec (  0.0%)
Z-Vector Solution         :    0.000 sec (  0.0%)
3-Index Derivative        :    0.000 sec (  0.0%)
2-Index Derivative        :    0.000 sec (  0.0%)
Separable Gradient        :    0.000 sec (  0.0%)


---------------------------------------
MP2 TOTAL ENERGY:    -1274.343643839 Eh
---------------------------------------

-------------------------   --------------------
FINAL SINGLE POINT ENERGY     -1274.343643838623
-------------------------   --------------------


                            ***************************************
                            *     ORCA property calculations      *
                            ***************************************


  WARNING: The energy has been calculated at the MP2 level but the densities
           used in the property calculations are still SCF densities
           MP2 response densities have not been calculated 
           use %mp2 Density relaxed end
           or  %mp2 Density unrelaxed end

                                    ---------------------
                                    Active property flags
                                    ---------------------
   (+) Dipole Moment


------------------------------------------------------------------------------
                       ORCA ELECTRIC PROPERTIES CALCULATION
------------------------------------------------------------------------------

Dipole Moment Calculation                       ... on
Quadrupole Moment Calculation                   ... off
Polarizability Calculation                      ... off
GBWName                                         ... G2_CONFS/Conf116.orca.gbw
Electron density file                           ... G2_CONFS/Conf116.orca.scfp
The origin for moment calculation is the CENTER OF MASS  = (31.903443, 32.746002 33.284844)

-------------
DIPOLE MOMENT
-------------
                                X             Y             Z
Electronic contribution:      8.38851       7.13373       7.68783
Nuclear contribution   :     -9.62777      -8.01644      -7.41446
                        -----------------------------------------
Total Dipole Moment    :     -1.23925      -0.88272       0.27337
                        -----------------------------------------
Magnitude (a.u.)       :      1.54586
Magnitude (Debye)      :      3.92925



--------------------
Rotational spectrum 
--------------------
 
Rotational constants in cm-1:     0.010507     0.008709     0.006108 
Rotational constants in MHz :   314.990637   261.080372   183.098704 

 Dipole components along the rotational axes: 
x,y,z [a.u.] :    -0.668417    -1.393239     0.042093 
x,y,z [Debye]:    -1.698980    -3.541332     0.106992 

 

Timings for individual modules:

Sum of individual times         ...     5484.917 sec (=  91.415 min)
GTO integral calculation        ...        1.236 sec (=   0.021 min)   0.0 %
SCF iterations                  ...     5355.970 sec (=  89.266 min)  97.6 %
MP2 module                      ...      127.710 sec (=   2.129 min)   2.3 %
                             ****ORCA TERMINATED NORMALLY****
TOTAL RUN TIME: 0 days 1 hours 31 minutes 26 seconds 222 msec
