
                                        *****************
                                        * O   R   C   A *
                                        *****************

                                            #,                                       
                                            ###                                      
                                            ####                                     
                                            #####                                    
                                            ######                                   
                                           ########,                                 
                                     ,,################,,,,,                         
                               ,,#################################,,                 
                          ,,##########################################,,             
                       ,#########################################, ''#####,          
                    ,#############################################,,   '####,        
                  ,##################################################,,,,####,       
                ,###########''''           ''''###############################       
              ,#####''   ,,,,##########,,,,          '''####'''          '####       
            ,##' ,,,,###########################,,,                        '##       
           ' ,,###''''                  '''############,,,                           
         ,,##''                                '''############,,,,        ,,,,,,###''
      ,#''                                            '''#######################'''  
     '                                                          ''''####''''         
             ,#######,   #######,   ,#######,      ##                                
            ,#'     '#,  ##    ##  ,#'     '#,    #''#        ######   ,####,        
            ##       ##  ##   ,#'  ##            #'  '#       #        #'  '#        
            ##       ##  #######   ##           ,######,      #####,   #    #        
            '#,     ,#'  ##    ##  '#,     ,#' ,#      #,         ##   #,  ,#        
             '#######'   ##     ##  '#######'  #'      '#     #####' # '####'        



                  #######################################################
                  #                        -***-                        #
                  #          Department of theory and spectroscopy      #
                  #    Directorship and core code : Frank Neese         #
                  #        Max Planck Institute fuer Kohlenforschung    #
                  #                Kaiser Wilhelm Platz 1               #
                  #                 D-45470 Muelheim/Ruhr               #
                  #                      Germany                        #
                  #                                                     #
                  #                  All rights reserved                #
                  #                        -***-                        #
                  #######################################################


                         Program Version 5.0.0 -  RELEASE  -
                                (SVN: $Rev: 19529$)
                ($Date: 2021-06-28 11:36:33 +0200 (Mo, 28 Jun 2021) $)


 With contributions from (in alphabetic order):
   Daniel Aravena         : Magnetic Suceptibility
   Michael Atanasov       : Ab Initio Ligand Field Theory (pilot matlab implementation)
   Alexander A. Auer      : GIAO ZORA, VPT2 properties, NMR spectrum
   Ute Becker             : Parallelization
   Giovanni Bistoni       : ED, misc. LED, open-shell LED, HFLD
   Martin Brehm           : Molecular dynamics
   Dmytro Bykov           : SCF Hessian
   Vijay G. Chilkuri      : MRCI spin determinant printing, contributions to CSF-ICE
   Dipayan Datta          : RHF DLPNO-CCSD density
   Achintya Kumar Dutta   : EOM-CC, STEOM-CC
   Dmitry Ganyushin       : Spin-Orbit,Spin-Spin,Magnetic field MRCI
   Miquel Garcia          : C-PCM Hessian, Gaussian charge scheme
   Yang Guo               : DLPNO-NEVPT2, F12-NEVPT2, CIM, IAO-localization
   Andreas Hansen         : Spin unrestricted coupled pair/coupled cluster methods
   Benjamin Helmich-Paris : MC-RPA, TRAH-SCF, COSX integrals
   Lee Huntington         : MR-EOM, pCC
   Robert Izsak           : Overlap fitted RIJCOSX, COSX-SCS-MP3, EOM
   Marcus Kettner         : VPT2
   Christian Kollmar      : KDIIS, OOCD, Brueckner-CCSD(T), CCSD density, CASPT2, CASPT2-K
   Simone Kossmann        : Meta GGA functionals, TD-DFT gradient, OOMP2, MP2 Hessian
   Martin Krupicka        : Initial AUTO-CI
   Lucas Lang             : DCDCAS
   Marvin Lechner         : AUTO-CI (C++ implementation), FIC-MRCC
   Dagmar Lenk            : GEPOL surface, SMD
   Dimitrios Liakos       : Extrapolation schemes; Compound Job, initial MDCI parallelization
   Dimitrios Manganas     : Further ROCIS development; embedding schemes
   Dimitrios Pantazis     : SARC Basis sets
   Anastasios Papadopoulos: AUTO-CI, single reference methods and gradients
   Taras Petrenko         : DFT Hessian,TD-DFT gradient, ASA, ECA, R-Raman, ABS, FL, XAS/XES, NRVS
   Peter Pinski           : DLPNO-MP2, DLPNO-MP2 Gradient
   Christoph Reimann      : Effective Core Potentials
   Marius Retegan         : Local ZFS, SOC
   Christoph Riplinger    : Optimizer, TS searches, QM/MM, DLPNO-CCSD(T), (RO)-DLPNO pert. Triples
   Tobias Risthaus        : Range-separated hybrids, TD-DFT gradient, RPA, STAB
   Michael Roemelt        : Original ROCIS implementation
   Masaaki Saitow         : Open-shell DLPNO-CCSD energy and density
   Barbara Sandhoefer     : DKH picture change effects
   Avijit Sen             : IP-ROCIS
   Kantharuban Sivalingam : CASSCF convergence, NEVPT2, FIC-MRCI
   Bernardo de Souza      : ESD, SOC TD-DFT
   Georgi Stoychev        : AutoAux, RI-MP2 NMR
   Willem Van den Heuvel  : Paramagnetic NMR
   Boris Wezisla          : Elementary symmetry handling
   Frank Wennmohs         : Technical directorship


 We gratefully acknowledge several colleagues who have allowed us to
 interface, adapt or use parts of their codes:
   Stefan Grimme, W. Hujo, H. Kruse, P. Pracht,  : VdW corrections, initial TS optimization,
                  C. Bannwarth, S. Ehlert          DFT functionals, gCP, sTDA/sTD-DF
   Ed Valeev, F. Pavosevic, A. Kumar             : LibInt (2-el integral package), F12 methods
   Garnet Chan, S. Sharma, J. Yang, R. Olivares  : DMRG
   Ulf Ekstrom                                   : XCFun DFT Library
   Mihaly Kallay                                 : mrcc  (arbitrary order and MRCC methods)
   Jiri Pittner, Ondrej Demel                    : Mk-CCSD
   Frank Weinhold                                : gennbo (NPA and NBO analysis)
   Christopher J. Cramer and Donald G. Truhlar   : smd solvation model
   Lars Goerigk                                  : TD-DFT with DH, B97 family of functionals
   V. Asgeirsson, H. Jonsson                     : NEB implementation
   FAccTs GmbH                                   : IRC, NEB, NEB-TS, DLPNO-Multilevel, CI-OPT
                                                   MM, QMMM, 2- and 3-layer-ONIOM, Crystal-QMMM,
                                                   LR-CPCM, SF, NACMEs, symmetry and pop. for TD-DFT,
                                                   nearIR, NL-DFT gradient (VV10), updates on ESD,
                                                   ML-optimized integration grids
   S Lehtola, MJT Oliveira, MAL Marques          : LibXC Library
   Liviu Ungur et al                             : ANISO software


 Your calculation uses the libint2 library for the computation of 2-el integrals
 For citations please refer to: http://libint.valeyev.net

 Your ORCA version has been built with support for libXC version: 5.1.0
 For citations please refer to: https://tddft.org/programs/libxc/

 This ORCA versions uses:
   CBLAS   interface :  Fast vector & matrix operations
   LAPACKE interface :  Fast linear algebra routines
   SCALAPACK package :  Parallel linear algebra routines
   Shared memory     :  Shared parallel matrices
   BLAS/LAPACK       :  OpenBLAS 0.3.15  USE64BITINT DYNAMIC_ARCH NO_AFFINITY SkylakeX SINGLE_THREADED
        Core in use  :  SkylakeX
   Copyright (c) 2011-2014, The OpenBLAS Project


================================================================================

----- Orbital basis set information -----
Your calculation utilizes the basis: cc-pVTZ 
       H, B-Ne : Obtained from the ccRepo (grant-hill.group.shef.ac.uk/ccrepo) Feb. 2017
                 T. H. Dunning, Jr., J. Chem. Phys. 90, 1007 (1989)
            He : Obtained from the ccRepo (grant-hill.group.shef.ac.uk/ccrepo) Feb. 2017
                 D. E. Woon, T. H. Dunning, Jr., J. Chem. Phys. 100, 2975 (1994)
  Li-Be, Na-Mg : Obtained from the ccRepo (grant-hill.group.shef.ac.uk/ccrepo) Feb. 2017
                 B. P. Prascher, D. E. Woon, K. A. Peterson, T. H. Dunning, Jr., A. K. Wilson, Theor. Chem. Acc. 128, 69 (2011)
         Al-Ar : Obtained from the ccRepo (grant-hill.group.shef.ac.uk/ccrepo) Feb. 2017
                 D. E. Woon, T. H. Dunning, Jr., J. Chem. Phys. 98, 1358 (1993)
            Ca : Obtained from the Peterson Research Group Website (tyr0.chem.wsu.edu/~kipeters) Feb. 2017
                 J. Koput, K. A. Peterson, J. Phys. Chem. 106, 9595 (2002)
         Sc-Zn : Obtained from the ccRepo (grant-hill.group.shef.ac.uk/ccrepo) Feb. 2017
                 N. B. Balabanov, K. A. Peterson, J. Chem. Phys. 123, 064107 (2005)
                 N. B. Balabanov, K. A. Peterson, J. Chem. Phys. 125, 074110 (2006)
         Ga-Kr : Obtained from the ccRepo (grant-hill.group.shef.ac.uk/ccrepo) Feb. 2017
                 A. K. Wilson, D. E. Woon, K. A. Peterson, T. H. Dunning, Jr., J. Chem. Phys. 110, 7667 (1999)
             Y : Obtained from the ccRepo (grant-hill.group.shef.ac.uk/ccrepo) Feb. 2017
                 K. A. Peterson, D. Figgen, M. Dolg, H. Stoll, J. Chem. Phys. 126, 124101 (2007)
        Ag, Au : Obtained from the Peterson Research Group Website (tyr0.chem.wsu.edu/~kipeters) Feb. 2017
                 K. A. Peterson, C. Puzzarini, Theor. Chem. Acc. 114, 283 (2005)

----- AuxC basis set information -----
Your calculation utilizes the auxiliary basis: cc-pVTZ/C 
  Obtained from the EMSL Basis Set Exchange (bse.pnl.gov) Feb. 2017
  H-He, B-F, Al-Ar, Ga-Kr : F. Weigend, A. Kohn, C. Hattig, J. Chem. Phys. 116, 3175 (2002)
             Li-Be, Na-Mg : C. Haettig, Phys. Chem. Chem. Phys. 7, 59 (2005)
                       Ne : C. Haettig, Phys. Chem. Chem. Phys. 7, 59 (2005)
                            F. Weigend, A. Kohn, C. Hattig, J. Chem. Phys. 116, 3175 (2002)
                    Sc-Zn : J. G. Hill, J. A. Platts, J. Chem. Phys. 128, 044104 (2008)

================================================================================
                                        WARNINGS
                       Please study these warnings very carefully!
================================================================================


WARNING: No MP2 level density has been requested!
         To caclulate MP2 level properties use
         %mp2 Density relaxed end
         or
         %mp2 Density unrelaxed end

WARNING: Post HF methods need fully converged wavefunctions
  ===> : Setting SCFConvForced true
         You can overwrite this default with %scf ConvForced false 


INFO   : the flag for use of the SHARK integral package has been found!

================================================================================
                                       INPUT FILE
================================================================================
NAME = qm_input.solv
|  1> ! RI-MP2 cc-pVTZ cc-pVTZ/c TightSCF KeepDens NoKeepInts
|  2> 
|  3> %pointcharges "srfp_output"
|  4> 
|  5> *xyz  0  1
|  6>     C    -5.5980962   -1.7859321  -11.9375571
|  7>     C    -5.1368102   -1.2274933  -10.5981311
|  8>     O    -6.2906910   -0.9464258   -9.7879522
|  9>     C    -6.1145263   -0.3658910   -8.5799109
| 10>     O    -5.0271407    0.0453634   -8.2267119
| 11>     C    -7.3765953   -0.1785613   -7.7627473
| 12>     C    -7.3799850    0.2913011   -6.5060199
| 13>     C    -6.1287714    0.8429082   -5.6966159
| 14>     N    -8.6168984    0.2632033   -5.7525475
| 15>     C    -9.8029507   -0.2973183   -6.1858924
| 16>     S   -11.1344519   -0.4506110   -5.2499152
| 17>     N    -9.8001080   -0.5566082   -7.5369441
| 18>     C    -8.6964040   -0.3679948   -8.5125648
| 19>     C    -9.0953071    0.8850563   -9.3170554
| 20>     C    -9.2056975    0.8411816  -10.7416803
| 21>     C    -9.6488512    1.9680383  -11.4964829
| 22>     C   -10.0102291    3.1042845  -10.8124394
| 23>     C    -9.8543371    3.1851721   -9.4106811
| 24>     O   -10.1401495    4.3156235   -8.7371812
| 25>     C    -9.3501316    2.0819505   -8.6680797
| 26>     H    -6.2564646   -1.0706482  -12.4456016
| 27>     H    -6.3074753   -2.6104540  -11.7956609
| 28>     H    -4.8266469   -2.1844268  -12.6078205
| 29>     H    -4.5231372   -1.9598409  -10.0593713
| 30>     H    -4.5090948   -0.3370617  -10.7257883
| 31>     H    -5.7364799    1.6877947   -6.2758073
| 32>     H    -5.4385381   -0.0021104   -5.5838730
| 33>     H    -6.4546729    1.1211718   -4.6868896
| 34>     H    -8.5964478    0.6244972   -4.8064952
| 35>     H   -10.6717186   -0.9154928   -7.9077045
| 36>     H    -8.6822313   -1.2123924   -9.2125516
| 37>     H    -8.8989902   -0.0605802  -11.2633625
| 38>     H    -9.6229448    1.9870152  -12.5820080
| 39>     H   -10.3544156    3.9875098  -11.3423871
| 40>     H   -10.3615503    4.0822423   -7.8188980
| 41>     H    -9.1141019    2.2348332   -7.6191218
| 42> *
| 43> 
| 44>                          ****END OF INPUT****
================================================================================

                       ****************************
                       * Single Point Calculation *
                       ****************************

---------------------------------
CARTESIAN COORDINATES (ANGSTROEM)
---------------------------------
  C     -5.598096   -1.785932  -11.937557
  C     -5.136810   -1.227493  -10.598131
  O     -6.290691   -0.946426   -9.787952
  C     -6.114526   -0.365891   -8.579911
  O     -5.027141    0.045363   -8.226712
  C     -7.376595   -0.178561   -7.762747
  C     -7.379985    0.291301   -6.506020
  C     -6.128771    0.842908   -5.696616
  N     -8.616898    0.263203   -5.752548
  C     -9.802951   -0.297318   -6.185892
  S    -11.134452   -0.450611   -5.249915
  N     -9.800108   -0.556608   -7.536944
  C     -8.696404   -0.367995   -8.512565
  C     -9.095307    0.885056   -9.317055
  C     -9.205697    0.841182  -10.741680
  C     -9.648851    1.968038  -11.496483
  C    -10.010229    3.104284  -10.812439
  C     -9.854337    3.185172   -9.410681
  O    -10.140149    4.315624   -8.737181
  C     -9.350132    2.081951   -8.668080
  H     -6.256465   -1.070648  -12.445602
  H     -6.307475   -2.610454  -11.795661
  H     -4.826647   -2.184427  -12.607821
  H     -4.523137   -1.959841  -10.059371
  H     -4.509095   -0.337062  -10.725788
  H     -5.736480    1.687795   -6.275807
  H     -5.438538   -0.002110   -5.583873
  H     -6.454673    1.121172   -4.686890
  H     -8.596448    0.624497   -4.806495
  H    -10.671719   -0.915493   -7.907705
  H     -8.682231   -1.212392   -9.212552
  H     -8.898990   -0.060580  -11.263362
  H     -9.622945    1.987015  -12.582008
  H    -10.354416    3.987510  -11.342387
  H    -10.361550    4.082242   -7.818898
  H     -9.114102    2.234833   -7.619122

----------------------------
CARTESIAN COORDINATES (A.U.)
----------------------------
  NO LB      ZA    FRAG     MASS         X           Y           Z
   0 C     6.0000    0    12.011  -10.578869   -3.374923  -22.558714
   1 C     6.0000    0    12.011   -9.707164   -2.319626  -20.027565
   2 O     8.0000    0    15.999  -11.887683   -1.788486  -18.496549
   3 C     6.0000    0    12.011  -11.554780   -0.691434  -16.213682
   4 O     8.0000    0    15.999   -9.499919    0.085724  -15.546232
   5 C     6.0000    0    12.011  -13.939745   -0.337432  -14.669466
   6 C     6.0000    0    12.011  -13.946151    0.550479  -12.294596
   7 C     6.0000    0    12.011  -11.581699    1.592866  -10.765044
   8 N     7.0000    0    14.007  -16.283578    0.497382  -10.870739
   9 C     6.0000    0    12.011  -18.524892   -0.561850  -11.689643
  10 S    16.0000    0    32.060  -21.041065   -0.851531   -9.920902
  11 N     7.0000    0    14.007  -18.519520   -1.051837  -14.242760
  12 C     6.0000    0    12.011  -16.433822   -0.695409  -16.086416
  13 C     6.0000    0    12.011  -17.187640    1.672514  -17.606683
  14 C     6.0000    0    12.011  -17.396247    1.589603  -20.298834
  15 C     6.0000    0    12.011  -18.233686    3.719053  -21.725204
  16 C     6.0000    0    12.011  -18.916592    5.866248  -20.432549
  17 C     6.0000    0    12.011  -18.621998    6.019103  -17.783610
  18 O     8.0000    0    15.999  -19.162106    8.155347  -16.510880
  19 C     6.0000    0    12.011  -17.669188    3.934316  -16.380297
  20 H     1.0000    0     1.008  -11.823005   -2.023232  -23.518779
  21 H     1.0000    0     1.008  -11.919401   -4.933043  -22.290569
  22 H     1.0000    0     1.008   -9.121041   -4.127968  -23.825328
  23 H     1.0000    0     1.008   -8.547491   -3.703563  -19.009457
  24 H     1.0000    0     1.008   -8.520954   -0.636954  -20.268802
  25 H     1.0000    0     1.008  -10.840376    3.189470  -11.859557
  26 H     1.0000    0     1.008  -10.277348   -0.003988  -10.551991
  27 H     1.0000    0     1.008  -12.197564    2.118708   -8.856938
  28 H     1.0000    0     1.008  -16.244932    1.180129   -9.082960
  29 H     1.0000    0     1.008  -20.166626   -1.730031  -14.943396
  30 H     1.0000    0     1.008  -16.407039   -2.291090  -17.409200
  31 H     1.0000    0     1.008  -16.816654   -0.114480  -21.284670
  32 H     1.0000    0     1.008  -18.184730    3.754915  -23.776549
  33 H     1.0000    0     1.008  -19.567010    7.535301  -21.434005
  34 H     1.0000    0     1.008  -19.580492    7.714320  -14.775576
  35 H     1.0000    0     1.008  -17.223157    4.223223  -14.398054

--------------------------------
INTERNAL COORDINATES (ANGSTROEM)
--------------------------------
 C      0   0   0     0.000000000000     0.00000000     0.00000000
 C      1   0   0     1.522728037641     0.00000000     0.00000000
 O      2   1   0     1.437647275993   108.92108589     0.00000000
 C      3   2   1     1.351820416343   118.87963521   183.87746265
 O      4   3   2     1.215025579240   121.45024050     7.67731223
 C      4   3   2     1.515145843286   115.24649022   183.31652793
 C      6   4   3     1.341695167656   123.40664105   175.09541299
 C      7   6   4     1.589006199110   126.63380560     5.51747599
 N      7   6   4     1.448607919013   118.85277285   188.19994434
 C      9   7   6     1.381554314806   125.29284026     4.66765587
 S     10   9   7     1.634762189554   123.89628775   173.30697983
 N     10   9   7     1.375710736041   112.50332567   345.50201029
 C     12  10   9     1.485117262893   128.51761181     3.02736346
 C     13  12  10     1.541579017725   104.69971607   254.61800766
 C     14  13  12     1.429568863473   121.00356943   236.07894439
 C     15  14  13     1.426856050597   121.79707072   176.27549660
 C     16  15  14     1.374614463592   118.11268166   358.15081295
 C     17  16  15     1.412717753522   120.80268893     4.52028458
 O     18  17  16     1.346555313032   121.39469770   176.56726234
 C     14  13  12     1.385157287453   120.36193719    56.30404060
 H      1   2   3     1.096899823000   110.49258161    58.59509577
 H      1   2   3     1.096899996659   110.96462944   309.42848998
 H      1   2   3     1.096897932252   117.23718989   188.67490157
 H      2   1   3     1.096900032022   110.89573450   118.25937459
 H      2   1   3     1.096900824317   111.63501011   236.46789152
 H      8   7   6     1.096899492519   106.26197126    59.33979581
 H      8   7   6     1.096899906224   106.28523639   296.39475890
 H      8   7   6     1.096900004421   108.84491712   181.78145439
 H      9   7   6     1.012900026435   117.49364687   180.10552586
 H     12  10   9     1.012900028807   115.11771165   183.60354585
 H     13  12  10     1.096900037599   109.33291329   140.01122971
 H     15  14  13     1.086000013632   118.84128766   353.37695209
 H     16  15  14     1.086000003234   122.35455849   172.44953769
 H     17  16  15     1.085999927292   120.84656783   180.02842993
 H     19  18  17     0.973000068940   108.60076836   154.70430596
 H     20  14  13     1.085999914923   122.28966039    11.05171106

---------------------------
INTERNAL COORDINATES (A.U.)
---------------------------
 C      0   0   0     0.000000000000     0.00000000     0.00000000
 C      1   0   0     2.877538967584     0.00000000     0.00000000
 O      2   1   0     2.716759628805   108.92108589     0.00000000
 C      3   2   1     2.554570369132   118.87963521   183.87746265
 O      4   3   2     2.296065590473   121.45024050     7.67731223
 C      4   3   2     2.863210696760   115.24649022   183.31652793
 C      6   4   3     2.535436422075   123.40664105   175.09541299
 C      7   6   4     3.002786541422   126.63380560     5.51747599
 N      7   6   4     2.737472242363   118.85277285   188.19994434
 C      9   7   6     2.610759294120   125.29284026     4.66765587
 S     10   9   7     3.089252832346   123.89628775   173.30697983
 N     10   9   7     2.599716530613   112.50332567   345.50201029
 C     12  10   9     2.806464903627   128.51761181     3.02736346
 C     13  12  10     2.913162157299   104.69971607   254.61800766
 C     14  13  12     2.701493641546   121.00356943   236.07894439
 C     15  14  13     2.696367168157   121.79707072   176.27549660
 C     16  15  14     2.597644875915   118.11268166   358.15081295
 C     17  16  15     2.669649658685   120.80268893     4.52028458
 O     18  17  16     2.544620765808   121.39469770   176.56726234
 C     14  13  12     2.617567925692   120.36193719    56.30404060
 H      1   2   3     2.072840261817   110.49258161    58.59509577
 H      1   2   3     2.072840589985   110.96462944   309.42848998
 H      1   2   3     2.072836688820   117.23718989   188.67490157
 H      2   1   3     2.072840656812   110.89573450   118.25937459
 H      2   1   3     2.072842154032   111.63501011   236.46789152
 H      8   7   6     2.072839637298   106.26197126    59.33979581
 H      8   7   6     2.072840419088   106.28523639   296.39475890
 H      8   7   6     2.072840604653   108.84491712   181.78145439
 H      9   7   6     1.914103651005   117.49364687   180.10552586
 H     12  10   9     1.914103655487   115.11771165   183.60354585
 H     13  12  10     2.072840667351   109.33291329   140.01122971
 H     15  14  13     2.052242607200   118.84128766   353.37695209
 H     16  15  14     2.052242587550   122.35455849   172.44953769
 H     17  16  15     2.052242444040   120.84656783   180.02842993
 H     19  18  17     1.838703658582   108.60076836   154.70430596
 H     20  14  13     2.052242420667   122.28966039    11.05171106

---------------------
BASIS SET INFORMATION
---------------------
There are 5 groups of distinct atoms

 Group   1 Type C   : 18s5p2d1f contracted to 4s3p2d1f pattern {8811/311/11/1}
 Group   2 Type O   : 18s5p2d1f contracted to 4s3p2d1f pattern {8811/311/11/1}
 Group   3 Type N   : 18s5p2d1f contracted to 4s3p2d1f pattern {8811/311/11/1}
 Group   4 Type S   : 41s16p2d1f contracted to 5s4p2d1f pattern {13131311/7711/11/1}
 Group   5 Type H   : 5s2p1d contracted to 3s2p1d pattern {311/11/1}

Atom   0C    basis set group =>   1
Atom   1C    basis set group =>   1
Atom   2O    basis set group =>   2
Atom   3C    basis set group =>   1
Atom   4O    basis set group =>   2
Atom   5C    basis set group =>   1
Atom   6C    basis set group =>   1
Atom   7C    basis set group =>   1
Atom   8N    basis set group =>   3
Atom   9C    basis set group =>   1
Atom  10S    basis set group =>   4
Atom  11N    basis set group =>   3
Atom  12C    basis set group =>   1
Atom  13C    basis set group =>   1
Atom  14C    basis set group =>   1
Atom  15C    basis set group =>   1
Atom  16C    basis set group =>   1
Atom  17C    basis set group =>   1
Atom  18O    basis set group =>   2
Atom  19C    basis set group =>   1
Atom  20H    basis set group =>   5
Atom  21H    basis set group =>   5
Atom  22H    basis set group =>   5
Atom  23H    basis set group =>   5
Atom  24H    basis set group =>   5
Atom  25H    basis set group =>   5
Atom  26H    basis set group =>   5
Atom  27H    basis set group =>   5
Atom  28H    basis set group =>   5
Atom  29H    basis set group =>   5
Atom  30H    basis set group =>   5
Atom  31H    basis set group =>   5
Atom  32H    basis set group =>   5
Atom  33H    basis set group =>   5
Atom  34H    basis set group =>   5
Atom  35H    basis set group =>   5
---------------------------------
AUXILIARY/C BASIS SET INFORMATION
---------------------------------
There are 5 groups of distinct atoms

 Group   1 Type C   : 8s6p5d3f1g contracted to 8s6p5d3f1g pattern {11111111/111111/11111/111/1}
 Group   2 Type O   : 8s6p5d3f1g contracted to 8s6p5d3f1g pattern {11111111/111111/11111/111/1}
 Group   3 Type N   : 8s6p5d3f1g contracted to 8s6p5d3f1g pattern {11111111/111111/11111/111/1}
 Group   4 Type S   : 10s8p7d5f2g contracted to 10s8p7d5f2g pattern {1111111111/11111111/1111111/11111/11}
 Group   5 Type H   : 4s3p2d1f contracted to 4s3p2d1f pattern {1111/111/11/1}

Atom   0C    basis set group =>   1
Atom   1C    basis set group =>   1
Atom   2O    basis set group =>   2
Atom   3C    basis set group =>   1
Atom   4O    basis set group =>   2
Atom   5C    basis set group =>   1
Atom   6C    basis set group =>   1
Atom   7C    basis set group =>   1
Atom   8N    basis set group =>   3
Atom   9C    basis set group =>   1
Atom  10S    basis set group =>   4
Atom  11N    basis set group =>   3
Atom  12C    basis set group =>   1
Atom  13C    basis set group =>   1
Atom  14C    basis set group =>   1
Atom  15C    basis set group =>   1
Atom  16C    basis set group =>   1
Atom  17C    basis set group =>   1
Atom  18O    basis set group =>   2
Atom  19C    basis set group =>   1
Atom  20H    basis set group =>   5
Atom  21H    basis set group =>   5
Atom  22H    basis set group =>   5
Atom  23H    basis set group =>   5
Atom  24H    basis set group =>   5
Atom  25H    basis set group =>   5
Atom  26H    basis set group =>   5
Atom  27H    basis set group =>   5
Atom  28H    basis set group =>   5
Atom  29H    basis set group =>   5
Atom  30H    basis set group =>   5
Atom  31H    basis set group =>   5
Atom  32H    basis set group =>   5
Atom  33H    basis set group =>   5
Atom  34H    basis set group =>   5
Atom  35H    basis set group =>   5
------------------------------------------------------------------------------
                           ORCA GTO INTEGRAL CALCULATION
------------------------------------------------------------------------------
------------------------------------------------------------------------------
                   ___                                                        
                  /   \      - P O W E R E D   B Y -                         
                 /     \                                                     
                 |  |  |   _    _      __       _____    __    __             
                 |  |  |  | |  | |    /  \     |  _  \  |  |  /  |          
                  \  \/   | |  | |   /    \    | | | |  |  | /  /          
                 / \  \   | |__| |  /  /\  \   | |_| |  |  |/  /          
                |  |  |   |  __  | /  /__\  \  |    /   |      \           
                |  |  |   | |  | | |   __   |  |    \   |  |\   \          
                \     /   | |  | | |  |  |  |  | |\  \  |  | \   \       
                 \___/    |_|  |_| |__|  |__|  |_| \__\ |__|  \__/        
                                                                              
                      - O R C A' S   B I G   F R I E N D -                    
                                      &                                       
                       - I N T E G R A L  F E E D E R -                       
                                                                              
 v1 FN, 2020, v2 2021                                                         
------------------------------------------------------------------------------


Reading SHARK input file qm_input.solv.SHARKINP.tmp ... ok
----------------------
SHARK INTEGRAL PACKAGE
----------------------

Number of atoms                             ...     36
Number of basis functions                   ...    828
Number of shells                            ...    298
Maximum angular momentum                    ...      3
Integral batch strategy                     ... SHARK/LIBINT Hybrid
RI-J (if used) integral strategy            ... SPLIT-RIJ (Revised 2003 algorithm where possible)
Printlevel                                  ...      1
Contraction scheme used                     ... SEGMENTED contraction
Coulomb Range Separation                    ... NOT USED
Exchange Range Separation                   ... NOT USED
Finite Nucleus Model                        ... NOT USED
Auxiliary Coulomb fitting basis             ... NOT available
Auxiliary J/K fitting basis                 ... NOT available
Auxiliary Correlation fitting basis         ... AVAILABLE
   # of basis functions in Aux-C            ...   2141
   # of shells in Aux-C                     ...    629
   Maximum angular momentum in Aux-C        ...      4
Auxiliary 'external' fitting basis          ... NOT available
Integral threshold                          ...     2.500000e-11
Primitive cut-off                           ...     2.500000e-12
Primitive pair pre-selection threshold      ...     2.500000e-12

Calculating pre-screening integrals         ... done (  0.6 sec) Dimension = 298
Organizing shell pair data                  ... done (  0.4 sec)
Shell pair information
Total number of shell pairs                 ...     44551
Shell pairs after pre-screening             ...     32563
Total number of primitive shell pairs       ...    234348
Primitive shell pairs kept                  ...     93588
          la=0 lb=0:   6526 shell pairs
          la=1 lb=0:   9068 shell pairs
          la=1 lb=1:   3194 shell pairs
          la=2 lb=0:   5196 shell pairs
          la=2 lb=1:   3567 shell pairs
          la=2 lb=2:   1006 shell pairs
          la=3 lb=0:   1870 shell pairs
          la=3 lb=1:   1283 shell pairs
          la=3 lb=2:    712 shell pairs
          la=3 lb=3:    141 shell pairs

Reading point charge file                   ... ok (45390 point charges)
Calculating one electron integrals          ... done (236.7 sec)
Calculating RI/C V-Matrix + Cholesky decomp.... done (  0.4 sec)
Calculating Nuclear repulsion               ... (+Point charges) done (  0.0 sec) ENN=   2229.946138244510 Eh

SHARK setup successfully completed in 238.3 seconds

Maximum memory used throughout the entire GTOINT-calculation: 481.1 MB
ENUC WAS=  0.000000000
ENUC IS =  0.000000000
-------------------------------------------------------------------------------
                                 ORCA SCF
-------------------------------------------------------------------------------

------------
SCF SETTINGS
------------
Hamiltonian:
 Ab initio Hamiltonian  Method          .... Hartree-Fock(GTOs)


General Settings:
 Integral files         IntName         .... qm_input.solv
 Hartree-Fock type      HFTyp           .... RHF
 Total Charge           Charge          ....    0
 Multiplicity           Mult            ....    1
 Number of Electrons    NEL             ....  154
 Basis Dimension        Dim             ....  828
 Nuclear Repulsion      ENuc            ....   2229.9461382445 Eh

Convergence Acceleration:
 DIIS                   CNVDIIS         .... on
   Start iteration      DIISMaxIt       ....    12
   Startup error        DIISStart       ....  0.200000
   # of expansion vecs  DIISMaxEq       ....     5
   Bias factor          DIISBfac        ....   1.050
   Max. coefficient     DIISMaxC        ....  10.000
 Trust-Rad. Augm. Hess. CNVTRAH         .... auto
   Auto Start mean grad. ratio tolernc. ....  1.125000
   Auto Start start iteration           ....    20
   Auto Start num. interpolation iter.  ....    10
   Max. Number of Micro iterations      ....    16
   Max. Number of Macro iterations      .... Maxiter - #DIIS iter
   Number of Davidson start vectors     ....     2
   Converg. threshold I  (grad. norm)   ....   1.000e-05
   Converg. threshold II (energy diff.) ....   1.000e-08
   Grad. Scal. Fac. for Micro threshold ....   0.100
   Minimum threshold for Micro iter.    ....   0.010
   NR start threshold (gradient norm)   ....   0.001
   Initial trust radius                 ....   0.400
   Minimum AH scaling param. (alpha)    ....   1.000
   Maximum AH scaling param. (alpha)    .... 1000.000
   Orbital update algorithm             .... Taylor
   White noise on init. David. guess    .... on
   Maximum white noise                  ....   0.010
   Quad. conv. algorithm                .... NR
 SOSCF                  CNVSOSCF        .... on
   Start iteration      SOSCFMaxIt      ....   150
   Startup grad/error   SOSCFStart      ....  0.003300
 Level Shifting         CNVShift        .... on
   Level shift para.    LevelShift      ....    0.2500
   Turn off err/grad.   ShiftErr        ....    0.0010
 Zerner damping         CNVZerner       .... off
 Static damping         CNVDamp         .... on
   Fraction old density DampFac         ....    0.7000
   Max. Damping (<1)    DampMax         ....    0.9800
   Min. Damping (>=0)   DampMin         ....    0.0000
   Turn off err/grad.   DampErr         ....    0.1000
 Fernandez-Rico         CNVRico         .... off

SCF Procedure:
 Maximum # iterations   MaxIter         ....   125
 SCF integral mode      SCFMode         .... Direct
   Integral package                     .... SHARK and LIBINT hybrid scheme
 Reset frequency        DirectResetFreq ....    20
 Integral Threshold     Thresh          ....  2.500e-11 Eh
 Primitive CutOff       TCut            ....  2.500e-12 Eh

Convergence Tolerance:
 Convergence Check Mode ConvCheckMode   .... Total+1el-Energy
 Convergence forced     ConvForced      .... 1
 Energy Change          TolE            ....  1.000e-08 Eh
 1-El. energy change                    ....  1.000e-05 Eh
 Orbital Gradient       TolG            ....  1.000e-05
 Orbital Rotation angle TolX            ....  1.000e-05
 DIIS Error             TolErr          ....  5.000e-07


Diagonalization of the overlap matrix:
Smallest eigenvalue                        ... 3.709e-05
Time for diagonalization                   ...    0.155 sec
Threshold for overlap eigenvalues          ... 1.000e-08
Number of eigenvalues below threshold      ... 0
Time for construction of square roots      ...    0.063 sec
Total time needed                          ...    0.221 sec

Time for model grid setup =    1.700 sec

------------------------------
INITIAL GUESS: MODEL POTENTIAL
------------------------------
Loading Hartree-Fock densities                     ... done
Calculating cut-offs                               ... done
Initializing the effective Hamiltonian             ... done
Setting up the integral package (SHARK)            ... done
Starting the Coulomb interaction                   ... done (   4.4 sec)
Reading the grid                                   ... done
Mapping shells                                     ... done
Starting the XC term evaluation                    ... done (   1.5 sec)
Transforming the Hamiltonian                       ... done (   0.1 sec)
Diagonalizing the Hamiltonian                      ... done (   0.2 sec)
Back transforming the eigenvectors                 ... done (   0.0 sec)
Now organizing SCF variables                       ... done
                      ------------------
                      INITIAL GUESS DONE (   7.9 sec)
                      ------------------
--------------
SCF ITERATIONS
--------------
ITER       Energy         Delta-E        Max-DP      RMS-DP      [F,P]     Damp
               ***  Starting incremental Fock matrix formation  ***
  0  -1270.0550190273   0.000000000000 0.07764946  0.00048293  0.3681791 0.7000
  1  -1270.3410630020  -0.286043974690 0.07152261  0.00039533  0.2145023 0.7000
                               ***Turning on DIIS***
  2  -1270.5181797993  -0.177116797285 0.04089103  0.00025773  0.1139509 0.7000
  3  -1272.5072502478  -1.989070448535 0.06410279  0.00051849  0.0840945 0.0000
  4  -1270.8529846392   1.654265608579 0.02373931  0.00010583  0.0074221 0.0000
  5  -1270.9029335393  -0.049948900098 0.00738073  0.00005227  0.0043952 0.0000
  6  -1270.8842861532   0.018647386129 0.00234925  0.00002542  0.0033197 0.0000
                      *** Initiating the SOSCF procedure ***
                           *** Shutting down DIIS ***
                      *** Re-Reading the Fockian *** 
                      *** Removing any level shift *** 
ITER      Energy       Delta-E        Grad      Rot      Max-DP    RMS-DP
  7  -1270.90016861  -0.0158824585  0.001120  0.001120  0.001424  0.000014
               *** Restarting incremental Fock matrix formation ***
  8  -1270.90123954  -0.0010709233  0.000491  0.001114  0.000642  0.000007
  9  -1270.90125296  -0.0000134264  0.000255  0.001395  0.000714  0.000009
 10  -1270.90125806  -0.0000050955  0.000062  0.000132  0.000148  0.000002
 11  -1270.90125856  -0.0000005076  0.000030  0.000073  0.000064  0.000001
 12  -1270.90125865  -0.0000000873  0.000014  0.000046  0.000023  0.000000
 13  -1270.90125867  -0.0000000136  0.000008  0.000038  0.000017  0.000000
 14  -1270.90125867  -0.0000000076  0.000003  0.000008  0.000006  0.000000
                  ***Gradient check signals convergence***
              ***Rediagonalizing the Fockian in SOSCF/NRSCF***

               *****************************************************
               *                     SUCCESS                       *
               *           SCF CONVERGED AFTER  15 CYCLES          *
               *****************************************************


----------------
TOTAL SCF ENERGY
----------------

Total Energy       :        -1270.90125867 Eh          -34582.98141 eV

Components:
Nuclear Repulsion  :         2229.94613824 Eh           60679.91933 eV
Electronic Energy  :        -3500.84739692 Eh          -95262.90074 eV
One Electron Energy:        -5638.02510227 Eh         -153418.46268 eV
Two Electron Energy:         2137.17770536 Eh           58155.56193 eV

Virial components:
Potential Energy   :        -2539.68804855 Eh          -69108.42521 eV
Kinetic Energy     :         1268.78678987 Eh           34525.44379 eV
Virial Ratio       :            2.00166653


---------------
SCF CONVERGENCE
---------------

  Last Energy change         ...    1.2587e-09  Tolerance :   1.0000e-08
  Last MAX-Density change    ...    2.0936e-06  Tolerance :   1.0000e-07
  Last RMS-Density change    ...    2.2670e-08  Tolerance :   5.0000e-09
  Last Orbital Gradient      ...    5.0532e-07  Tolerance :   1.0000e-05
  Last Orbital Rotation      ...    1.4454e-06  Tolerance :   1.0000e-05

             **** THE GBW FILE WAS UPDATED (qm_input.solv.gbw) ****
             **** DENSITY qm_input.solv.scfp WAS UPDATED ****
             **** ENERGY FILE WAS UPDATED (qm_input.solv.en.tmp) ****
             **** THE GBW FILE WAS UPDATED (qm_input.solv.gbw) ****
             **** DENSITY qm_input.solv.scfp WAS UPDATED ****
----------------
ORBITAL ENERGIES
----------------

  NO   OCC          E(Eh)            E(eV) 
   0   2.0000     -95.431634     -2596.8268 
   1   2.0000     -24.139954      -656.8815 
   2   2.0000     -24.118908      -656.3088 
   3   2.0000     -24.085140      -655.3900 
   4   2.0000     -19.146550      -521.0041 
   5   2.0000     -19.128864      -520.5229 
   6   2.0000     -14.936659      -406.4472 
   7   2.0000     -14.919516      -405.9807 
   8   2.0000     -14.863422      -404.4543 
   9   2.0000     -14.842488      -403.8846 
  10   2.0000     -14.835133      -403.6845 
  11   2.0000     -14.817612      -403.2077 
  12   2.0000     -14.787461      -402.3873 
  13   2.0000     -14.785502      -402.3340 
  14   2.0000     -14.778270      -402.1372 
  15   2.0000     -14.776304      -402.0837 
  16   2.0000     -14.768136      -401.8614 
  17   2.0000     -14.766093      -401.8058 
  18   2.0000     -14.765243      -401.7827 
  19   2.0000     -14.743904      -401.2020 
  20   2.0000     -12.438480      -338.4682 
  21   2.0000     -10.120455      -275.3916 
  22   2.0000     -10.118319      -275.3335 
  23   2.0000     -10.117834      -275.3203 
  24   2.0000      -4.998385      -136.0130 
  25   2.0000      -4.943484      -134.5190 
  26   2.0000      -4.899761      -133.3293 
  27   2.0000      -4.851896      -132.0268 
  28   2.0000      -4.745212      -129.1238 
  29   2.0000      -4.682405      -127.4147 
  30   2.0000      -4.646991      -126.4511 
  31   2.0000      -4.569373      -124.3390 
  32   2.0000      -4.563739      -124.1857 
  33   2.0000      -4.531704      -123.3139 
  34   2.0000      -4.521446      -123.0348 
  35   2.0000      -4.509236      -122.7025 
  36   2.0000      -4.446107      -120.9847 
  37   2.0000      -4.416033      -120.1664 
  38   2.0000      -4.374637      -119.0399 
  39   2.0000      -4.365374      -118.7879 
  40   2.0000      -4.345137      -118.2372 
  41   2.0000      -4.336017      -117.9890 
  42   2.0000      -4.292976      -116.8178 
  43   2.0000      -4.264751      -116.0498 
  44   2.0000      -4.243677      -115.4763 
  45   2.0000      -4.226385      -115.0058 
  46   2.0000      -4.218480      -114.7907 
  47   2.0000      -4.211828      -114.6097 
  48   2.0000      -4.199958      -114.2867 
  49   2.0000      -4.186088      -113.9093 
  50   2.0000      -4.169614      -113.4610 
  51   2.0000      -4.157477      -113.1307 
  52   2.0000      -4.149110      -112.9030 
  53   2.0000      -4.147198      -112.8510 
  54   2.0000      -4.127981      -112.3281 
  55   2.0000      -4.123215      -112.1984 
  56   2.0000      -4.111191      -111.8712 
  57   2.0000      -4.102849      -111.6442 
  58   2.0000      -4.092922      -111.3741 
  59   2.0000      -4.090078      -111.2967 
  60   2.0000      -4.081934      -111.0751 
  61   2.0000      -4.077734      -110.9608 
  62   2.0000      -4.061816      -110.5276 
  63   2.0000      -4.052466      -110.2732 
  64   2.0000      -4.047018      -110.1250 
  65   2.0000      -4.038142      -109.8834 
  66   2.0000      -4.033756      -109.7641 
  67   2.0000      -4.030322      -109.6706 
  68   2.0000      -4.008468      -109.0760 
  69   2.0000      -3.994732      -108.7022 
  70   2.0000      -3.987807      -108.5138 
  71   2.0000      -3.977560      -108.2349 
  72   2.0000      -3.888408      -105.8090 
  73   2.0000      -3.883566      -105.6772 
  74   2.0000      -3.874118      -105.4201 
  75   2.0000      -3.858484      -104.9947 
  76   2.0000      -3.843948      -104.5991 
  77   0.0000      -3.454864       -94.0116 
  78   0.0000      -3.415036       -92.9278 
  79   0.0000      -3.395781       -92.4039 
  80   0.0000      -3.381746       -92.0220 
  81   0.0000      -3.374435       -91.8230 
  82   0.0000      -3.366692       -91.6123 
  83   0.0000      -3.355040       -91.2953 
  84   0.0000      -3.344425       -91.0064 
  85   0.0000      -3.334826       -90.7452 
  86   0.0000      -3.326542       -90.5198 
  87   0.0000      -3.324090       -90.4531 
  88   0.0000      -3.317362       -90.2700 
  89   0.0000      -3.311811       -90.1190 
  90   0.0000      -3.306229       -89.9671 
  91   0.0000      -3.301876       -89.8486 
  92   0.0000      -3.299083       -89.7726 
  93   0.0000      -3.287867       -89.4674 
  94   0.0000      -3.280686       -89.2720 
  95   0.0000      -3.274607       -89.1066 
  96   0.0000      -3.270649       -88.9989 
  97   0.0000      -3.261784       -88.7576 
  98   0.0000      -3.252156       -88.4957 
  99   0.0000      -3.243834       -88.2692 
 100   0.0000      -3.234104       -88.0044 
 101   0.0000      -3.216783       -87.5331 
 102   0.0000      -3.201102       -87.1064 
 103   0.0000      -3.197871       -87.0185 
 104   0.0000      -3.195482       -86.9535 
 105   0.0000      -3.183031       -86.6147 
 106   0.0000      -3.178104       -86.4806 
 107   0.0000      -3.175264       -86.4033 
 108   0.0000      -3.159574       -85.9764 
 109   0.0000      -3.153160       -85.8018 
 110   0.0000      -3.147200       -85.6397 
 111   0.0000      -3.142668       -85.5163 
 112   0.0000      -3.135508       -85.3215 
 113   0.0000      -3.122643       -84.9714 
 114   0.0000      -3.119922       -84.8974 
 115   0.0000      -3.118817       -84.8673 
 116   0.0000      -3.108527       -84.5873 
 117   0.0000      -3.105335       -84.5005 
 118   0.0000      -3.099958       -84.3541 
 119   0.0000      -3.094130       -84.1956 
 120   0.0000      -3.085155       -83.9513 
 121   0.0000      -3.075803       -83.6968 
 122   0.0000      -3.073575       -83.6362 
 123   0.0000      -3.067521       -83.4715 
 124   0.0000      -3.062844       -83.3442 
 125   0.0000      -3.060031       -83.2677 
 126   0.0000      -3.051182       -83.0269 
 127   0.0000      -3.046795       -82.9075 
 128   0.0000      -3.038813       -82.6903 
 129   0.0000      -3.036476       -82.6267 
 130   0.0000      -3.028719       -82.4156 
 131   0.0000      -3.024513       -82.3012 
 132   0.0000      -3.020591       -82.1945 
 133   0.0000      -3.019566       -82.1666 
 134   0.0000      -3.007683       -81.8432 
 135   0.0000      -3.005208       -81.7759 
 136   0.0000      -2.995185       -81.5031 
 137   0.0000      -2.988998       -81.3348 
 138   0.0000      -2.984993       -81.2258 
 139   0.0000      -2.979217       -81.0686 
 140   0.0000      -2.972545       -80.8871 
 141   0.0000      -2.965404       -80.6927 
 142   0.0000      -2.961862       -80.5964 
 143   0.0000      -2.959217       -80.5244 
 144   0.0000      -2.949177       -80.2512 
 145   0.0000      -2.944309       -80.1187 
 146   0.0000      -2.941777       -80.0498 
 147   0.0000      -2.933924       -79.8361 
 148   0.0000      -2.928536       -79.6895 
 149   0.0000      -2.924003       -79.5662 
 150   0.0000      -2.920380       -79.4676 
 151   0.0000      -2.915058       -79.3228 
 152   0.0000      -2.912857       -79.2629 
 153   0.0000      -2.902382       -78.9778 
 154   0.0000      -2.898881       -78.8826 
 155   0.0000      -2.892829       -78.7179 
 156   0.0000      -2.890552       -78.6559 
 157   0.0000      -2.886937       -78.5575 
 158   0.0000      -2.883902       -78.4750 
 159   0.0000      -2.882566       -78.4386 
 160   0.0000      -2.875889       -78.2569 
 161   0.0000      -2.871131       -78.1274 
 162   0.0000      -2.862883       -77.9030 
 163   0.0000      -2.855594       -77.7047 
 164   0.0000      -2.849125       -77.5286 
 165   0.0000      -2.844815       -77.4113 
 166   0.0000      -2.840905       -77.3050 
 167   0.0000      -2.836316       -77.1801 
 168   0.0000      -2.831830       -77.0580 
 169   0.0000      -2.827573       -76.9422 
 170   0.0000      -2.823810       -76.8398 
 171   0.0000      -2.815600       -76.6164 
 172   0.0000      -2.811361       -76.5010 
 173   0.0000      -2.809538       -76.4514 
 174   0.0000      -2.806568       -76.3706 
 175   0.0000      -2.796079       -76.0852 
 176   0.0000      -2.789103       -75.8954 
 177   0.0000      -2.784537       -75.7711 
 178   0.0000      -2.774381       -75.4948 
 179   0.0000      -2.768581       -75.3369 
 180   0.0000      -2.759596       -75.0924 
 181   0.0000      -2.755965       -74.9936 
 182   0.0000      -2.750608       -74.8479 
 183   0.0000      -2.737342       -74.4869 
 184   0.0000      -2.731215       -74.3201 
 185   0.0000      -2.722017       -74.0698 
 186   0.0000      -2.720344       -74.0243 
 187   0.0000      -2.706960       -73.6601 
 188   0.0000      -2.701623       -73.5149 
 189   0.0000      -2.689608       -73.1880 
 190   0.0000      -2.686756       -73.1104 
 191   0.0000      -2.681772       -72.9747 
 192   0.0000      -2.676500       -72.8313 
 193   0.0000      -2.667703       -72.5919 
 194   0.0000      -2.658389       -72.3385 
 195   0.0000      -2.655409       -72.2574 
 196   0.0000      -2.645453       -71.9864 
 197   0.0000      -2.638181       -71.7885 
 198   0.0000      -2.631402       -71.6041 
 199   0.0000      -2.626234       -71.4635 
 200   0.0000      -2.613223       -71.1094 
 201   0.0000      -2.609206       -71.0001 
 202   0.0000      -2.601703       -70.7959 
 203   0.0000      -2.592994       -70.5590 
 204   0.0000      -2.592880       -70.5559 
 205   0.0000      -2.585024       -70.3421 
 206   0.0000      -2.572237       -69.9941 
 207   0.0000      -2.567392       -69.8623 
 208   0.0000      -2.561687       -69.7070 
 209   0.0000      -2.554657       -69.5158 
 210   0.0000      -2.548102       -69.3374 
 211   0.0000      -2.535262       -68.9880 
 212   0.0000      -2.529525       -68.8319 
 213   0.0000      -2.520897       -68.5971 
 214   0.0000      -2.519495       -68.5590 
 215   0.0000      -2.511256       -68.3347 
 216   0.0000      -2.505586       -68.1805 
 217   0.0000      -2.495535       -67.9070 
 218   0.0000      -2.484337       -67.6022 
 219   0.0000      -2.480830       -67.5068 
 220   0.0000      -2.467101       -67.1332 
 221   0.0000      -2.461272       -66.9746 
 222   0.0000      -2.451649       -66.7128 
 223   0.0000      -2.449453       -66.6530 
 224   0.0000      -2.436838       -66.3097 
 225   0.0000      -2.429948       -66.1223 
 226   0.0000      -2.423295       -65.9412 
 227   0.0000      -2.417905       -65.7946 
 228   0.0000      -2.409010       -65.5525 
 229   0.0000      -2.405605       -65.4598 
 230   0.0000      -2.394702       -65.1632 
 231   0.0000      -2.384464       -64.8846 
 232   0.0000      -2.378656       -64.7265 
 233   0.0000      -2.376552       -64.6693 
 234   0.0000      -2.365748       -64.3753 
 235   0.0000      -2.358888       -64.1886 
 236   0.0000      -2.353774       -64.0494 
 237   0.0000      -2.345970       -63.8371 
 238   0.0000      -2.337305       -63.6013 
 239   0.0000      -2.332343       -63.4663 
 240   0.0000      -2.331391       -63.4404 
 241   0.0000      -2.323050       -63.2134 
 242   0.0000      -2.319974       -63.1297 
 243   0.0000      -2.309947       -62.8568 
 244   0.0000      -2.307995       -62.8037 
 245   0.0000      -2.296952       -62.5032 
 246   0.0000      -2.294027       -62.4236 
 247   0.0000      -2.286490       -62.2186 
 248   0.0000      -2.284525       -62.1651 
 249   0.0000      -2.281968       -62.0955 
 250   0.0000      -2.266611       -61.6776 
 251   0.0000      -2.260000       -61.4977 
 252   0.0000      -2.247924       -61.1691 
 253   0.0000      -2.242302       -61.0161 
 254   0.0000      -2.236424       -60.8562 
 255   0.0000      -2.225828       -60.5679 
 256   0.0000      -2.224065       -60.5199 
 257   0.0000      -2.217259       -60.3347 
 258   0.0000      -2.206482       -60.0414 
 259   0.0000      -2.197565       -59.7988 
 260   0.0000      -2.196929       -59.7815 
 261   0.0000      -2.184977       -59.4562 
 262   0.0000      -2.174201       -59.1630 
 263   0.0000      -2.164467       -58.8981 
 264   0.0000      -2.160260       -58.7837 
 265   0.0000      -2.146162       -58.4000 
 266   0.0000      -2.134313       -58.0776 
 267   0.0000      -2.126573       -57.8670 
 268   0.0000      -2.117975       -57.6330 
 269   0.0000      -2.112464       -57.4831 
 270   0.0000      -2.107643       -57.3519 
 271   0.0000      -2.090825       -56.8942 
 272   0.0000      -2.086031       -56.7638 
 273   0.0000      -2.078871       -56.5690 
 274   0.0000      -2.069619       -56.3172 
 275   0.0000      -2.056577       -55.9623 
 276   0.0000      -2.050161       -55.7877 
 277   0.0000      -2.040522       -55.5254 
 278   0.0000      -2.034258       -55.3550 
 279   0.0000      -2.031701       -55.2854 
 280   0.0000      -2.028442       -55.1967 
 281   0.0000      -2.021441       -55.0062 
 282   0.0000      -2.013836       -54.7993 
 283   0.0000      -2.009369       -54.6777 
 284   0.0000      -2.007826       -54.6357 
 285   0.0000      -2.002031       -54.4780 
 286   0.0000      -1.999023       -54.3962 
 287   0.0000      -1.991637       -54.1952 
 288   0.0000      -1.988528       -54.1106 
 289   0.0000      -1.982017       -53.9334 
 290   0.0000      -1.963927       -53.4412 
 291   0.0000      -1.956560       -53.2407 
 292   0.0000      -1.951465       -53.1021 
 293   0.0000      -1.948980       -53.0344 
 294   0.0000      -1.934297       -52.6349 
 295   0.0000      -1.924677       -52.3731 
 296   0.0000      -1.915591       -52.1259 
 297   0.0000      -1.912612       -52.0448 
 298   0.0000      -1.903426       -51.7949 
 299   0.0000      -1.901340       -51.7381 
 300   0.0000      -1.896983       -51.6195 
 301   0.0000      -1.877987       -51.1026 
 302   0.0000      -1.875321       -51.0301 
 303   0.0000      -1.867228       -50.8099 
 304   0.0000      -1.864055       -50.7235 
 305   0.0000      -1.854733       -50.4699 
 306   0.0000      -1.853331       -50.4317 
 307   0.0000      -1.838420       -50.0260 
 308   0.0000      -1.833920       -49.9035 
 309   0.0000      -1.821470       -49.5647 
 310   0.0000      -1.805602       -49.1329 
 311   0.0000      -1.804861       -49.1128 
 312   0.0000      -1.799297       -48.9614 
 313   0.0000      -1.785462       -48.5849 
 314   0.0000      -1.780411       -48.4474 
 315   0.0000      -1.773911       -48.2706 
 316   0.0000      -1.761596       -47.9355 
 317   0.0000      -1.745268       -47.4912 
 318   0.0000      -1.738271       -47.3007 
 319   0.0000      -1.731821       -47.1252 
 320   0.0000      -1.721487       -46.8440 
 321   0.0000      -1.715168       -46.6721 
 322   0.0000      -1.707524       -46.4641 
 323   0.0000      -1.695749       -46.1437 
 324   0.0000      -1.682162       -45.7739 
 325   0.0000      -1.670271       -45.4504 
 326   0.0000      -1.640909       -44.6514 
 327   0.0000      -1.636664       -44.5359 
 328   0.0000      -1.626022       -44.2463 
 329   0.0000      -1.620388       -44.0930 
 330   0.0000      -1.619206       -44.0608 
 331   0.0000      -1.606728       -43.7213 
 332   0.0000      -1.602334       -43.6017 
 333   0.0000      -1.584379       -43.1131 
 334   0.0000      -1.576350       -42.8947 
 335   0.0000      -1.565010       -42.5861 
 336   0.0000      -1.559178       -42.4274 
 337   0.0000      -1.543098       -41.9898 
 338   0.0000      -1.532446       -41.7000 
 339   0.0000      -1.526478       -41.5376 
 340   0.0000      -1.509910       -41.0867 
 341   0.0000      -1.490883       -40.5690 
 342   0.0000      -1.469064       -39.9753 
 343   0.0000      -1.466999       -39.9191 
 344   0.0000      -1.437733       -39.1227 
 345   0.0000      -1.423164       -38.7263 
 346   0.0000      -1.417635       -38.5758 
 347   0.0000      -1.411823       -38.4176 
 348   0.0000      -1.377978       -37.4967 
 349   0.0000      -1.359781       -37.0015 
 350   0.0000      -1.351430       -36.7743 
 351   0.0000      -1.328986       -36.1636 
 352   0.0000      -1.317749       -35.8578 
 353   0.0000      -1.313941       -35.7542 
 354   0.0000      -1.290060       -35.1043 
 355   0.0000      -1.275181       -34.6994 
 356   0.0000      -1.268494       -34.5175 
 357   0.0000      -1.264192       -34.4004 
 358   0.0000      -1.255799       -34.1720 
 359   0.0000      -1.236651       -33.6510 
 360   0.0000      -1.230886       -33.4941 
 361   0.0000      -1.219883       -33.1947 
 362   0.0000      -1.198101       -32.6020 
 363   0.0000      -1.192561       -32.4512 
 364   0.0000      -1.177185       -32.0328 
 365   0.0000      -1.165019       -31.7018 
 366   0.0000      -1.155987       -31.4560 
 367   0.0000      -1.152177       -31.3523 
 368   0.0000      -1.141844       -31.0712 
 369   0.0000      -1.123115       -30.5615 
 370   0.0000      -1.105832       -30.0912 
 371   0.0000      -1.097127       -29.8543 
 372   0.0000      -1.080874       -29.4121 
 373   0.0000      -1.048334       -28.5266 
 374   0.0000      -1.043849       -28.4046 
 375   0.0000      -1.037506       -28.2320 
 376   0.0000      -1.023611       -27.8539 
 377   0.0000      -1.008141       -27.4329 
 378   0.0000      -1.005183       -27.3524 
 379   0.0000      -0.990824       -26.9617 
 380   0.0000      -0.973993       -26.5037 
 381   0.0000      -0.957306       -26.0496 
 382   0.0000      -0.941066       -25.6077 
 383   0.0000      -0.933548       -25.4031 
 384   0.0000      -0.908637       -24.7253 
 385   0.0000      -0.901039       -24.5185 
 386   0.0000      -0.888881       -24.1877 
 387   0.0000      -0.885686       -24.1007 
 388   0.0000      -0.884133       -24.0585 
 389   0.0000      -0.869010       -23.6470 
 390   0.0000      -0.843533       -22.9537 
 391   0.0000      -0.836853       -22.7719 
 392   0.0000      -0.822041       -22.3689 
 393   0.0000      -0.818176       -22.2637 
 394   0.0000      -0.812625       -22.1126 
 395   0.0000      -0.801599       -21.8126 
 396   0.0000      -0.791139       -21.5280 
 397   0.0000      -0.780026       -21.2256 
 398   0.0000      -0.764793       -20.8111 
 399   0.0000      -0.758691       -20.6450 
 400   0.0000      -0.749682       -20.3999 
 401   0.0000      -0.735483       -20.0135 
 402   0.0000      -0.733055       -19.9474 
 403   0.0000      -0.719845       -19.5880 
 404   0.0000      -0.716411       -19.4945 
 405   0.0000      -0.704727       -19.1766 
 406   0.0000      -0.699514       -19.0348 
 407   0.0000      -0.686264       -18.6742 
 408   0.0000      -0.673809       -18.3353 
 409   0.0000      -0.663190       -18.0463 
 410   0.0000      -0.655543       -17.8382 
 411   0.0000      -0.650549       -17.7023 
 412   0.0000      -0.638528       -17.3752 
 413   0.0000      -0.633448       -17.2370 
 414   0.0000      -0.629380       -17.1263 
 415   0.0000      -0.623465       -16.9654 
 416   0.0000      -0.617894       -16.8138 
 417   0.0000      -0.607936       -16.5428 
 418   0.0000      -0.597025       -16.2459 
 419   0.0000      -0.580587       -15.7986 
 420   0.0000      -0.567560       -15.4441 
 421   0.0000      -0.564812       -15.3693 
 422   0.0000      -0.559427       -15.2228 
 423   0.0000      -0.539608       -14.6835 
 424   0.0000      -0.528241       -14.3742 
 425   0.0000      -0.521555       -14.1922 
 426   0.0000      -0.509241       -13.8571 
 427   0.0000      -0.505224       -13.7479 
 428   0.0000      -0.498186       -13.5563 
 429   0.0000      -0.482128       -13.1194 
 430   0.0000      -0.474299       -12.9063 
 431   0.0000      -0.467490       -12.7211 
 432   0.0000      -0.451764       -12.2931 
 433   0.0000      -0.447697       -12.1825 
 434   0.0000      -0.438657       -11.9365 
 435   0.0000      -0.437090       -11.8938 
 436   0.0000      -0.433125       -11.7859 
 437   0.0000      -0.430784       -11.7222 
 438   0.0000      -0.424734       -11.5576 
 439   0.0000      -0.414564       -11.2809 
 440   0.0000      -0.408962       -11.1284 
 441   0.0000      -0.405200       -11.0260 
 442   0.0000      -0.396565       -10.7911 
 443   0.0000      -0.390248       -10.6192 
 444   0.0000      -0.386328       -10.5125 
 445   0.0000      -0.383873       -10.4457 
 446   0.0000      -0.369750       -10.0614 
 447   0.0000      -0.356307        -9.6956 
 448   0.0000      -0.354238        -9.6393 
 449   0.0000      -0.347311        -9.4508 
 450   0.0000      -0.333887        -9.0855 
 451   0.0000      -0.330883        -9.0038 
 452   0.0000      -0.330420        -8.9912 
 453   0.0000      -0.319549        -8.6954 
 454   0.0000      -0.307242        -8.3605 
 455   0.0000      -0.288488        -7.8502 
 456   0.0000      -0.287740        -7.8298 
 457   0.0000      -0.275846        -7.5062 
 458   0.0000      -0.261883        -7.1262 
 459   0.0000      -0.260944        -7.1006 
 460   0.0000      -0.256989        -6.9930 
 461   0.0000      -0.251197        -6.8354 
 462   0.0000      -0.244763        -6.6603 
 463   0.0000      -0.237420        -6.4605 
 464   0.0000      -0.230438        -6.2705 
 465   0.0000      -0.228673        -6.2225 
 466   0.0000      -0.217677        -5.9233 
 467   0.0000      -0.212605        -5.7853 
 468   0.0000      -0.209967        -5.7135 
 469   0.0000      -0.206661        -5.6235 
 470   0.0000      -0.200444        -5.4544 
 471   0.0000      -0.197203        -5.3662 
 472   0.0000      -0.188561        -5.1310 
 473   0.0000      -0.179567        -4.8863 
 474   0.0000      -0.164852        -4.4859 
 475   0.0000      -0.160374        -4.3640 
 476   0.0000      -0.158355        -4.3090 
 477   0.0000      -0.147197        -4.0054 
 478   0.0000      -0.145258        -3.9527 
 479   0.0000      -0.143089        -3.8936 
 480   0.0000      -0.137850        -3.7511 
 481   0.0000      -0.133561        -3.6344 
 482   0.0000      -0.122753        -3.3403 
 483   0.0000      -0.114934        -3.1275 
 484   0.0000      -0.112729        -3.0675 
 485   0.0000      -0.106024        -2.8850 
 486   0.0000      -0.101243        -2.7550 
 487   0.0000      -0.096415        -2.6236 
 488   0.0000      -0.089897        -2.4462 
 489   0.0000      -0.083495        -2.2720 
 490   0.0000      -0.080252        -2.1838 
 491   0.0000      -0.074468        -2.0264 
 492   0.0000      -0.072513        -1.9732 
 493   0.0000      -0.069621        -1.8945 
 494   0.0000      -0.060654        -1.6505 
 495   0.0000      -0.053882        -1.4662 
 496   0.0000      -0.052967        -1.4413 
 497   0.0000      -0.048404        -1.3171 
 498   0.0000      -0.047389        -1.2895 
 499   0.0000      -0.030326        -0.8252 
 500   0.0000      -0.012935        -0.3520 
 501   0.0000      -0.003392        -0.0923 
 502   0.0000      -0.000193        -0.0053 
 503   0.0000       0.008007         0.2179 
 504   0.0000       0.022638         0.6160 
 505   0.0000       0.027664         0.7528 
 506   0.0000       0.038313         1.0425 
 507   0.0000       0.045068         1.2264 
 508   0.0000       0.046699         1.2708 
 509   0.0000       0.051859         1.4112 
 510   0.0000       0.055620         1.5135 
 511   0.0000       0.061614         1.6766 
 512   0.0000       0.072506         1.9730 
 513   0.0000       0.081765         2.2249 
 514   0.0000       0.087091         2.3699 
 515   0.0000       0.089586         2.4378 
 516   0.0000       0.091743         2.4965 
 517   0.0000       0.099473         2.7068 
 518   0.0000       0.109419         2.9774 
 519   0.0000       0.121681         3.3111 
 520   0.0000       0.125976         3.4280 
 521   0.0000       0.132800         3.6137 
 522   0.0000       0.133357         3.6288 
 523   0.0000       0.145531         3.9601 
 524   0.0000       0.148741         4.0474 
 525   0.0000       0.157685         4.2908 
 526   0.0000       0.160093         4.3564 
 527   0.0000       0.167015         4.5447 
 528   0.0000       0.171708         4.6724 
 529   0.0000       0.175699         4.7810 
 530   0.0000       0.177443         4.8285 
 531   0.0000       0.186323         5.0701 
 532   0.0000       0.196659         5.3514 
 533   0.0000       0.206529         5.6199 
 534   0.0000       0.209806         5.7091 
 535   0.0000       0.218784         5.9534 
 536   0.0000       0.221861         6.0372 
 537   0.0000       0.227918         6.2020 
 538   0.0000       0.238303         6.4846 
 539   0.0000       0.246069         6.6959 
 540   0.0000       0.252173         6.8620 
 541   0.0000       0.259845         7.0707 
 542   0.0000       0.268625         7.3097 
 543   0.0000       0.274610         7.4725 
 544   0.0000       0.279817         7.6142 
 545   0.0000       0.281548         7.6613 
 546   0.0000       0.286341         7.7917 
 547   0.0000       0.296660         8.0725 
 548   0.0000       0.299999         8.1634 
 549   0.0000       0.309952         8.4342 
 550   0.0000       0.318690         8.6720 
 551   0.0000       0.331917         9.0319 
 552   0.0000       0.340861         9.2753 
 553   0.0000       0.345134         9.3916 
 554   0.0000       0.360513         9.8100 
 555   0.0000       0.374381        10.1874 
 556   0.0000       0.378203        10.2914 
 557   0.0000       0.386627        10.5207 
 558   0.0000       0.395570        10.7640 
 559   0.0000       0.401286        10.9196 
 560   0.0000       0.408326        11.1111 
 561   0.0000       0.425533        11.5793 
 562   0.0000       0.428774        11.6675 
 563   0.0000       0.438749        11.9390 
 564   0.0000       0.449235        12.2243 
 565   0.0000       0.453207        12.3324 
 566   0.0000       0.463595        12.6151 
 567   0.0000       0.467284        12.7154 
 568   0.0000       0.473315        12.8795 
 569   0.0000       0.484940        13.1959 
 570   0.0000       0.491343        13.3701 
 571   0.0000       0.496030        13.4977 
 572   0.0000       0.506166        13.7735 
 573   0.0000       0.524061        14.2604 
 574   0.0000       0.535554        14.5732 
 575   0.0000       0.549399        14.9499 
 576   0.0000       0.549637        14.9564 
 577   0.0000       0.560941        15.2640 
 578   0.0000       0.563680        15.3385 
 579   0.0000       0.574361        15.6292 
 580   0.0000       0.587038        15.9741 
 581   0.0000       0.594767        16.1844 
 582   0.0000       0.601475        16.3670 
 583   0.0000       0.611789        16.6476 
 584   0.0000       0.617065        16.7912 
 585   0.0000       0.621247        16.9050 
 586   0.0000       0.636689        17.3252 
 587   0.0000       0.638954        17.3868 
 588   0.0000       0.641065        17.4443 
 589   0.0000       0.649690        17.6790 
 590   0.0000       0.656447        17.8628 
 591   0.0000       0.661605        18.0032 
 592   0.0000       0.671469        18.2716 
 593   0.0000       0.676776        18.4160 
 594   0.0000       0.688122        18.7248 
 595   0.0000       0.691620        18.8199 
 596   0.0000       0.693946        18.8832 
 597   0.0000       0.699449        19.0330 
 598   0.0000       0.714249        19.4357 
 599   0.0000       0.721249        19.6262 
 600   0.0000       0.728592        19.8260 
 601   0.0000       0.736221        20.0336 
 602   0.0000       0.742193        20.1961 
 603   0.0000       0.757665        20.6171 
 604   0.0000       0.766339        20.8532 
 605   0.0000       0.774410        21.0728 
 606   0.0000       0.776585        21.1320 
 607   0.0000       0.780591        21.2410 
 608   0.0000       0.792787        21.5728 
 609   0.0000       0.798909        21.7394 
 610   0.0000       0.803023        21.8514 
 611   0.0000       0.812756        22.1162 
 612   0.0000       0.820446        22.3255 
 613   0.0000       0.826432        22.4884 
 614   0.0000       0.832322        22.6486 
 615   0.0000       0.848212        23.0810 
 616   0.0000       0.848389        23.0858 
 617   0.0000       0.852769        23.2050 
 618   0.0000       0.861738        23.4491 
 619   0.0000       0.871483        23.7143 
 620   0.0000       0.873607        23.7721 
 621   0.0000       0.874988        23.8096 
 622   0.0000       0.883153        24.0318 
 623   0.0000       0.890157        24.2224 
 624   0.0000       0.914473        24.8841 
 625   0.0000       0.920869        25.0581 
 626   0.0000       0.928071        25.2541 
 627   0.0000       0.936255        25.4768 
 628   0.0000       0.940420        25.5901 
 629   0.0000       0.941953        25.6318 
 630   0.0000       0.958032        26.0694 
 631   0.0000       0.971572        26.4378 
 632   0.0000       0.981017        26.6948 
 633   0.0000       0.985026        26.8039 
 634   0.0000       1.000364        27.2213 
 635   0.0000       1.006643        27.3922 
 636   0.0000       1.012136        27.5416 
 637   0.0000       1.018958        27.7273 
 638   0.0000       1.030554        28.0428 
 639   0.0000       1.038572        28.2610 
 640   0.0000       1.042611        28.3709 
 641   0.0000       1.053806        28.6755 
 642   0.0000       1.061685        28.8899 
 643   0.0000       1.074519        29.2391 
 644   0.0000       1.082260        29.4498 
 645   0.0000       1.086611        29.5682 
 646   0.0000       1.095028        29.7972 
 647   0.0000       1.105775        30.0897 
 648   0.0000       1.114690        30.3323 
 649   0.0000       1.119066        30.4513 
 650   0.0000       1.126788        30.6615 
 651   0.0000       1.133710        30.8498 
 652   0.0000       1.138588        30.9825 
 653   0.0000       1.145304        31.1653 
 654   0.0000       1.148204        31.2442 
 655   0.0000       1.169502        31.8238 
 656   0.0000       1.184065        32.2200 
 657   0.0000       1.192030        32.4368 
 658   0.0000       1.209097        32.9012 
 659   0.0000       1.222309        33.2607 
 660   0.0000       1.228269        33.4229 
 661   0.0000       1.238789        33.7092 
 662   0.0000       1.248077        33.9619 
 663   0.0000       1.270340        34.5677 
 664   0.0000       1.286669        35.0120 
 665   0.0000       1.292779        35.1783 
 666   0.0000       1.296990        35.2929 
 667   0.0000       1.305885        35.5349 
 668   0.0000       1.326027        36.0830 
 669   0.0000       1.344613        36.5888 
 670   0.0000       1.368128        37.2287 
 671   0.0000       1.379580        37.5403 
 672   0.0000       1.390004        37.8239 
 673   0.0000       1.425188        38.7813 
 674   0.0000       1.430663        38.9303 
 675   0.0000       1.459338        39.7106 
 676   0.0000       1.465060        39.8663 
 677   0.0000       1.479076        40.2477 
 678   0.0000       1.506021        40.9809 
 679   0.0000       1.511367        41.1264 
 680   0.0000       1.536680        41.8152 
 681   0.0000       1.546648        42.0864 
 682   0.0000       1.555728        42.3335 
 683   0.0000       1.566366        42.6230 
 684   0.0000       1.569248        42.7014 
 685   0.0000       1.579227        42.9729 
 686   0.0000       1.584444        43.1149 
 687   0.0000       1.589582        43.2547 
 688   0.0000       1.602214        43.5985 
 689   0.0000       1.616977        44.0002 
 690   0.0000       1.621408        44.1207 
 691   0.0000       1.642898        44.7055 
 692   0.0000       1.647290        44.8250 
 693   0.0000       1.668984        45.4154 
 694   0.0000       1.669823        45.4382 
 695   0.0000       1.680817        45.7373 
 696   0.0000       1.698759        46.2256 
 697   0.0000       1.704963        46.3944 
 698   0.0000       1.715462        46.6801 
 699   0.0000       1.733022        47.1579 
 700   0.0000       1.757918        47.8354 
 701   0.0000       1.762786        47.9678 
 702   0.0000       1.766296        48.0634 
 703   0.0000       1.778564        48.3972 
 704   0.0000       1.797853        48.9221 
 705   0.0000       1.808076        49.2002 
 706   0.0000       1.815906        49.4133 
 707   0.0000       1.821607        49.5684 
 708   0.0000       1.833792        49.9000 
 709   0.0000       1.839475        50.0547 
 710   0.0000       1.868213        50.8367 
 711   0.0000       1.882186        51.2169 
 712   0.0000       1.894798        51.5601 
 713   0.0000       1.904837        51.8332 
 714   0.0000       1.921246        52.2798 
 715   0.0000       1.933054        52.6011 
 716   0.0000       1.933698        52.6186 
 717   0.0000       1.946330        52.9623 
 718   0.0000       1.979614        53.8680 
 719   0.0000       1.992055        54.2066 
 720   0.0000       2.007332        54.6223 
 721   0.0000       2.014780        54.8249 
 722   0.0000       2.030112        55.2422 
 723   0.0000       2.031967        55.2926 
 724   0.0000       2.068291        56.2811 
 725   0.0000       2.073257        56.4162 
 726   0.0000       2.075038        56.4647 
 727   0.0000       2.089926        56.8698 
 728   0.0000       2.097040        57.0634 
 729   0.0000       2.104329        57.2617 
 730   0.0000       2.118890        57.6579 
 731   0.0000       2.137410        58.1619 
 732   0.0000       2.146085        58.3980 
 733   0.0000       2.150934        58.5299 
 734   0.0000       2.167717        58.9866 
 735   0.0000       2.175758        59.2054 
 736   0.0000       2.207627        60.0726 
 737   0.0000       2.212485        60.2048 
 738   0.0000       2.229459        60.6667 
 739   0.0000       2.231809        60.7306 
 740   0.0000       2.246426        61.1283 
 741   0.0000       2.271635        61.8143 
 742   0.0000       2.280373        62.0521 
 743   0.0000       2.294753        62.4434 
 744   0.0000       2.312001        62.9127 
 745   0.0000       2.318736        63.0960 
 746   0.0000       2.335396        63.5494 
 747   0.0000       2.341755        63.7224 
 748   0.0000       2.364448        64.3399 
 749   0.0000       2.397225        65.2318 
 750   0.0000       2.413429        65.6728 
 751   0.0000       2.437689        66.3329 
 752   0.0000       2.448122        66.6168 
 753   0.0000       2.464642        67.0663 
 754   0.0000       2.486125        67.6509 
 755   0.0000       2.504024        68.1380 
 756   0.0000       2.508125        68.2495 
 757   0.0000       2.526692        68.7548 
 758   0.0000       2.553256        69.4776 
 759   0.0000       2.570226        69.9394 
 760   0.0000       2.574291        70.0500 
 761   0.0000       2.617259        71.2192 
 762   0.0000       2.641799        71.8870 
 763   0.0000       2.673267        72.7433 
 764   0.0000       2.685623        73.0795 
 765   0.0000       2.732130        74.3450 
 766   0.0000       2.746204        74.7280 
 767   0.0000       2.769492        75.3617 
 768   0.0000       2.804534        76.3153 
 769   0.0000       2.815024        76.6007 
 770   0.0000       2.844767        77.4101 
 771   0.0000       2.855962        77.7147 
 772   0.0000       2.868565        78.0576 
 773   0.0000       2.910334        79.1942 
 774   0.0000       2.923432        79.5506 
 775   0.0000       2.937255        79.9268 
 776   0.0000       2.970645        80.8354 
 777   0.0000       2.991440        81.4012 
 778   0.0000       3.020610        82.1950 
 779   0.0000       3.046449        82.8981 
 780   0.0000       3.129460        85.1569 
 781   0.0000       3.155930        85.8772 
 782   0.0000       3.170409        86.2712 
 783   0.0000       3.208627        87.3112 
 784   0.0000       3.235948        88.0546 
 785   0.0000       3.315366        90.2157 
 786   0.0000       3.330395        90.6246 
 787   0.0000       3.368521        91.6621 
 788   0.0000       3.428572        93.2962 
 789   0.0000       3.470166        94.4280 
 790   0.0000       3.507887        95.4545 
 791   0.0000       3.512746        95.5867 
 792   0.0000       3.582949        97.4970 
 793   0.0000       3.584224        97.5317 
 794   0.0000       3.704762       100.8117 
 795   0.0000       3.710612       100.9709 
 796   0.0000       3.744657       101.8973 
 797   0.0000       3.749232       102.0218 
 798   0.0000       3.808043       103.6221 
 799   0.0000       3.831656       104.2647 
 800   0.0000       3.918896       106.6386 
 801   0.0000       3.949164       107.4622 
 802   0.0000       4.027903       109.6048 
 803   0.0000       4.034406       109.7818 
 804   0.0000       4.153036       113.0099 
 805   0.0000       4.254876       115.7811 
 806   0.0000       4.341990       118.1516 
 807   0.0000       4.420104       120.2772 
 808   0.0000       4.445073       120.9566 
 809   0.0000       5.699783       155.0990 
 810   0.0000       5.863236       159.5468 
 811   0.0000       7.131997       194.0715 
 812   0.0000       7.621904       207.4025 
 813   0.0000       8.505667       231.4510 
 814   0.0000       8.939961       243.2687 
 815   0.0000       9.381185       255.2750 
 816   0.0000       9.536592       259.5039 
 817   0.0000       9.588039       260.9038 
 818   0.0000       9.711430       264.2615 
 819   0.0000       9.755149       265.4511 
 820   0.0000       9.827676       267.4246 
 821   0.0000      10.139766       275.9170 
 822   0.0000      10.257022       279.1078 
 823   0.0000      10.353698       281.7385 
 824   0.0000      10.487986       285.3926 
 825   0.0000      10.843974       295.0795 
 826   0.0000      11.317014       307.9516 
 827   0.0000      12.299469       334.6856 

                    ********************************
                    * MULLIKEN POPULATION ANALYSIS *
                    ********************************

-----------------------
MULLIKEN ATOMIC CHARGES
-----------------------
   0 C :   -0.288505
   1 C :    0.040681
   2 O :   -0.324130
   3 C :    0.483860
   4 O :   -0.539640
   5 C :   -0.147794
   6 C :    0.079770
   7 C :   -0.220802
   8 N :   -0.182572
   9 C :    0.304043
  10 S :   -0.599142
  11 N :   -0.227343
  12 C :    0.052642
  13 C :    0.027851
  14 C :   -0.210483
  15 C :   -0.143893
  16 C :   -0.256503
  17 C :    0.235636
  18 O :   -0.437125
  19 C :   -0.312241
  20 H :    0.100918
  21 H :    0.096896
  22 H :    0.125646
  23 H :    0.101342
  24 H :    0.102903
  25 H :    0.125113
  26 H :    0.126728
  27 H :    0.124311
  28 H :    0.258577
  29 H :    0.237561
  30 H :    0.186493
  31 H :    0.189699
  32 H :    0.201290
  33 H :    0.170454
  34 H :    0.332800
  35 H :    0.184961
Sum of atomic charges:   -0.0000000

--------------------------------
MULLIKEN REDUCED ORBITAL CHARGES
--------------------------------
  0 C s       :     3.264076  s :     3.264076
      pz      :     0.927805  p :     2.947657
      px      :     1.016493
      py      :     1.003359
      dz2     :     0.014052  d :     0.072224
      dxz     :     0.015241
      dyz     :     0.015619
      dx2y2   :     0.003903
      dxy     :     0.023408
      f0      :     0.000741  f :     0.004548
      f+1     :     0.000784
      f-1     :     0.000918
      f+2     :     0.000246
      f-2     :     0.001244
      f+3     :     0.000451
      f-3     :     0.000164
  1 C s       :     3.174900  s :     3.174900
      pz      :     0.864468  p :     2.625532
      px      :     0.765194
      py      :     0.995870
      dz2     :     0.032029  d :     0.147312
      dxz     :     0.038135
      dyz     :     0.026494
      dx2y2   :     0.017873
      dxy     :     0.032782
      f0      :     0.001298  f :     0.011575
      f+1     :     0.002534
      f-1     :     0.001022
      f+2     :     0.001779
      f-2     :     0.002223
      f+3     :     0.001524
      f-3     :     0.001195
  2 O s       :     3.707778  s :     3.707778
      pz      :     1.315694  p :     4.578229
      px      :     1.568333
      py      :     1.694202
      dz2     :     0.009951  d :     0.035795
      dxz     :     0.009112
      dyz     :     0.006907
      dx2y2   :     0.006124
      dxy     :     0.003701
      f0      :     0.000461  f :     0.002329
      f+1     :     0.000339
[...]
 15 C s       :     2.705815  s :     2.705815
      pz      :     0.980919  p :     2.802912
      px      :     0.835826
      py      :     0.986166
      dz2     :     0.122307  d :     0.417622
      dxz     :     0.030515
      dyz     :     0.105495
      dx2y2   :     0.077027
      dxy     :     0.082278
      f0      :     0.004929  f :     0.041819
      f+1     :     0.001646
      f-1     :     0.012092
      f+2     :     0.007272
      f-2     :     0.007717
      f+3     :     0.004273
      f-3     :     0.003891
 16 C s       :     2.701066  s :     2.701066
      pz      :     0.978345  p :     2.866849
      px      :     0.905015
      py      :     0.983489
      dz2     :     0.116338  d :     0.399785
      dxz     :     0.068126
      dyz     :     0.125139
      dx2y2   :     0.044166
      dxy     :     0.046016
      f0      :     0.007954  f :     0.041398
      f+1     :     0.005929
      f-1     :     0.012565
      f+2     :     0.004508
      f-2     :     0.003830
      f+3     :     0.003642
      f-3     :     0.002971
 17 C s       :     2.708551  s :     2.708551
      pz      :     0.988896  p :     2.695306
      px      :     0.834088
      py      :     0.872322
      dz2     :     0.161621  d :     0.704382
      dxz     :     0.109334
      dyz     :     0.195251
      dx2y2   :     0.113506
      dxy     :     0.124670
      f0      :     0.010136  f :     0.099150
      f+1     :     0.008297
      f-1     :     0.029571
      f+2     :     0.014330
      f-2     :     0.014667
      f+3     :     0.011528
      f-3     :     0.010620
 18 O s       :     3.167398  s :     3.167398
      pz      :     1.296858  p :     4.389228
      px      :     1.611060
      py      :     1.481309
      dz2     :     0.021479  d :     0.075047
      dxz     :     0.006364
      dyz     :     0.022960
      dx2y2   :     0.012244
      dxy     :     0.011999
      f0      :     0.000770  f :     0.004987
      f+1     :     0.000336
      f-1     :     0.001252
      f+2     :     0.001025
      f-2     :     0.000476
      f+3     :     0.000572
      f-3     :     0.000556
 19 C s       :     2.699210  s :     2.699210
      pz      :     0.967803  p :     2.852433
      px      :     0.900393
      py      :     0.984237
      dz2     :     0.104634  d :     0.395231
      dxz     :     0.032959
      dyz     :     0.112534
      dx2y2   :     0.071410
      dxy     :     0.073693
      f0      :     0.004353  f :     0.041249
      f+1     :     0.002175
      f-1     :     0.011694
      f+2     :     0.006751
      f-2     :     0.006760
      f+3     :     0.005071
      f-3     :     0.004445
 20 H s       :     0.841382  s :     0.841382
      pz      :     0.045735  p :     0.154845
      px      :     0.053320
      py      :     0.055790
      dz2     :     0.004539  d :     0.028166
      dxz     :     0.004967
      dyz     :     0.005170
      dx2y2   :     0.007601
      dxy     :     0.005888
 21 H s       :     0.838097  s :     0.838097
      pz      :     0.039005  p :     0.155874
      px      :     0.055662
      py      :     0.061207
      dz2     :     0.002364  d :     0.028460
      dxz     :     0.004112
      dyz     :     0.005354
      dx2y2   :     0.009562
      dxy     :     0.007068
 22 H s       :     0.838778  s :     0.838778
      pz      :     0.050122  p :     0.149952
      px      :     0.054157
      py      :     0.045672
      dz2     :     0.005782  d :     0.027095
      dxz     :     0.006491
      dyz     :     0.004264
      dx2y2   :     0.004674
      dxy     :     0.005885
 23 H s       :     0.851345  s :     0.851345
      pz      :     0.043403  p :     0.146275
      px      :     0.045199
      py      :     0.057672
      dz2     :     0.004371  d :     0.027354
      dxz     :     0.005121
      dyz     :     0.004863
      dx2y2   :     0.006953
      dxy     :     0.006047
 24 H s       :     0.852575  s :     0.852575
      pz      :     0.035876  p :     0.146888
      px      :     0.045490
      py      :     0.065521
      dz2     :     0.002719  d :     0.027184
      dxz     :     0.003042
      dyz     :     0.006209
      dx2y2   :     0.007073
      dxy     :     0.008140
 25 H s       :     0.836662  s :     0.836662
      pz      :     0.048287  p :     0.150869
      px      :     0.043122
      py      :     0.059460
      dz2     :     0.005380  d :     0.027314
      dxz     :     0.003426
      dyz     :     0.006414
      dx2y2   :     0.005895
      dxy     :     0.006199
 26 H s       :     0.831925  s :     0.831925
      pz      :     0.038703  p :     0.153105
      px      :     0.054131
      py      :     0.060271
      dz2     :     0.002463  d :     0.027616
      dxz     :     0.004121
      dyz     :     0.005565
      dx2y2   :     0.008279
      dxy     :     0.007188
 27 H s       :     0.837667  s :     0.837667
      pz      :     0.070042  p :     0.150182
      px      :     0.039214
      py      :     0.040927
      dz2     :     0.009288  d :     0.027399
      dxz     :     0.007538
      dyz     :     0.007843
      dx2y2   :     0.000954
      dxy     :     0.001774
 28 H s       :     0.721455  s :     0.721455
      pz      :     0.122505  p :     0.253865
      px      :     0.042893
      py      :     0.088467
      dz2     :     0.021670  d :     0.060690
      dxz     :     0.013979
      dyz     :     0.019856
      dx2y2   :     0.003127
      dxy     :     0.002059
 29 H s       :     0.729621  s :     0.729621
      pz      :     0.051591  p :     0.254188
      px      :     0.110757
      py      :     0.091840
      dz2     :     0.007708  d :     0.061026
      dxz     :     0.014412
      dyz     :     0.004866
      dx2y2   :     0.016448
      dxy     :     0.017592
 30 H s       :     0.826045  s :     0.826045
      pz      :     0.052427  p :     0.148464
      px      :     0.032487
      py      :     0.063550
      dz2     :     0.006022  d :     0.028163
      dxz     :     0.004023
      dyz     :     0.008449
      dx2y2   :     0.005408
      dxy     :     0.004261
 31 H s       :     0.838906  s :     0.838906
      pz      :     0.042844  p :     0.159564
      px      :     0.048711
      py      :     0.068009
      dz2     :     0.004890  d :     0.027661
      dxz     :     0.002640
      dyz     :     0.007736
      dx2y2   :     0.006105
      dxy     :     0.006290
 32 H s       :     0.831789  s :     0.831789
      pz      :     0.080596  p :     0.151773
      px      :     0.037954
      py      :     0.033223
      dz2     :     0.010511  d :     0.026655
      dxz     :     0.007405
      dyz     :     0.008633
      dx2y2   :     0.000054
      dxy     :     0.000052
 33 H s       :     0.837633  s :     0.837633
      pz      :     0.043552  p :     0.156313
      px      :     0.048132
      py      :     0.064629
      dz2     :     0.005065  d :     0.027511
      dxz     :     0.002795
      dyz     :     0.007413
      dx2y2   :     0.006125
      dxy     :     0.006113
 34 H s       :     0.666182  s :     0.666182
      pz      :     0.157142  p :     0.340684
      px      :     0.100719
      py      :     0.082823
      dz2     :     0.031206  d :     0.098462
      dxz     :     0.031229
      dyz     :     0.028947
      dx2y2   :     0.003333
      dxy     :     0.003747
 35 H s       :     0.832675  s :     0.832675
      pz      :     0.080800  p :     0.158599
      px      :     0.044517
      py      :     0.033282
      dz2     :     0.009929  d :     0.028063
      dxz     :     0.008442
      dyz     :     0.008440
      dx2y2   :     0.000638
      dxy     :     0.000614


                      *****************************
                      * MAYER POPULATION ANALYSIS *
                      *****************************

  NA   - Mulliken gross atomic population
  ZA   - Total nuclear charge
  QA   - Mulliken gross atomic charge
  VA   - Mayer's total valence
  BVA  - Mayer's bonded valence
  FA   - Mayer's free valence

  ATOM       NA         ZA         QA         VA         BVA        FA
  0 C      6.2885     6.0000    -0.2885     3.8919     3.8919    -0.0000
  1 C      5.9593     6.0000     0.0407     3.8395     3.8395    -0.0000
  2 O      8.3241     8.0000    -0.3241     2.1123     2.1123     0.0000
  3 C      5.5161     6.0000     0.4839     4.2435     4.2435     0.0000
  4 O      8.5396     8.0000    -0.5396     1.9852     1.9852     0.0000
  5 C      6.1478     6.0000    -0.1478     3.6094     3.6094     0.0000
  6 C      5.9202     6.0000     0.0798     3.8832     3.8832     0.0000
  7 C      6.2208     6.0000    -0.2208     3.8622     3.8622     0.0000
  8 N      7.1826     7.0000    -0.1826     3.3325     3.3325    -0.0000
  9 C      5.6960     6.0000     0.3040     4.0957     4.0957    -0.0000
 10 S     16.5991    16.0000    -0.5991     1.5899     1.5899    -0.0000
 11 N      7.2273     7.0000    -0.2273     3.3055     3.3055    -0.0000
 12 C      5.9474     6.0000     0.0526     3.9066     3.9066     0.0000
 13 C      5.9721     6.0000     0.0279     3.6286     3.6286    -0.0000
 14 C      6.2105     6.0000    -0.2105     3.8107     3.8107     0.0000
 15 C      6.1439     6.0000    -0.1439     3.7685     3.7685    -0.0000
 16 C      6.2565     6.0000    -0.2565     3.7620     3.7620    -0.0000
 17 C      5.7644     6.0000     0.2356     3.9378     3.9378    -0.0000
 18 O      8.4371     8.0000    -0.4371     2.0477     2.0477     0.0000
 19 C      6.3122     6.0000    -0.3122     3.7777     3.7777     0.0000
 20 H      0.8991     1.0000     0.1009     0.9822     0.9822    -0.0000
 21 H      0.9031     1.0000     0.0969     0.9787     0.9787    -0.0000
 22 H      0.8744     1.0000     0.1256     0.9815     0.9815     0.0000
 23 H      0.8987     1.0000     0.1013     0.9780     0.9780    -0.0000
 24 H      0.8971     1.0000     0.1029     0.9801     0.9801    -0.0000
 25 H      0.8749     1.0000     0.1251     0.9865     0.9865     0.0000
 26 H      0.8733     1.0000     0.1267     0.9817     0.9817     0.0000
 27 H      0.8757     1.0000     0.1243     0.9862     0.9862    -0.0000
 28 H      0.7414     1.0000     0.2586     0.9688     0.9688     0.0000
 29 H      0.7624     1.0000     0.2376     0.9822     0.9822     0.0000
 30 H      0.8135     1.0000     0.1865     0.9907     0.9907     0.0000
 31 H      0.8103     1.0000     0.1897     0.9709     0.9709     0.0000
 32 H      0.7987     1.0000     0.2013     0.9608     0.9608    -0.0000
 33 H      0.8295     1.0000     0.1705     0.9822     0.9822     0.0000
 34 H      0.6672     1.0000     0.3328     0.9316     0.9316    -0.0000
 35 H      0.8150     1.0000     0.1850     0.9796     0.9796     0.0000

  Mayer bond orders larger than 0.100000
B(  0-C ,  1-C ) :   0.9759 B(  0-C , 20-H ) :   0.9775 B(  0-C , 21-H ) :   0.9745 
B(  0-C , 22-H ) :   0.9742 B(  1-C ,  2-O ) :   0.8842 B(  1-C , 23-H ) :   0.9764 
B(  1-C , 24-H ) :   0.9725 B(  2-O ,  3-C ) :   1.2251 B(  3-C ,  4-O ) :   1.9023 
B(  3-C ,  5-C ) :   1.0636 B(  5-C ,  6-C ) :   1.6499 B(  5-C , 12-C ) :   0.9646 
B(  6-C ,  7-C ) :   0.9518 B(  6-C ,  8-N ) :   1.1444 B(  7-C , 25-H ) :   0.9653 
B(  7-C , 26-H ) :   0.9604 B(  7-C , 27-H ) :   0.9819 B(  8-N ,  9-C ) :   1.2258 
B(  8-N , 28-H ) :   0.9231 B(  9-C , 10-S ) :   1.4431 B(  9-C , 11-N ) :   1.3589 
B( 11-N , 12-C ) :   0.9722 B( 11-N , 29-H ) :   0.9338 B( 12-C , 13-C ) :   0.9321 
B( 12-C , 30-H ) :   0.9918 B( 13-C , 14-C ) :   1.3548 B( 13-C , 19-C ) :   1.3070 
B( 14-C , 15-C ) :   1.3767 B( 14-C , 31-H ) :   0.9579 B( 15-C , 16-C ) :   1.3732 
B( 15-C , 32-H ) :   0.9568 B( 16-C , 17-C ) :   1.3435 B( 16-C , 33-H ) :   0.9612 
B( 17-C , 18-O ) :   1.1163 B( 17-C , 19-C ) :   1.3921 B( 18-O , 34-H ) :   0.9088 
B( 19-C , 35-H ) :   0.9551 

-------
TIMINGS
-------

Total SCF time: 0 days 2 hours 4 min 16 sec 

Total time                  ....    7456.067 sec
Sum of individual times     ....    7451.887 sec  ( 99.9%)

Fock matrix formation       ....    7437.513 sec  ( 99.8%)
Diagonalization             ....       1.789 sec  (  0.0%)
Density matrix formation    ....       0.214 sec  (  0.0%)
Population analysis         ....       0.249 sec  (  0.0%)
Initial guess               ....       6.236 sec  (  0.1%)
Orbital Transformation      ....       0.000 sec  (  0.0%)
Orbital Orthonormalization  ....       0.000 sec  (  0.0%)
DIIS solution               ....       2.213 sec  (  0.0%)
SOSCF solution              ....       1.973 sec  (  0.0%)

Maximum memory used throughout the entire SCF-calculation: 723.4 MB

------------------------------------------------------------------------------
                                ORCA  MP2 
------------------------------------------------------------------------------

Freezing NCore=48 chemical core electrons

-------------
RI-MP2 ENERGY
-------------
Dimension of the basis                    ...  828
Memory devoted to MP2                     ...  256 MB   
Data format for buffers                   ... DOUBLE
Compression type for matrix containers    ... UNCOMPRESSED
Overall scaling of the MP2 energy         ...   1.000e+00
Calculating two index integrals           ... done (    0.043 sec)
Cholesky decomposition of V**-1           ... done (    0.612 sec)

-----------------
RI-TRANSFORMATION (AUX index driven)
-----------------

Dimension of the orbital-basis         ... 828
Dimension of the aux-basis             ... 2141
Transformation of internal/external MOs...   24-  76 to   77- 827
Number Format for Storage              ... Double (8 Byte)
Integral mode                          ... Direct

First Phase: integral generation and transformation of MO indices
  Aux angular momentum 0               ... done (    5.219 sec)
  Aux angular momentum 1               ... done (    8.942 sec)
  Aux angular momentum 2               ... done (   11.598 sec)
  Aux angular momentum 3               ... done (    9.230 sec)
  Aux angular momentum 4               ... done (    3.270 sec)
Closing buffer VIA ( 0.63 GB; CompressionRatio= 1.00)
  Phase 1 completed in    38.430 sec
Second Phase: sorting and transformation of aux index

IA-Transformation
Memory available                       ... 158 MB 
Max. # MO pairs treated in a batch     ... 11    
# of internal orbitals                 ... 53
# batches for internal orbitals        ... 5
Closing buffer IAV ( 0.63 GB; CompressionRatio= 1.00)
(ia|v) transformation done in    20.529 sec

  Phase 2 completed in    20.543 sec
RI-Integral transformation completed in    58.978 sec
Opening buffers                              ... done

Starting loop over batches of integrals:

Operator 0  - window                       ... ( 24- 76)x( 77-827)
Operator 0  - Memory available             ...   256 MB
Operator 0  - Memory needed per MO         ...  12.3 MB
Operator 0  - Number of orbitals per batch ... 13
Operator 0  - Number of batches            ... 5

OPERATOR  0   PASS   0:  MOs    24 ...   36
  Reading integrals       ... ok
  Internal MO  26
  Internal MO  29
  Internal MO  32
  Internal MO  35
OPERATOR  0   PASS   1:  MOs    37 ...   49
  Reading integrals       ... ok
  Internal MO  38
  Internal MO  41
  Internal MO  44
  Internal MO  47
OPERATOR  0   PASS   2:  MOs    50 ...   62
  Reading integrals       ... ok
  Internal MO  50
  Internal MO  53
  Internal MO  56
  Internal MO  59
  Internal MO  62
OPERATOR  0   PASS   3:  MOs    63 ...   75
  Reading integrals       ... ok
  Internal MO  65
  Internal MO  68
  Internal MO  71
  Internal MO  74
OPERATOR  0   PASS   4:  MOs    76 ...   76
  Reading integrals       ... ok
Time spent in pair loops =    97.454 sec
Deleting buffer (Ka|jb)[aa] ...done

-----------------------------------------------
 RI-MP2 CORRELATION ENERGY:     -3.523712604 Eh
-----------------------------------------------


-------
TIMINGS
-------

Total time                :  157.195 sec
Integral trafo            :   59.000 sec ( 37.5%)
I/O of integrals          :    0.936 sec (  0.6%)
K(i,j) Operators          :   67.246 sec ( 42.8%)
T(i,j) pair energies      :    9.963 sec (  6.3%)
V-calculation             :    0.043 sec (  0.0%)
V**(-1/2)                 :    0.612 sec (  0.4%)
Gamma(ia|P)               :    0.000 sec (  0.0%)
Gamma-Trafo               :    0.000 sec (  0.0%)
D(virtual)                :    0.000 sec (  0.0%)
D(internal)               :    0.000 sec (  0.0%)
W(virtual)                :    0.000 sec (  0.0%)
W(internal)               :    0.000 sec (  0.0%)
L(virtual)                :    0.000 sec (  0.0%)
L(internal)               :    0.000 sec (  0.0%)
G(D)                      :    0.000 sec (  0.0%)
G(Z)                      :    0.000 sec (  0.0%)
Z-Vector Solution         :    0.000 sec (  0.0%)
3-Index Derivative        :    0.000 sec (  0.0%)
2-Index Derivative        :    0.000 sec (  0.0%)
Separable Gradient        :    0.000 sec (  0.0%)


---------------------------------------
MP2 TOTAL ENERGY:    -1274.424971276 Eh
---------------------------------------

Maximum memory used throughout the entire MP2-calculation: 303.4 MB

-------------------------   --------------------
FINAL SINGLE POINT ENERGY     -1274.424971276007
-------------------------   --------------------


                            ***************************************
                            *     ORCA property calculations      *
                            ***************************************


  WARNING: The energy has been calculated at the MP2 level but the densities
           used in the property calculations are still SCF densities
           MP2 response densities have not been calculated 
           use %mp2 Density relaxed end
           or  %mp2 Density unrelaxed end

                                    ---------------------
                                    Active property flags
                                    ---------------------
   (+) Dipole Moment


------------------------------------------------------------------------------
                       ORCA ELECTRIC PROPERTIES CALCULATION
------------------------------------------------------------------------------

Dipole Moment Calculation                       ... on
Quadrupole Moment Calculation                   ... off
Polarizability Calculation                      ... off
GBWName                                         ... qm_input.solv.gbw
Electron density file                           ... qm_input.solv.scfp
The origin for moment calculation is the CENTER OF MASS  = (-15.782094,  0.965101 -15.813597)

-------------
DIPOLE MOMENT
-------------
                                X             Y             Z
Electronic contribution:    -11.26567       2.08479      11.15344
Nuclear contribution   :     12.57343      -2.57780     -12.14392
                        -----------------------------------------
Total Dipole Moment    :      1.30776      -0.49301      -0.99048
                        -----------------------------------------
Magnitude (a.u.)       :      1.71299
Magnitude (Debye)      :      4.35408



--------------------
Rotational spectrum 
--------------------
 
Rotational constants in cm-1:     0.010826     0.008521     0.006062 
Rotational constants in MHz :   324.553374   255.443458   181.743587 

 Dipole components along the rotational axes: 
x,y,z [a.u.] :    -1.706243     0.150284     0.022174 
x,y,z [Debye]:    -4.336926     0.381991     0.056362 

 

Timings for individual modules:

Sum of individual times         ...     7852.414 sec (= 130.874 min)
GTO integral calculation        ...      238.532 sec (=   3.976 min)   3.0 %
SCF iterations                  ...     7456.178 sec (= 124.270 min)  95.0 %
MP2 module                      ...      157.704 sec (=   2.628 min)   2.0 %
                             ****ORCA TERMINATED NORMALLY****
TOTAL RUN TIME: 0 days 2 hours 10 minutes 53 seconds 347 msec
