
                                        *****************
                                        * O   R   C   A *
                                        *****************

                                            #,                                       
                                            ###                                      
                                            ####                                     
                                            #####                                    
                                            ######                                   
                                           ########,                                 
                                     ,,################,,,,,                         
                               ,,#################################,,                 
                          ,,##########################################,,             
                       ,#########################################, ''#####,          
                    ,#############################################,,   '####,        
                  ,##################################################,,,,####,       
                ,###########''''           ''''###############################       
              ,#####''   ,,,,##########,,,,          '''####'''          '####       
            ,##' ,,,,###########################,,,                        '##       
           ' ,,###''''                  '''############,,,                           
         ,,##''                                '''############,,,,        ,,,,,,###''
      ,#''                                            '''#######################'''  
     '                                                          ''''####''''         
             ,#######,   #######,   ,#######,      ##                                
            ,#'     '#,  ##    ##  ,#'     '#,    #''#        ######   ,####,        
            ##       ##  ##   ,#'  ##            #'  '#       #        #'  '#        
            ##       ##  #######   ##           ,######,      #####,   #    #        
            '#,     ,#'  ##    ##  '#,     ,#' ,#      #,         ##   #,  ,#        
             '#######'   ##     ##  '#######'  #'      '#     #####' # '####'        



                  #######################################################
                  #                        -***-                        #
                  #          Department of theory and spectroscopy      #
                  #    Directorship and core code : Frank Neese         #
                  #        Max Planck Institute fuer Kohlenforschung    #
                  #                Kaiser Wilhelm Platz 1               #
                  #                 D-45470 Muelheim/Ruhr               #
                  #                      Germany                        #
                  #                                                     #
                  #                  All rights reserved                #
                  #                        -***-                        #
                  #######################################################


                         Program Version 5.0.0 -  RELEASE  -
                                (SVN: $Rev: 19529$)
                ($Date: 2021-06-28 11:36:33 +0200 (Mo, 28 Jun 2021) $)


 With contributions from (in alphabetic order):
   Daniel Aravena         : Magnetic Suceptibility
   Michael Atanasov       : Ab Initio Ligand Field Theory (pilot matlab implementation)
   Alexander A. Auer      : GIAO ZORA, VPT2 properties, NMR spectrum
   Ute Becker             : Parallelization
   Giovanni Bistoni       : ED, misc. LED, open-shell LED, HFLD
   Martin Brehm           : Molecular dynamics
   Dmytro Bykov           : SCF Hessian
   Vijay G. Chilkuri      : MRCI spin determinant printing, contributions to CSF-ICE
   Dipayan Datta          : RHF DLPNO-CCSD density
   Achintya Kumar Dutta   : EOM-CC, STEOM-CC
   Dmitry Ganyushin       : Spin-Orbit,Spin-Spin,Magnetic field MRCI
   Miquel Garcia          : C-PCM Hessian, Gaussian charge scheme
   Yang Guo               : DLPNO-NEVPT2, F12-NEVPT2, CIM, IAO-localization
   Andreas Hansen         : Spin unrestricted coupled pair/coupled cluster methods
   Benjamin Helmich-Paris : MC-RPA, TRAH-SCF, COSX integrals
   Lee Huntington         : MR-EOM, pCC
   Robert Izsak           : Overlap fitted RIJCOSX, COSX-SCS-MP3, EOM
   Marcus Kettner         : VPT2
   Christian Kollmar      : KDIIS, OOCD, Brueckner-CCSD(T), CCSD density, CASPT2, CASPT2-K
   Simone Kossmann        : Meta GGA functionals, TD-DFT gradient, OOMP2, MP2 Hessian
   Martin Krupicka        : Initial AUTO-CI
   Lucas Lang             : DCDCAS
   Marvin Lechner         : AUTO-CI (C++ implementation), FIC-MRCC
   Dagmar Lenk            : GEPOL surface, SMD
   Dimitrios Liakos       : Extrapolation schemes; Compound Job, initial MDCI parallelization
   Dimitrios Manganas     : Further ROCIS development; embedding schemes
   Dimitrios Pantazis     : SARC Basis sets
   Anastasios Papadopoulos: AUTO-CI, single reference methods and gradients
   Taras Petrenko         : DFT Hessian,TD-DFT gradient, ASA, ECA, R-Raman, ABS, FL, XAS/XES, NRVS
   Peter Pinski           : DLPNO-MP2, DLPNO-MP2 Gradient
   Christoph Reimann      : Effective Core Potentials
   Marius Retegan         : Local ZFS, SOC
   Christoph Riplinger    : Optimizer, TS searches, QM/MM, DLPNO-CCSD(T), (RO)-DLPNO pert. Triples
   Tobias Risthaus        : Range-separated hybrids, TD-DFT gradient, RPA, STAB
   Michael Roemelt        : Original ROCIS implementation
   Masaaki Saitow         : Open-shell DLPNO-CCSD energy and density
   Barbara Sandhoefer     : DKH picture change effects
   Avijit Sen             : IP-ROCIS
   Kantharuban Sivalingam : CASSCF convergence, NEVPT2, FIC-MRCI
   Bernardo de Souza      : ESD, SOC TD-DFT
   Georgi Stoychev        : AutoAux, RI-MP2 NMR
   Willem Van den Heuvel  : Paramagnetic NMR
   Boris Wezisla          : Elementary symmetry handling
   Frank Wennmohs         : Technical directorship


 We gratefully acknowledge several colleagues who have allowed us to
 interface, adapt or use parts of their codes:
   Stefan Grimme, W. Hujo, H. Kruse, P. Pracht,  : VdW corrections, initial TS optimization,
                  C. Bannwarth, S. Ehlert          DFT functionals, gCP, sTDA/sTD-DF
   Ed Valeev, F. Pavosevic, A. Kumar             : LibInt (2-el integral package), F12 methods
   Garnet Chan, S. Sharma, J. Yang, R. Olivares  : DMRG
   Ulf Ekstrom                                   : XCFun DFT Library
   Mihaly Kallay                                 : mrcc  (arbitrary order and MRCC methods)
   Jiri Pittner, Ondrej Demel                    : Mk-CCSD
   Frank Weinhold                                : gennbo (NPA and NBO analysis)
   Christopher J. Cramer and Donald G. Truhlar   : smd solvation model
   Lars Goerigk                                  : TD-DFT with DH, B97 family of functionals
   V. Asgeirsson, H. Jonsson                     : NEB implementation
   FAccTs GmbH                                   : IRC, NEB, NEB-TS, DLPNO-Multilevel, CI-OPT
                                                   MM, QMMM, 2- and 3-layer-ONIOM, Crystal-QMMM,
                                                   LR-CPCM, SF, NACMEs, symmetry and pop. for TD-DFT,
                                                   nearIR, NL-DFT gradient (VV10), updates on ESD,
                                                   ML-optimized integration grids
   S Lehtola, MJT Oliveira, MAL Marques          : LibXC Library
   Liviu Ungur et al                             : ANISO software


 Your calculation uses the libint2 library for the computation of 2-el integrals
 For citations please refer to: http://libint.valeyev.net

 Your ORCA version has been built with support for libXC version: 5.1.0
 For citations please refer to: https://tddft.org/programs/libxc/

 This ORCA versions uses:
   CBLAS   interface :  Fast vector & matrix operations
   LAPACKE interface :  Fast linear algebra routines
   SCALAPACK package :  Parallel linear algebra routines
   Shared memory     :  Shared parallel matrices
   BLAS/LAPACK       :  OpenBLAS 0.3.15  USE64BITINT DYNAMIC_ARCH NO_AFFINITY SkylakeX SINGLE_THREADED
        Core in use  :  SkylakeX
   Copyright (c) 2011-2014, The OpenBLAS Project


================================================================================

----- Orbital basis set information -----
Your calculation utilizes the basis: cc-pVTZ 
       H, B-Ne : Obtained from the ccRepo (grant-hill.group.shef.ac.uk/ccrepo) Feb. 2017
                 T. H. Dunning, Jr., J. Chem. Phys. 90, 1007 (1989)
            He : Obtained from the ccRepo (grant-hill.group.shef.ac.uk/ccrepo) Feb. 2017
                 D. E. Woon, T. H. Dunning, Jr., J. Chem. Phys. 100, 2975 (1994)
  Li-Be, Na-Mg : Obtained from the ccRepo (grant-hill.group.shef.ac.uk/ccrepo) Feb. 2017
                 B. P. Prascher, D. E. Woon, K. A. Peterson, T. H. Dunning, Jr., A. K. Wilson, Theor. Chem. Acc. 128, 69 (2011)
         Al-Ar : Obtained from the ccRepo (grant-hill.group.shef.ac.uk/ccrepo) Feb. 2017
                 D. E. Woon, T. H. Dunning, Jr., J. Chem. Phys. 98, 1358 (1993)
            Ca : Obtained from the Peterson Research Group Website (tyr0.chem.wsu.edu/~kipeters) Feb. 2017
                 J. Koput, K. A. Peterson, J. Phys. Chem. 106, 9595 (2002)
         Sc-Zn : Obtained from the ccRepo (grant-hill.group.shef.ac.uk/ccrepo) Feb. 2017
                 N. B. Balabanov, K. A. Peterson, J. Chem. Phys. 123, 064107 (2005)
                 N. B. Balabanov, K. A. Peterson, J. Chem. Phys. 125, 074110 (2006)
         Ga-Kr : Obtained from the ccRepo (grant-hill.group.shef.ac.uk/ccrepo) Feb. 2017
                 A. K. Wilson, D. E. Woon, K. A. Peterson, T. H. Dunning, Jr., J. Chem. Phys. 110, 7667 (1999)
             Y : Obtained from the ccRepo (grant-hill.group.shef.ac.uk/ccrepo) Feb. 2017
                 K. A. Peterson, D. Figgen, M. Dolg, H. Stoll, J. Chem. Phys. 126, 124101 (2007)
        Ag, Au : Obtained from the Peterson Research Group Website (tyr0.chem.wsu.edu/~kipeters) Feb. 2017
                 K. A. Peterson, C. Puzzarini, Theor. Chem. Acc. 114, 283 (2005)

----- AuxC basis set information -----
Your calculation utilizes the auxiliary basis: cc-pVTZ/C 
  Obtained from the EMSL Basis Set Exchange (bse.pnl.gov) Feb. 2017
  H-He, B-F, Al-Ar, Ga-Kr : F. Weigend, A. Kohn, C. Hattig, J. Chem. Phys. 116, 3175 (2002)
             Li-Be, Na-Mg : C. Haettig, Phys. Chem. Chem. Phys. 7, 59 (2005)
                       Ne : C. Haettig, Phys. Chem. Chem. Phys. 7, 59 (2005)
                            F. Weigend, A. Kohn, C. Hattig, J. Chem. Phys. 116, 3175 (2002)
                    Sc-Zn : J. G. Hill, J. A. Platts, J. Chem. Phys. 128, 044104 (2008)

================================================================================
                                        WARNINGS
                       Please study these warnings very carefully!
================================================================================


WARNING: No MP2 level density has been requested!
         To caclulate MP2 level properties use
         %mp2 Density relaxed end
         or
         %mp2 Density unrelaxed end

WARNING: Post HF methods need fully converged wavefunctions
  ===> : Setting SCFConvForced true
         You can overwrite this default with %scf ConvForced false 


INFO   : the flag for use of the SHARK integral package has been found!

================================================================================
                                       INPUT FILE
================================================================================
NAME = qm_input.solv
|  1> ! RI-MP2 cc-pVTZ cc-pVTZ/c TightSCF KeepDens NoKeepInts
|  2> 
|  3> %pointcharges "srfp_output"
|  4> 
|  5> *xyz  0  1
|  6>     C    -6.1190477    0.3105761  -11.3065524
|  7>     C    -5.5669524   -0.6717097  -10.2811537
|  8>     O    -5.6252623   -2.0099326  -10.8965608
|  9>     C    -5.5611705   -3.1062095  -10.0907694
| 10>     O    -5.6837787   -2.9875384   -8.9013707
| 11>     C    -5.0473079   -4.3710776  -10.7067757
| 12>     C    -4.8829405   -5.5389631  -10.0332675
| 13>     C    -5.1402180   -5.7892370   -8.5259208
| 14>     N    -4.2915369   -6.6022305  -10.6810703
| 15>     C    -3.5663856   -6.5561578  -11.8480958
| 16>     S    -2.5836666   -7.8416663  -12.3743648
| 17>     N    -3.6299479   -5.3340183  -12.5095713
| 18>     C    -4.4859600   -4.2051437  -12.1159525
| 19>     C    -5.4679435   -3.9521897  -13.2396945
| 20>     C    -5.5515906   -2.7297069  -13.9175994
| 21>     C    -6.4900257   -2.5074553  -14.9128548
| 22>     C    -7.3178058   -3.6188123  -15.2760786
| 23>     C    -7.3071339   -4.8452495  -14.5566938
| 24>     O    -8.3452877   -5.7910659  -14.7412727
| 25>     C    -6.3705365   -4.9687708  -13.5169964
| 26>     H    -5.8061087    0.1091560  -12.3383878
| 27>     H    -5.7221573    1.3254712  -11.1814307
| 28>     H    -7.2127534    0.2278927  -11.2937768
| 29>     H    -4.5061614   -0.5166848  -10.0490317
| 30>     H    -6.1657048   -0.6734285   -9.3620878
| 31>     H    -6.1494804   -5.5509381   -8.1684344
| 32>     H    -4.5224634   -5.1455318   -7.8877884
| 33>     H    -4.8668142   -6.8242946   -8.2869738
| 34>     H    -4.1884128   -7.4553809  -10.1449116
| 35>     H    -3.0967025   -5.2476037  -13.3663957
| 36>     H    -3.7590367   -3.3846765  -12.0758152
| 37>     H    -4.9634510   -1.9162272  -13.5031837
| 38>     H    -6.4610444   -1.5459643  -15.4169293
| 39>     H    -7.9740383   -3.5303078  -16.1368467
| 40>     H    -8.4948773   -6.2787590  -13.9127151
| 41>     H    -6.3437379   -5.9130414  -12.9812438
| 42> *
| 43> 
| 44>                          ****END OF INPUT****
================================================================================

                       ****************************
                       * Single Point Calculation *
                       ****************************

---------------------------------
CARTESIAN COORDINATES (ANGSTROEM)
---------------------------------
  C     -6.119048    0.310576  -11.306552
  C     -5.566952   -0.671710  -10.281154
  O     -5.625262   -2.009933  -10.896561
  C     -5.561170   -3.106209  -10.090769
  O     -5.683779   -2.987538   -8.901371
  C     -5.047308   -4.371078  -10.706776
  C     -4.882941   -5.538963  -10.033267
  C     -5.140218   -5.789237   -8.525921
  N     -4.291537   -6.602230  -10.681070
  C     -3.566386   -6.556158  -11.848096
  S     -2.583667   -7.841666  -12.374365
  N     -3.629948   -5.334018  -12.509571
  C     -4.485960   -4.205144  -12.115952
  C     -5.467943   -3.952190  -13.239695
  C     -5.551591   -2.729707  -13.917599
  C     -6.490026   -2.507455  -14.912855
  C     -7.317806   -3.618812  -15.276079
  C     -7.307134   -4.845250  -14.556694
  O     -8.345288   -5.791066  -14.741273
  C     -6.370537   -4.968771  -13.516996
  H     -5.806109    0.109156  -12.338388
  H     -5.722157    1.325471  -11.181431
  H     -7.212753    0.227893  -11.293777
  H     -4.506161   -0.516685  -10.049032
  H     -6.165705   -0.673428   -9.362088
  H     -6.149480   -5.550938   -8.168434
  H     -4.522463   -5.145532   -7.887788
  H     -4.866814   -6.824295   -8.286974
  H     -4.188413   -7.455381  -10.144912
  H     -3.096702   -5.247604  -13.366396
  H     -3.759037   -3.384676  -12.075815
  H     -4.963451   -1.916227  -13.503184
  H     -6.461044   -1.545964  -15.416929
  H     -7.974038   -3.530308  -16.136847
  H     -8.494877   -6.278759  -13.912715
  H     -6.343738   -5.913041  -12.981244

----------------------------
CARTESIAN COORDINATES (A.U.)
----------------------------
  NO LB      ZA    FRAG     MASS         X           Y           Z
   0 C     6.0000    0    12.011  -11.563324    0.586904  -21.366288
   1 C     6.0000    0    12.011  -10.520015   -1.269347  -19.428565
   2 O     8.0000    0    15.999  -10.630205   -3.798222  -20.591516
   3 C     6.0000    0    12.011  -10.509089   -5.869885  -19.068791
   4 O     8.0000    0    15.999  -10.740785   -5.645629  -16.821153
   5 C     6.0000    0    12.011   -9.538030   -8.260140  -20.232874
   6 C     6.0000    0    12.011   -9.227420  -10.467123  -18.960128
   7 C     6.0000    0    12.011   -9.713604  -10.940072  -16.111655
   8 N     7.0000    0    14.007   -8.109829  -12.476408  -20.184298
   9 C     6.0000    0    12.011   -6.739492  -12.389343  -22.389656
  10 S    16.0000    0    32.060   -4.882422  -14.818602  -23.384161
  11 N     7.0000    0    14.007   -6.859607  -10.079834  -23.639664
  12 C     6.0000    0    12.011   -8.477236   -7.946570  -22.895832
  13 C     6.0000    0    12.011  -10.332916   -7.468556  -25.019397
  14 C     6.0000    0    12.011  -10.490986   -5.158398  -26.300451
  15 C     6.0000    0    12.011  -12.264371   -4.738404  -28.181211
  16 C     6.0000    0    12.011  -13.828649   -6.838564  -28.867605
  17 C     6.0000    0    12.011  -13.808482   -9.156195  -27.508165
  18 O     8.0000    0    15.999  -15.770308  -10.943529  -27.856968
  19 C     6.0000    0    12.011  -12.038569   -9.389616  -25.543421
  20 H     1.0000    0     1.008  -10.971955    0.206275  -23.316174
  21 H     1.0000    0     1.008  -10.813310    2.504778  -21.129842
  22 H     1.0000    0     1.008  -13.630129    0.430655  -21.342145
  23 H     1.0000    0     1.008   -8.515411   -0.976393  -18.989918
  24 H     1.0000    0     1.008  -11.651493   -1.272595  -17.691782
  25 H     1.0000    0     1.008  -11.620834  -10.489753  -15.436104
  26 H     1.0000    0     1.008   -8.546217   -9.723646  -14.905760
  27 H     1.0000    0     1.008   -9.196946  -12.896048  -15.660111
  28 H     1.0000    0     1.008   -7.914953  -14.088628  -19.171105
  29 H     1.0000    0     1.008   -5.851920   -9.916534  -25.258827
  30 H     1.0000    0     1.008   -7.103550   -6.396112  -22.819984
  31 H     1.0000    0     1.008   -9.379563   -3.621145  -25.517319
  32 H     1.0000    0     1.008  -12.209604   -2.921449  -29.133774
  33 H     1.0000    0     1.008  -15.068749   -6.671315  -30.494221
  34 H     1.0000    0     1.008  -16.052992  -11.865135  -26.291221
  35 H     1.0000    0     1.008  -11.987927  -11.174029  -24.530996

--------------------------------
INTERNAL COORDINATES (ANGSTROEM)
--------------------------------
 C      0   0   0     0.000000000000     0.00000000     0.00000000
 C      1   0   0     1.523527849147     0.00000000     0.00000000
 O      2   1   0     1.474098529018   106.85785854     0.00000000
 C      3   2   1     1.362068493364   118.80520167   198.68273301
 O      4   3   2     1.201575993537   120.08647589    12.43447333
 C      4   3   2     1.497801670354   116.90603405   205.25361617
 C      6   4   3     1.358155542919   124.31522614   177.93190554
 C      7   6   4     1.549491145837   126.95651170   357.93392994
 N      7   6   4     1.378384652295   118.82827301   185.64446007
 C      9   7   6     1.374742019154   126.82900983    15.72392549
 S     10   9   7     1.701536892605   122.81202253   165.44021760
 N     10   9   7     1.391120038150   114.14168414   349.84683481
 C     12  10   9     1.470391219229   125.01497476   354.00224212
 C     13  12  10     1.513629215810   107.89339659   243.05374866
 C     14  13  12     1.400362841223   122.95904083   239.25068221
 C     15  14  13     1.385853355101   121.87724819   182.23475324
 C     16  15  14     1.432573140992   116.67636116   356.14016959
 C     17  16  15     1.421891903579   122.44724936     7.49328203
 O     18  17  16     1.416474971642   120.29887880   165.02210059
 C     14  13  12     1.387446431496   116.61432057    63.85182437
 H      1   2   3     1.096897974790   114.28925316   319.91759492
 H      1   2   3     1.096899946863   112.87054998   206.49471600
 H      1   2   3     1.096901052422   107.75122952    77.87644803
 H      2   1   3     1.096900582635   113.68794719   115.07435219
 H      2   1   3     1.096899958666   111.53860912   240.87689945
 H      8   7   6     1.096901765875   115.76782058    56.43144934
 H      8   7   6     1.096900218916   112.18753205   300.45298811
 H      8   7   6     1.096899968995   108.84090700   182.66085365
 H      9   7   6     1.012899963771   116.40024968   180.08385702
 H     12  10   9     1.012899892462   116.94444984   178.89813459
 H     13  12  10     1.096902417360   101.43448416   128.13375748
 H     15  14  13     1.086000821274   115.90202183   351.83769736
 H     16  15  14     1.085999981759   117.20982569   182.45507198
 H     17  16  15     1.085999936719   119.13707437   188.01092766
 H     19  18  17     0.973000156595   109.65743756   211.63245499
 H     20  14  13     1.085999990512   121.49512589   357.49547167

---------------------------
INTERNAL COORDINATES (A.U.)
---------------------------
 C      0   0   0     0.000000000000     0.00000000     0.00000000
 C      1   0   0     2.879050392289     0.00000000     0.00000000
 O      2   1   0     2.785642514260   106.85785854     0.00000000
 C      3   2   1     2.573936428101   118.80520167   198.68273301
 O      4   3   2     2.270649556879   120.08647589    12.43447333
 C      4   3   2     2.830434959899   116.90603405   205.25361617
 C      6   4   3     2.566542023383   124.31522614   177.93190554
 C      7   6   4     2.928113912568   126.95651170   357.93392994
 N      7   6   4     2.604769500039   118.82827301   185.64446007
 C      9   7   6     2.597885920995   126.82900983    15.72392549
 S     10   9   7     3.215438733786   122.81202253   165.44021760
 N     10   9   7     2.628835891513   114.14168414   349.84683481
 C     12  10   9     2.778636714065   125.01497476   354.00224212
 C     13  12  10     2.860344686182   107.89339659   243.05374866
 C     14  13  12     2.646302258031   122.95904083   239.25068221
 C     15  14  13     2.618883302916   121.87724819   182.23475324
 C     16  15  14     2.707170903286   116.67636116   356.14016959
 C     17  16  15     2.686986289805   122.44724936     7.49328203
 O     18  17  16     2.676749771958   120.29887880   165.02210059
 C     14  13  12     2.621893781013   116.61432057    63.85182437
 H      1   2   3     2.072836769206   114.28925316   319.91759492
 H      1   2   3     2.072840495883   112.87054998   206.49471600
 H      1   2   3     2.072842585087   107.75122952    77.87644803
 H      2   1   3     2.072841697319   113.68794719   115.07435219
 H      2   1   3     2.072840518189   111.53860912   240.87689945
 H      8   7   6     2.072843933319   115.76782058    56.43144934
 H      8   7   6     2.072841009989   112.18753205   300.45298811
 H      8   7   6     2.072840537707   108.84090700   182.66085365
 H      9   7   6     1.914103532585   116.40024968   180.08385702
 H     12  10   9     1.914103397832   116.94444984   178.89813459
 H     13  12  10     2.072845164446   101.43448416   128.13375748
 H     15  14  13     2.052244133420   115.90202183   351.83769736
 H     16  15  14     2.052242546968   117.20982569   182.45507198
 H     17  16  15     2.052242461855   119.13707437   188.01092766
 H     19  18  17     1.838703824227   109.65743756   211.63245499
 H     20  14  13     2.052242563510   121.49512589   357.49547167

---------------------
BASIS SET INFORMATION
---------------------
There are 5 groups of distinct atoms

 Group   1 Type C   : 18s5p2d1f contracted to 4s3p2d1f pattern {8811/311/11/1}
 Group   2 Type O   : 18s5p2d1f contracted to 4s3p2d1f pattern {8811/311/11/1}
 Group   3 Type N   : 18s5p2d1f contracted to 4s3p2d1f pattern {8811/311/11/1}
 Group   4 Type S   : 41s16p2d1f contracted to 5s4p2d1f pattern {13131311/7711/11/1}
 Group   5 Type H   : 5s2p1d contracted to 3s2p1d pattern {311/11/1}

Atom   0C    basis set group =>   1
Atom   1C    basis set group =>   1
Atom   2O    basis set group =>   2
Atom   3C    basis set group =>   1
Atom   4O    basis set group =>   2
Atom   5C    basis set group =>   1
Atom   6C    basis set group =>   1
Atom   7C    basis set group =>   1
Atom   8N    basis set group =>   3
Atom   9C    basis set group =>   1
Atom  10S    basis set group =>   4
Atom  11N    basis set group =>   3
Atom  12C    basis set group =>   1
Atom  13C    basis set group =>   1
Atom  14C    basis set group =>   1
Atom  15C    basis set group =>   1
Atom  16C    basis set group =>   1
Atom  17C    basis set group =>   1
Atom  18O    basis set group =>   2
Atom  19C    basis set group =>   1
Atom  20H    basis set group =>   5
Atom  21H    basis set group =>   5
Atom  22H    basis set group =>   5
Atom  23H    basis set group =>   5
Atom  24H    basis set group =>   5
Atom  25H    basis set group =>   5
Atom  26H    basis set group =>   5
Atom  27H    basis set group =>   5
Atom  28H    basis set group =>   5
Atom  29H    basis set group =>   5
Atom  30H    basis set group =>   5
Atom  31H    basis set group =>   5
Atom  32H    basis set group =>   5
Atom  33H    basis set group =>   5
Atom  34H    basis set group =>   5
Atom  35H    basis set group =>   5
---------------------------------
AUXILIARY/C BASIS SET INFORMATION
---------------------------------
There are 5 groups of distinct atoms

 Group   1 Type C   : 8s6p5d3f1g contracted to 8s6p5d3f1g pattern {11111111/111111/11111/111/1}
 Group   2 Type O   : 8s6p5d3f1g contracted to 8s6p5d3f1g pattern {11111111/111111/11111/111/1}
 Group   3 Type N   : 8s6p5d3f1g contracted to 8s6p5d3f1g pattern {11111111/111111/11111/111/1}
 Group   4 Type S   : 10s8p7d5f2g contracted to 10s8p7d5f2g pattern {1111111111/11111111/1111111/11111/11}
 Group   5 Type H   : 4s3p2d1f contracted to 4s3p2d1f pattern {1111/111/11/1}

Atom   0C    basis set group =>   1
Atom   1C    basis set group =>   1
Atom   2O    basis set group =>   2
Atom   3C    basis set group =>   1
Atom   4O    basis set group =>   2
Atom   5C    basis set group =>   1
Atom   6C    basis set group =>   1
Atom   7C    basis set group =>   1
Atom   8N    basis set group =>   3
Atom   9C    basis set group =>   1
Atom  10S    basis set group =>   4
Atom  11N    basis set group =>   3
Atom  12C    basis set group =>   1
Atom  13C    basis set group =>   1
Atom  14C    basis set group =>   1
Atom  15C    basis set group =>   1
Atom  16C    basis set group =>   1
Atom  17C    basis set group =>   1
Atom  18O    basis set group =>   2
Atom  19C    basis set group =>   1
Atom  20H    basis set group =>   5
Atom  21H    basis set group =>   5
Atom  22H    basis set group =>   5
Atom  23H    basis set group =>   5
Atom  24H    basis set group =>   5
Atom  25H    basis set group =>   5
Atom  26H    basis set group =>   5
Atom  27H    basis set group =>   5
Atom  28H    basis set group =>   5
Atom  29H    basis set group =>   5
Atom  30H    basis set group =>   5
Atom  31H    basis set group =>   5
Atom  32H    basis set group =>   5
Atom  33H    basis set group =>   5
Atom  34H    basis set group =>   5
Atom  35H    basis set group =>   5
------------------------------------------------------------------------------
                           ORCA GTO INTEGRAL CALCULATION
------------------------------------------------------------------------------
------------------------------------------------------------------------------
                   ___                                                        
                  /   \      - P O W E R E D   B Y -                         
                 /     \                                                     
                 |  |  |   _    _      __       _____    __    __             
                 |  |  |  | |  | |    /  \     |  _  \  |  |  /  |          
                  \  \/   | |  | |   /    \    | | | |  |  | /  /          
                 / \  \   | |__| |  /  /\  \   | |_| |  |  |/  /          
                |  |  |   |  __  | /  /__\  \  |    /   |      \           
                |  |  |   | |  | | |   __   |  |    \   |  |\   \          
                \     /   | |  | | |  |  |  |  | |\  \  |  | \   \       
                 \___/    |_|  |_| |__|  |__|  |_| \__\ |__|  \__/        
                                                                              
                      - O R C A' S   B I G   F R I E N D -                    
                                      &                                       
                       - I N T E G R A L  F E E D E R -                       
                                                                              
 v1 FN, 2020, v2 2021                                                         
------------------------------------------------------------------------------


Reading SHARK input file qm_input.solv.SHARKINP.tmp ... ok
----------------------
SHARK INTEGRAL PACKAGE
----------------------

Number of atoms                             ...     36
Number of basis functions                   ...    828
Number of shells                            ...    298
Maximum angular momentum                    ...      3
Integral batch strategy                     ... SHARK/LIBINT Hybrid
RI-J (if used) integral strategy            ... SPLIT-RIJ (Revised 2003 algorithm where possible)
Printlevel                                  ...      1
Contraction scheme used                     ... SEGMENTED contraction
Coulomb Range Separation                    ... NOT USED
Exchange Range Separation                   ... NOT USED
Finite Nucleus Model                        ... NOT USED
Auxiliary Coulomb fitting basis             ... NOT available
Auxiliary J/K fitting basis                 ... NOT available
Auxiliary Correlation fitting basis         ... AVAILABLE
   # of basis functions in Aux-C            ...   2141
   # of shells in Aux-C                     ...    629
   Maximum angular momentum in Aux-C        ...      4
Auxiliary 'external' fitting basis          ... NOT available
Integral threshold                          ...     2.500000e-11
Primitive cut-off                           ...     2.500000e-12
Primitive pair pre-selection threshold      ...     2.500000e-12

Calculating pre-screening integrals         ... done (  0.6 sec) Dimension = 298
Organizing shell pair data                  ... done (  0.4 sec)
Shell pair information
Total number of shell pairs                 ...     44551
Shell pairs after pre-screening             ...     32629
Total number of primitive shell pairs       ...    234348
Primitive shell pairs kept                  ...     93677
          la=0 lb=0:   6536 shell pairs
          la=1 lb=0:   9077 shell pairs
          la=1 lb=1:   3203 shell pairs
          la=2 lb=0:   5202 shell pairs
          la=2 lb=1:   3570 shell pairs
          la=2 lb=2:   1011 shell pairs
          la=3 lb=0:   1881 shell pairs
          la=3 lb=1:   1286 shell pairs
          la=3 lb=2:    719 shell pairs
          la=3 lb=3:    144 shell pairs

Reading point charge file                   ... ok (42212 point charges)
Calculating one electron integrals          ... done (217.2 sec)
Calculating RI/C V-Matrix + Cholesky decomp.... done (  0.5 sec)
Calculating Nuclear repulsion               ... (+Point charges) done (  0.0 sec) ENN=   2104.971361671283 Eh

SHARK setup successfully completed in 219.0 seconds

Maximum memory used throughout the entire GTOINT-calculation: 480.6 MB
ENUC WAS=  0.000000000
ENUC IS =  0.000000000
-------------------------------------------------------------------------------
                                 ORCA SCF
-------------------------------------------------------------------------------

------------
SCF SETTINGS
------------
Hamiltonian:
 Ab initio Hamiltonian  Method          .... Hartree-Fock(GTOs)


General Settings:
 Integral files         IntName         .... qm_input.solv
 Hartree-Fock type      HFTyp           .... RHF
 Total Charge           Charge          ....    0
 Multiplicity           Mult            ....    1
 Number of Electrons    NEL             ....  154
 Basis Dimension        Dim             ....  828
 Nuclear Repulsion      ENuc            ....   2104.9713616713 Eh

Convergence Acceleration:
 DIIS                   CNVDIIS         .... on
   Start iteration      DIISMaxIt       ....    12
   Startup error        DIISStart       ....  0.200000
   # of expansion vecs  DIISMaxEq       ....     5
   Bias factor          DIISBfac        ....   1.050
   Max. coefficient     DIISMaxC        ....  10.000
 Trust-Rad. Augm. Hess. CNVTRAH         .... auto
   Auto Start mean grad. ratio tolernc. ....  1.125000
   Auto Start start iteration           ....    20
   Auto Start num. interpolation iter.  ....    10
   Max. Number of Micro iterations      ....    16
   Max. Number of Macro iterations      .... Maxiter - #DIIS iter
   Number of Davidson start vectors     ....     2
   Converg. threshold I  (grad. norm)   ....   1.000e-05
   Converg. threshold II (energy diff.) ....   1.000e-08
   Grad. Scal. Fac. for Micro threshold ....   0.100
   Minimum threshold for Micro iter.    ....   0.010
   NR start threshold (gradient norm)   ....   0.001
   Initial trust radius                 ....   0.400
   Minimum AH scaling param. (alpha)    ....   1.000
   Maximum AH scaling param. (alpha)    .... 1000.000
   Orbital update algorithm             .... Taylor
   White noise on init. David. guess    .... on
   Maximum white noise                  ....   0.010
   Quad. conv. algorithm                .... NR
 SOSCF                  CNVSOSCF        .... on
   Start iteration      SOSCFMaxIt      ....   150
   Startup grad/error   SOSCFStart      ....  0.003300
 Level Shifting         CNVShift        .... on
   Level shift para.    LevelShift      ....    0.2500
   Turn off err/grad.   ShiftErr        ....    0.0010
 Zerner damping         CNVZerner       .... off
 Static damping         CNVDamp         .... on
   Fraction old density DampFac         ....    0.7000
   Max. Damping (<1)    DampMax         ....    0.9800
   Min. Damping (>=0)   DampMin         ....    0.0000
   Turn off err/grad.   DampErr         ....    0.1000
 Fernandez-Rico         CNVRico         .... off

SCF Procedure:
 Maximum # iterations   MaxIter         ....   125
 SCF integral mode      SCFMode         .... Direct
   Integral package                     .... SHARK and LIBINT hybrid scheme
 Reset frequency        DirectResetFreq ....    20
 Integral Threshold     Thresh          ....  2.500e-11 Eh
 Primitive CutOff       TCut            ....  2.500e-12 Eh

Convergence Tolerance:
 Convergence Check Mode ConvCheckMode   .... Total+1el-Energy
 Convergence forced     ConvForced      .... 1
 Energy Change          TolE            ....  1.000e-08 Eh
 1-El. energy change                    ....  1.000e-05 Eh
 Orbital Gradient       TolG            ....  1.000e-05
 Orbital Rotation angle TolX            ....  1.000e-05
 DIIS Error             TolErr          ....  5.000e-07


Diagonalization of the overlap matrix:
Smallest eigenvalue                        ... 4.237e-05
Time for diagonalization                   ...    0.139 sec
Threshold for overlap eigenvalues          ... 1.000e-08
Number of eigenvalues below threshold      ... 0
Time for construction of square roots      ...    0.060 sec
Total time needed                          ...    0.201 sec

Time for model grid setup =    1.415 sec

------------------------------
INITIAL GUESS: MODEL POTENTIAL
------------------------------
Loading Hartree-Fock densities                     ... done
Calculating cut-offs                               ... done
Initializing the effective Hamiltonian             ... done
Setting up the integral package (SHARK)            ... done
Starting the Coulomb interaction                   ... done (   4.4 sec)
Reading the grid                                   ... done
Mapping shells                                     ... done
Starting the XC term evaluation                    ... done (   1.4 sec)
Transforming the Hamiltonian                       ... done (   0.1 sec)
Diagonalizing the Hamiltonian                      ... done (   0.1 sec)
Back transforming the eigenvectors                 ... done (   0.0 sec)
Now organizing SCF variables                       ... done
                      ------------------
                      INITIAL GUESS DONE (   7.5 sec)
                      ------------------
--------------
SCF ITERATIONS
--------------
ITER       Energy         Delta-E        Max-DP      RMS-DP      [F,P]     Damp
               ***  Starting incremental Fock matrix formation  ***
  0  -1270.0471294888   0.000000000000 0.08940868  0.00051346  0.3761988 0.7000
  1  -1270.3328425318  -0.285713043062 0.08133492  0.00042612  0.2216752 0.7000
                               ***Turning on DIIS***
  2  -1270.5099353769  -0.177092845076 0.04682468  0.00027764  0.1198909 0.7000
  3  -1272.5054347883  -1.995499411375 0.06413451  0.00055630  0.0839332 0.0000
  4  -1270.8487631248   1.656671663459 0.02248134  0.00011621  0.0075933 0.0000
  5  -1270.8916550626  -0.042891937738 0.00704090  0.00005798  0.0045813 0.0000
                      *** Initiating the SOSCF procedure ***
                           *** Shutting down DIIS ***
                      *** Re-Reading the Fockian *** 
                      *** Removing any level shift *** 
ITER      Energy       Delta-E        Grad      Rot      Max-DP    RMS-DP
  6  -1270.87670755   0.0149475162  0.001835  0.001835  0.002513  0.000029
               *** Restarting incremental Fock matrix formation ***
  7  -1270.89345436  -0.0167468124  0.000744  0.001749  0.001549  0.000018
  8  -1270.89351069  -0.0000563279  0.000431  0.002108  0.001708  0.000020
  9  -1270.89353243  -0.0000217404  0.000184  0.000358  0.000494  0.000004
 10  -1270.89353517  -0.0000027382  0.000044  0.000123  0.000171  0.000001
 11  -1270.89353545  -0.0000002824  0.000025  0.000126  0.000083  0.000001
 12  -1270.89353555  -0.0000001021  0.000010  0.000037  0.000038  0.000000
 13  -1270.89353556  -0.0000000086  0.000004  0.000012  0.000016  0.000000
                  ***Gradient check signals convergence***
              ***Rediagonalizing the Fockian in SOSCF/NRSCF***

               *****************************************************
               *                     SUCCESS                       *
               *           SCF CONVERGED AFTER  14 CYCLES          *
               *****************************************************


----------------
TOTAL SCF ENERGY
----------------

Total Energy       :        -1270.89353555 Eh          -34582.77126 eV

Components:
Nuclear Repulsion  :         2104.97136167 Eh           57279.18277 eV
Electronic Energy  :        -3375.86489723 Eh          -91861.95402 eV
One Electron Energy:        -5511.24176467 Eh         -149968.51267 eV
Two Electron Energy:         2135.37686744 Eh           58106.55864 eV

Virial components:
Potential Energy   :        -2539.65307057 Eh          -69107.47341 eV
Kinetic Energy     :         1268.75953501 Eh           34524.70215 eV
Virial Ratio       :            2.00168196


---------------
SCF CONVERGENCE
---------------

  Last Energy change         ...    4.5770e-09  Tolerance :   1.0000e-08
  Last MAX-Density change    ...    3.9809e-06  Tolerance :   1.0000e-07
  Last RMS-Density change    ...    4.3449e-08  Tolerance :   5.0000e-09
  Last Orbital Gradient      ...    1.4894e-06  Tolerance :   1.0000e-05
  Last Orbital Rotation      ...    3.8063e-06  Tolerance :   1.0000e-05

             **** THE GBW FILE WAS UPDATED (qm_input.solv.gbw) ****
             **** DENSITY qm_input.solv.scfp WAS UPDATED ****
             **** ENERGY FILE WAS UPDATED (qm_input.solv.en.tmp) ****
             **** THE GBW FILE WAS UPDATED (qm_input.solv.gbw) ****
             **** DENSITY qm_input.solv.scfp WAS UPDATED ****
----------------
ORBITAL ENERGIES
----------------

  NO   OCC          E(Eh)            E(eV) 
   0   2.0000     -94.635409     -2575.1604 
   1   2.0000     -23.330468      -634.8543 
   2   2.0000     -23.315002      -634.4335 
   3   2.0000     -23.284470      -633.6026 
   4   2.0000     -18.353085      -499.4128 
   5   2.0000     -18.335829      -498.9433 
   6   2.0000     -14.132053      -384.5527 
   7   2.0000     -14.130174      -384.5016 
   8   2.0000     -14.063755      -382.6942 
   9   2.0000     -14.045317      -382.1925 
  10   2.0000     -14.028023      -381.7219 
  11   2.0000     -14.020907      -381.5283 
  12   2.0000     -13.983781      -380.5180 
  13   2.0000     -13.980750      -380.4355 
  14   2.0000     -13.980700      -380.4342 
  15   2.0000     -13.977451      -380.3458 
  16   2.0000     -13.970359      -380.1528 
  17   2.0000     -13.969893      -380.1401 
  18   2.0000     -13.963333      -379.9616 
  19   2.0000     -13.945719      -379.4823 
  20   2.0000     -11.639702      -316.7324 
  21   2.0000      -9.321408      -253.6484 
  22   2.0000      -9.319547      -253.5978 
  23   2.0000      -9.319090      -253.5853 
  24   2.0000      -4.195051      -114.1531 
  25   2.0000      -4.110263      -111.8459 
  26   2.0000      -4.095924      -111.4558 
  27   2.0000      -4.065876      -110.6381 
  28   2.0000      -3.962628      -107.8286 
  29   2.0000      -3.887070      -105.7726 
  30   2.0000      -3.844057      -104.6021 
  31   2.0000      -3.763600      -102.4128 
  32   2.0000      -3.763072      -102.3984 
  33   2.0000      -3.745389      -101.9172 
  34   2.0000      -3.716759      -101.1382 
  35   2.0000      -3.708850      -100.9229 
  36   2.0000      -3.645439       -99.1974 
  37   2.0000      -3.611264       -98.2675 
  38   2.0000      -3.578488       -97.3756 
  39   2.0000      -3.567368       -97.0730 
  40   2.0000      -3.549174       -96.5779 
  41   2.0000      -3.540125       -96.3317 
  42   2.0000      -3.492569       -95.0376 
  43   2.0000      -3.457618       -94.0866 
  44   2.0000      -3.451565       -93.9219 
  45   2.0000      -3.428022       -93.2812 
  46   2.0000      -3.419301       -93.0439 
  47   2.0000      -3.407602       -92.7256 
  48   2.0000      -3.393267       -92.3355 
  49   2.0000      -3.385029       -92.1113 
  50   2.0000      -3.369329       -91.6841 
  51   2.0000      -3.368242       -91.6545 
  52   2.0000      -3.354646       -91.2846 
  53   2.0000      -3.337811       -90.8265 
  54   2.0000      -3.333219       -90.7015 
  55   2.0000      -3.323332       -90.4324 
  56   2.0000      -3.309529       -90.0569 
  57   2.0000      -3.298787       -89.7646 
  58   2.0000      -3.293313       -89.6156 
  59   2.0000      -3.286429       -89.4283 
  60   2.0000      -3.275495       -89.1308 
  61   2.0000      -3.266134       -88.8760 
  62   2.0000      -3.259802       -88.7037 
  63   2.0000      -3.253839       -88.5415 
  64   2.0000      -3.250940       -88.4626 
  65   2.0000      -3.245492       -88.3143 
  66   2.0000      -3.230970       -87.9192 
  67   2.0000      -3.224766       -87.7503 
  68   2.0000      -3.216166       -87.5163 
  69   2.0000      -3.197224       -87.0009 
  70   2.0000      -3.187277       -86.7302 
  71   2.0000      -3.184034       -86.6420 
  72   2.0000      -3.083459       -83.9052 
  73   2.0000      -3.077887       -83.7536 
  74   2.0000      -3.071656       -83.5840 
  75   2.0000      -3.059205       -83.2452 
  76   2.0000      -3.053426       -83.0880 
  77   0.0000      -2.658568       -72.3433 
  78   0.0000      -2.622357       -71.3580 
  79   0.0000      -2.598024       -70.6958 
  80   0.0000      -2.580771       -70.2264 
  81   0.0000      -2.573831       -70.0375 
  82   0.0000      -2.565160       -69.8015 
  83   0.0000      -2.554425       -69.5094 
  84   0.0000      -2.547468       -69.3201 
  85   0.0000      -2.537041       -69.0364 
  86   0.0000      -2.535078       -68.9830 
  87   0.0000      -2.527378       -68.7735 
  88   0.0000      -2.516670       -68.4821 
  89   0.0000      -2.510629       -68.3177 
  90   0.0000      -2.509445       -68.2855 
  91   0.0000      -2.504996       -68.1644 
  92   0.0000      -2.498035       -67.9750 
  93   0.0000      -2.490033       -67.7572 
  94   0.0000      -2.481931       -67.5368 
  95   0.0000      -2.469870       -67.2086 
  96   0.0000      -2.465730       -67.0959 
  97   0.0000      -2.459866       -66.9364 
  98   0.0000      -2.452008       -66.7225 
  99   0.0000      -2.426560       -66.0301 
 100   0.0000      -2.422490       -65.9193 
 101   0.0000      -2.416922       -65.7678 
 102   0.0000      -2.409470       -65.5650 
 103   0.0000      -2.395543       -65.1860 
 104   0.0000      -2.390730       -65.0551 
 105   0.0000      -2.385172       -64.9038 
 106   0.0000      -2.377490       -64.6948 
 107   0.0000      -2.368250       -64.4434 
 108   0.0000      -2.361325       -64.2549 
 109   0.0000      -2.354114       -64.0587 
 110   0.0000      -2.349179       -63.9244 
 111   0.0000      -2.345867       -63.8343 
 112   0.0000      -2.335464       -63.5512 
 113   0.0000      -2.330467       -63.4152 
 114   0.0000      -2.328863       -63.3716 
 115   0.0000      -2.318497       -63.0895 
 116   0.0000      -2.314710       -62.9865 
 117   0.0000      -2.309117       -62.8343 
 118   0.0000      -2.301233       -62.6197 
 119   0.0000      -2.294896       -62.4473 
 120   0.0000      -2.281821       -62.0915 
 121   0.0000      -2.278189       -61.9927 
 122   0.0000      -2.271328       -61.8060 
 123   0.0000      -2.270430       -61.7815 
 124   0.0000      -2.265642       -61.6513 
 125   0.0000      -2.257148       -61.4201 
 126   0.0000      -2.255075       -61.3637 
 127   0.0000      -2.246582       -61.1326 
 128   0.0000      -2.243741       -61.0553 
 129   0.0000      -2.238100       -60.9018 
 130   0.0000      -2.232830       -60.7584 
 131   0.0000      -2.222259       -60.4707 
 132   0.0000      -2.217635       -60.3449 
 133   0.0000      -2.207319       -60.0642 
 134   0.0000      -2.203506       -59.9604 
 135   0.0000      -2.195821       -59.7513 
 136   0.0000      -2.193087       -59.6769 
 137   0.0000      -2.191820       -59.6425 
 138   0.0000      -2.184909       -59.4544 
 139   0.0000      -2.180150       -59.3249 
 140   0.0000      -2.175103       -59.1876 
 141   0.0000      -2.172318       -59.1118 
 142   0.0000      -2.168978       -59.0209 
 143   0.0000      -2.160685       -58.7952 
 144   0.0000      -2.149649       -58.4949 
 145   0.0000      -2.144966       -58.3675 
 146   0.0000      -2.142118       -58.2900 
 147   0.0000      -2.133776       -58.0630 
 148   0.0000      -2.124045       -57.7982 
 149   0.0000      -2.119636       -57.6782 
 150   0.0000      -2.115478       -57.5651 
 151   0.0000      -2.111356       -57.4529 
 152   0.0000      -2.107619       -57.3512 
 153   0.0000      -2.104364       -57.2626 
 154   0.0000      -2.101643       -57.1886 
 155   0.0000      -2.099808       -57.1387 
 156   0.0000      -2.094523       -56.9949 
 157   0.0000      -2.093818       -56.9757 
 158   0.0000      -2.087382       -56.8006 
 159   0.0000      -2.085375       -56.7459 
 160   0.0000      -2.075978       -56.4902 
 161   0.0000      -2.070096       -56.3302 
 162   0.0000      -2.061793       -56.1042 
 163   0.0000      -2.057550       -55.9888 
 164   0.0000      -2.053144       -55.8689 
 165   0.0000      -2.049731       -55.7760 
 166   0.0000      -2.041598       -55.5547 
 167   0.0000      -2.037123       -55.4329 
 168   0.0000      -2.034943       -55.3736 
 169   0.0000      -2.025050       -55.1044 
 170   0.0000      -2.023486       -55.0618 
 171   0.0000      -2.015596       -54.8472 
 172   0.0000      -2.008399       -54.6513 
 173   0.0000      -2.006252       -54.5929 
 174   0.0000      -1.998568       -54.3838 
 175   0.0000      -1.993652       -54.2500 
 176   0.0000      -1.986085       -54.0441 
 177   0.0000      -1.980350       -53.8881 
 178   0.0000      -1.974172       -53.7200 
 179   0.0000      -1.971148       -53.6377 
 180   0.0000      -1.963106       -53.4188 
 181   0.0000      -1.959256       -53.3141 
 182   0.0000      -1.948971       -53.0342 
 183   0.0000      -1.944807       -52.9209 
 184   0.0000      -1.939750       -52.7833 
 185   0.0000      -1.931928       -52.5704 
 186   0.0000      -1.926730       -52.4290 
 187   0.0000      -1.921322       -52.2818 
 188   0.0000      -1.902553       -51.7711 
 189   0.0000      -1.894288       -51.5462 
 190   0.0000      -1.890996       -51.4566 
 191   0.0000      -1.881744       -51.2049 
 192   0.0000      -1.872376       -50.9499 
 193   0.0000      -1.862263       -50.6747 
 194   0.0000      -1.855602       -50.4935 
 195   0.0000      -1.847545       -50.2743 
 196   0.0000      -1.843452       -50.1629 
 197   0.0000      -1.836546       -49.9749 
 198   0.0000      -1.833517       -49.8925 
 199   0.0000      -1.828296       -49.7505 
 200   0.0000      -1.823601       -49.6227 
 201   0.0000      -1.811970       -49.3062 
 202   0.0000      -1.805895       -49.1409 
 203   0.0000      -1.798407       -48.9371 
 204   0.0000      -1.786633       -48.6168 
 205   0.0000      -1.783952       -48.5438 
 206   0.0000      -1.777580       -48.3704 
 207   0.0000      -1.766361       -48.0651 
 208   0.0000      -1.762062       -47.9481 
 209   0.0000      -1.755520       -47.7701 
 210   0.0000      -1.746424       -47.5226 
 211   0.0000      -1.744374       -47.4668 
 212   0.0000      -1.740096       -47.3504 
 213   0.0000      -1.728536       -47.0359 
 214   0.0000      -1.719063       -46.7781 
 215   0.0000      -1.711121       -46.5620 
 216   0.0000      -1.701050       -46.2879 
 217   0.0000      -1.698750       -46.2253 
 218   0.0000      -1.688882       -45.9568 
 219   0.0000      -1.682850       -45.7927 
 220   0.0000      -1.676344       -45.6156 
 221   0.0000      -1.670334       -45.4521 
 222   0.0000      -1.655341       -45.0441 
 223   0.0000      -1.651788       -44.9474 
 224   0.0000      -1.644228       -44.7417 
 225   0.0000      -1.632619       -44.4258 
 226   0.0000      -1.623385       -44.1745 
 227   0.0000      -1.614189       -43.9243 
 228   0.0000      -1.609206       -43.7887 
 229   0.0000      -1.604538       -43.6617 
 230   0.0000      -1.600113       -43.5413 
 231   0.0000      -1.590277       -43.2736 
 232   0.0000      -1.580854       -43.0172 
 233   0.0000      -1.575934       -42.8833 
 234   0.0000      -1.566362       -42.6229 
 235   0.0000      -1.564478       -42.5716 
 236   0.0000      -1.550413       -42.1889 
 237   0.0000      -1.547698       -42.1150 
 238   0.0000      -1.542866       -41.9835 
 239   0.0000      -1.533013       -41.7154 
 240   0.0000      -1.526212       -41.5304 
 241   0.0000      -1.522165       -41.4202 
 242   0.0000      -1.520320       -41.3700 
 243   0.0000      -1.509668       -41.0802 
 244   0.0000      -1.500093       -40.8196 
 245   0.0000      -1.496685       -40.7269 
 246   0.0000      -1.488563       -40.5059 
 247   0.0000      -1.485029       -40.4097 
 248   0.0000      -1.480870       -40.2965 
 249   0.0000      -1.471815       -40.0501 
 250   0.0000      -1.465537       -39.8793 
 251   0.0000      -1.463331       -39.8193 
 252   0.0000      -1.456455       -39.6322 
 253   0.0000      -1.443598       -39.2823 
 254   0.0000      -1.435073       -39.0503 
 255   0.0000      -1.431219       -38.9454 
 256   0.0000      -1.419468       -38.6257 
 257   0.0000      -1.411652       -38.4130 
 258   0.0000      -1.402020       -38.1509 
 259   0.0000      -1.394861       -37.9561 
 260   0.0000      -1.385359       -37.6975 
 261   0.0000      -1.383379       -37.6437 
 262   0.0000      -1.372972       -37.3605 
 263   0.0000      -1.358821       -36.9754 
 264   0.0000      -1.351805       -36.7845 
 265   0.0000      -1.338866       -36.4324 
 266   0.0000      -1.337071       -36.3835 
 267   0.0000      -1.324851       -36.0510 
 268   0.0000      -1.319612       -35.9085 
 269   0.0000      -1.314691       -35.7746 
 270   0.0000      -1.310931       -35.6722 
 271   0.0000      -1.298591       -35.3365 
 272   0.0000      -1.289810       -35.0975 
 273   0.0000      -1.285111       -34.9696 
 274   0.0000      -1.275811       -34.7166 
 275   0.0000      -1.266834       -34.4723 
 276   0.0000      -1.262013       -34.3411 
 277   0.0000      -1.245078       -33.8803 
 278   0.0000      -1.235602       -33.6224 
 279   0.0000      -1.230829       -33.4926 
 280   0.0000      -1.228561       -33.4308 
 281   0.0000      -1.222450       -33.2646 
 282   0.0000      -1.217887       -33.1404 
 283   0.0000      -1.212765       -33.0010 
 284   0.0000      -1.206897       -32.8413 
 285   0.0000      -1.194868       -32.5140 
 286   0.0000      -1.191358       -32.4185 
 287   0.0000      -1.185184       -32.2505 
 288   0.0000      -1.176988       -32.0275 
 289   0.0000      -1.166395       -31.7392 
 290   0.0000      -1.163098       -31.6495 
 291   0.0000      -1.160084       -31.5675 
 292   0.0000      -1.152744       -31.3677 
 293   0.0000      -1.144375       -31.1400 
 294   0.0000      -1.139493       -31.0072 
 295   0.0000      -1.132198       -30.8087 
 296   0.0000      -1.124175       -30.5903 
 297   0.0000      -1.114857       -30.3368 
 298   0.0000      -1.106752       -30.1162 
 299   0.0000      -1.098416       -29.8894 
 300   0.0000      -1.085349       -29.5338 
 301   0.0000      -1.080561       -29.4036 
 302   0.0000      -1.075598       -29.2685 
 303   0.0000      -1.070464       -29.1288 
 304   0.0000      -1.066819       -29.0296 
 305   0.0000      -1.055625       -28.7250 
 306   0.0000      -1.045563       -28.4512 
 307   0.0000      -1.034584       -28.1524 
 308   0.0000      -1.030038       -28.0288 
 309   0.0000      -1.023683       -27.8558 
 310   0.0000      -1.018471       -27.7140 
 311   0.0000      -0.997704       -27.1489 
 312   0.0000      -0.988401       -26.8957 
 313   0.0000      -0.983909       -26.7735 
 314   0.0000      -0.975043       -26.5323 
 315   0.0000      -0.960261       -26.1300 
 316   0.0000      -0.955066       -25.9887 
 317   0.0000      -0.941166       -25.6104 
 318   0.0000      -0.932669       -25.3792 
 319   0.0000      -0.923411       -25.1273 
 320   0.0000      -0.912520       -24.8309 
 321   0.0000      -0.898933       -24.4612 
 322   0.0000      -0.886753       -24.1298 
 323   0.0000      -0.881116       -23.9764 
 324   0.0000      -0.872537       -23.7429 
 325   0.0000      -0.852304       -23.1924 
 326   0.0000      -0.849699       -23.1215 
 327   0.0000      -0.841009       -22.8850 
 328   0.0000      -0.832377       -22.6501 
 329   0.0000      -0.823147       -22.3990 
 330   0.0000      -0.814180       -22.1550 
 331   0.0000      -0.801376       -21.8066 
 332   0.0000      -0.800611       -21.7857 
 333   0.0000      -0.793180       -21.5835 
 334   0.0000      -0.778754       -21.1910 
 335   0.0000      -0.772358       -21.0169 
 336   0.0000      -0.760198       -20.6860 
 337   0.0000      -0.747560       -20.3421 
 338   0.0000      -0.727710       -19.8020 
 339   0.0000      -0.724820       -19.7234 
 340   0.0000      -0.716523       -19.4976 
 341   0.0000      -0.711058       -19.3489 
 342   0.0000      -0.696336       -18.9483 
 343   0.0000      -0.672918       -18.3110 
 344   0.0000      -0.646515       -17.5926 
 345   0.0000      -0.642175       -17.4745 
 346   0.0000      -0.631838       -17.1932 
 347   0.0000      -0.606327       -16.4990 
 348   0.0000      -0.590248       -16.0615 
 349   0.0000      -0.579951       -15.7813 
 350   0.0000      -0.562843       -15.3157 
 351   0.0000      -0.558571       -15.1995 
 352   0.0000      -0.529166       -14.3993 
 353   0.0000      -0.511697       -13.9240 
 354   0.0000      -0.493349       -13.4247 
 355   0.0000      -0.485078       -13.1996 
 356   0.0000      -0.479785       -13.0556 
 357   0.0000      -0.460386       -12.5277 
 358   0.0000      -0.453961       -12.3529 
 359   0.0000      -0.427250       -11.6261 
 360   0.0000      -0.417682       -11.3657 
 361   0.0000      -0.406936       -11.0733 
 362   0.0000      -0.404168       -10.9980 
 363   0.0000      -0.392129       -10.6704 
 364   0.0000      -0.378206       -10.2915 
 365   0.0000      -0.362794        -9.8721 
 366   0.0000      -0.353123        -9.6090 
 367   0.0000      -0.351351        -9.5608 
 368   0.0000      -0.332656        -9.0520 
 369   0.0000      -0.325574        -8.8593 
 370   0.0000      -0.303575        -8.2607 
 371   0.0000      -0.273484        -7.4419 
 372   0.0000      -0.262405        -7.1404 
 373   0.0000      -0.250537        -6.8175 
 374   0.0000      -0.248510        -6.7623 
 375   0.0000      -0.226028        -6.1505 
 376   0.0000      -0.220959        -6.0126 
 377   0.0000      -0.206203        -5.6111 
 378   0.0000      -0.193709        -5.2711 
 379   0.0000      -0.186672        -5.0796 
 380   0.0000      -0.167746        -4.5646 
 381   0.0000      -0.161514        -4.3950 
 382   0.0000      -0.141671        -3.8551 
 383   0.0000      -0.134184        -3.6513 
 384   0.0000      -0.125134        -3.4051 
 385   0.0000      -0.111230        -3.0267 
 386   0.0000      -0.102173        -2.7803 
 387   0.0000      -0.083151        -2.2627 
 388   0.0000      -0.065103        -1.7715 
 389   0.0000      -0.058031        -1.5791 
 390   0.0000      -0.051314        -1.3963 
 391   0.0000      -0.041490        -1.1290 
 392   0.0000      -0.020316        -0.5528 
 393   0.0000      -0.013160        -0.3581 
 394   0.0000      -0.005757        -0.1567 
 395   0.0000      -0.001861        -0.0506 
 396   0.0000       0.008785         0.2391 
 397   0.0000       0.016741         0.4555 
 398   0.0000       0.026107         0.7104 
 399   0.0000       0.037370         1.0169 
 400   0.0000       0.042691         1.1617 
 401   0.0000       0.047561         1.2942 
 402   0.0000       0.053075         1.4442 
 403   0.0000       0.061341         1.6692 
 404   0.0000       0.064307         1.7499 
 405   0.0000       0.099933         2.7193 
 406   0.0000       0.101824         2.7708 
 407   0.0000       0.105017         2.8577 
 408   0.0000       0.113709         3.0942 
 409   0.0000       0.119833         3.2608 
 410   0.0000       0.137949         3.7538 
 411   0.0000       0.143550         3.9062 
 412   0.0000       0.160370         4.3639 
 413   0.0000       0.170025         4.6266 
 414   0.0000       0.175441         4.7740 
 415   0.0000       0.185081         5.0363 
 416   0.0000       0.186975         5.0878 
 417   0.0000       0.210139         5.7182 
 418   0.0000       0.212684         5.7874 
 419   0.0000       0.226504         6.1635 
 420   0.0000       0.235170         6.3993 
 421   0.0000       0.250587         6.8188 
 422   0.0000       0.254261         6.9188 
 423   0.0000       0.261771         7.1231 
 424   0.0000       0.264625         7.2008 
 425   0.0000       0.267500         7.2791 
 426   0.0000       0.282025         7.6743 
 427   0.0000       0.284230         7.7343 
 428   0.0000       0.298610         8.1256 
 429   0.0000       0.301991         8.2176 
 430   0.0000       0.320189         8.7128 
 431   0.0000       0.337409         9.1814 
 432   0.0000       0.343780         9.3547 
 433   0.0000       0.349756         9.5174 
 434   0.0000       0.357337         9.7236 
 435   0.0000       0.366399         9.9702 
 436   0.0000       0.370172        10.0729 
 437   0.0000       0.379294        10.3211 
 438   0.0000       0.382280        10.4024 
 439   0.0000       0.391150        10.6437 
 440   0.0000       0.394041        10.7224 
 441   0.0000       0.396976        10.8023 
 442   0.0000       0.404065        10.9952 
 443   0.0000       0.409283        11.1371 
 444   0.0000       0.417435        11.3590 
 445   0.0000       0.424166        11.5422 
 446   0.0000       0.432171        11.7600 
 447   0.0000       0.438150        11.9227 
 448   0.0000       0.452638        12.3169 
 449   0.0000       0.458748        12.4832 
 450   0.0000       0.468121        12.7382 
 451   0.0000       0.476393        12.9633 
 452   0.0000       0.480762        13.0822 
 453   0.0000       0.487114        13.2551 
 454   0.0000       0.499454        13.5908 
 455   0.0000       0.504872        13.7383 
 456   0.0000       0.514319        13.9953 
 457   0.0000       0.517803        14.0901 
 458   0.0000       0.525463        14.2986 
 459   0.0000       0.535692        14.5769 
 460   0.0000       0.540231        14.7004 
 461   0.0000       0.550666        14.9844 
 462   0.0000       0.552956        15.0467 
 463   0.0000       0.560708        15.2576 
 464   0.0000       0.567015        15.4293 
 465   0.0000       0.572586        15.5809 
 466   0.0000       0.576901        15.6983 
 467   0.0000       0.588863        16.0238 
 468   0.0000       0.593017        16.1368 
 469   0.0000       0.598169        16.2770 
 470   0.0000       0.600860        16.3502 
 471   0.0000       0.608014        16.5449 
 472   0.0000       0.613346        16.6900 
 473   0.0000       0.615771        16.7560 
 474   0.0000       0.621279        16.9059 
 475   0.0000       0.628343        17.0981 
 476   0.0000       0.637648        17.3513 
 477   0.0000       0.639004        17.3882 
 478   0.0000       0.643998        17.5241 
 479   0.0000       0.646886        17.6027 
 480   0.0000       0.661535        18.0013 
 481   0.0000       0.667403        18.1610 
 482   0.0000       0.669557        18.2196 
 483   0.0000       0.677227        18.4283 
 484   0.0000       0.691136        18.8068 
 485   0.0000       0.692557        18.8454 
 486   0.0000       0.698693        19.0124 
 487   0.0000       0.705603        19.2004 
 488   0.0000       0.711798        19.3690 
 489   0.0000       0.716921        19.5084 
 490   0.0000       0.717671        19.5288 
 491   0.0000       0.725850        19.7514 
 492   0.0000       0.728268        19.8172 
 493   0.0000       0.738462        20.0946 
 494   0.0000       0.741027        20.1644 
 495   0.0000       0.752118        20.4662 
 496   0.0000       0.759012        20.6538 
 497   0.0000       0.759171        20.6581 
 498   0.0000       0.763096        20.7649 
 499   0.0000       0.774389        21.0722 
 500   0.0000       0.782585        21.2952 
 501   0.0000       0.784477        21.3467 
 502   0.0000       0.794266        21.6131 
 503   0.0000       0.803112        21.8538 
 504   0.0000       0.808902        22.0113 
 505   0.0000       0.812608        22.1122 
 506   0.0000       0.827260        22.5109 
 507   0.0000       0.837258        22.7829 
 508   0.0000       0.841809        22.9068 
 509   0.0000       0.848387        23.0858 
 510   0.0000       0.849828        23.1250 
 511   0.0000       0.860294        23.4098 
 512   0.0000       0.866218        23.5710 
 513   0.0000       0.869681        23.6652 
 514   0.0000       0.891500        24.2589 
 515   0.0000       0.896144        24.3853 
 516   0.0000       0.898127        24.4393 
 517   0.0000       0.912254        24.8237 
 518   0.0000       0.915655        24.9162 
 519   0.0000       0.919148        25.0113 
 520   0.0000       0.925786        25.1919 
 521   0.0000       0.930226        25.3127 
 522   0.0000       0.938172        25.5290 
 523   0.0000       0.939266        25.5587 
 524   0.0000       0.944104        25.6904 
 525   0.0000       0.958404        26.0795 
 526   0.0000       0.960659        26.1408 
 527   0.0000       0.970383        26.4055 
 528   0.0000       0.975523        26.5453 
 529   0.0000       0.980414        26.6784 
 530   0.0000       0.992816        27.0159 
 531   0.0000       0.998943        27.1826 
 532   0.0000       1.000256        27.2184 
 533   0.0000       1.007772        27.4229 
 534   0.0000       1.008838        27.4519 
 535   0.0000       1.013959        27.5912 
 536   0.0000       1.026995        27.9460 
 537   0.0000       1.032235        28.0885 
 538   0.0000       1.035211        28.1695 
 539   0.0000       1.040232        28.3061 
 540   0.0000       1.047482        28.5034 
 541   0.0000       1.060684        28.8627 
 542   0.0000       1.068386        29.0723 
 543   0.0000       1.074719        29.2446 
 544   0.0000       1.081953        29.4414 
 545   0.0000       1.087567        29.5942 
 546   0.0000       1.094755        29.7898 
 547   0.0000       1.105851        30.0917 
 548   0.0000       1.109589        30.1934 
 549   0.0000       1.112605        30.2755 
 550   0.0000       1.120698        30.4957 
 551   0.0000       1.133670        30.8487 
 552   0.0000       1.140980        31.0477 
 553   0.0000       1.149040        31.2670 
 554   0.0000       1.155446        31.4413 
 555   0.0000       1.165455        31.7137 
 556   0.0000       1.167651        31.7734 
 557   0.0000       1.184944        32.2440 
 558   0.0000       1.191116        32.4119 
 559   0.0000       1.192747        32.4563 
 560   0.0000       1.211291        32.9609 
 561   0.0000       1.217607        33.1328 
 562   0.0000       1.228166        33.4201 
 563   0.0000       1.238747        33.7080 
 564   0.0000       1.241056        33.7708 
 565   0.0000       1.247251        33.9394 
 566   0.0000       1.258767        34.2528 
 567   0.0000       1.270131        34.5620 
 568   0.0000       1.273702        34.6592 
 569   0.0000       1.282346        34.8944 
 570   0.0000       1.301041        35.4031 
 571   0.0000       1.306337        35.5472 
 572   0.0000       1.308877        35.6164 
 573   0.0000       1.322931        35.9988 
 574   0.0000       1.327245        36.1162 
 575   0.0000       1.341751        36.5109 
 576   0.0000       1.346727        36.6463 
 577   0.0000       1.354220        36.8502 
 578   0.0000       1.374013        37.3888 
 579   0.0000       1.380244        37.5584 
 580   0.0000       1.384223        37.6666 
 581   0.0000       1.396401        37.9980 
 582   0.0000       1.400504        38.1097 
 583   0.0000       1.409987        38.3677 
 584   0.0000       1.413229        38.4559 
 585   0.0000       1.420985        38.6670 
 586   0.0000       1.424632        38.7662 
 587   0.0000       1.430902        38.9368 
 588   0.0000       1.436846        39.0986 
 589   0.0000       1.441947        39.2374 
 590   0.0000       1.446263        39.3548 
 591   0.0000       1.467164        39.9236 
 592   0.0000       1.472604        40.0716 
 593   0.0000       1.475499        40.1504 
 594   0.0000       1.481194        40.3053 
 595   0.0000       1.485681        40.4274 
 596   0.0000       1.499645        40.8074 
 597   0.0000       1.500937        40.8426 
 598   0.0000       1.503285        40.9065 
 599   0.0000       1.527452        41.5641 
 600   0.0000       1.529592        41.6223 
 601   0.0000       1.534963        41.7685 
 602   0.0000       1.543208        41.9928 
 603   0.0000       1.556188        42.3460 
 604   0.0000       1.565029        42.5866 
 605   0.0000       1.568173        42.6722 
 606   0.0000       1.570042        42.7230 
 607   0.0000       1.582464        43.0610 
 608   0.0000       1.590006        43.2663 
 609   0.0000       1.603454        43.6322 
 610   0.0000       1.613381        43.9023 
 611   0.0000       1.615969        43.9728 
 612   0.0000       1.628083        44.3024 
 613   0.0000       1.630911        44.3793 
 614   0.0000       1.640826        44.6491 
 615   0.0000       1.650381        44.9091 
 616   0.0000       1.660132        45.1745 
 617   0.0000       1.664775        45.3008 
 618   0.0000       1.668221        45.3946 
 619   0.0000       1.677075        45.6355 
 620   0.0000       1.680818        45.7374 
 621   0.0000       1.693236        46.0753 
 622   0.0000       1.700503        46.2730 
 623   0.0000       1.713509        46.6270 
 624   0.0000       1.716652        46.7125 
 625   0.0000       1.728132        47.0249 
 626   0.0000       1.730959        47.1018 
 627   0.0000       1.733893        47.1816 
 628   0.0000       1.750944        47.6456 
 629   0.0000       1.755070        47.7579 
 630   0.0000       1.759272        47.8722 
 631   0.0000       1.766726        48.0751 
 632   0.0000       1.783608        48.5344 
 633   0.0000       1.792709        48.7821 
 634   0.0000       1.796957        48.8977 
 635   0.0000       1.801952        49.0336 
 636   0.0000       1.819780        49.5187 
 637   0.0000       1.821472        49.5648 
 638   0.0000       1.847015        50.2598 
 639   0.0000       1.857608        50.5481 
 640   0.0000       1.868182        50.8358 
 641   0.0000       1.869309        50.8665 
 642   0.0000       1.875658        51.0392 
 643   0.0000       1.882526        51.2261 
 644   0.0000       1.884473        51.2791 
 645   0.0000       1.887051        51.3493 
 646   0.0000       1.895193        51.5708 
 647   0.0000       1.902779        51.7772 
 648   0.0000       1.915298        52.1179 
 649   0.0000       1.922568        52.3157 
 650   0.0000       1.925919        52.4069 
 651   0.0000       1.935283        52.6617 
 652   0.0000       1.955399        53.2091 
 653   0.0000       1.960971        53.3607 
 654   0.0000       1.970246        53.6131 
 655   0.0000       1.976934        53.7951 
 656   0.0000       1.993697        54.2513 
 657   0.0000       2.002452        54.4895 
 658   0.0000       2.012008        54.7495 
 659   0.0000       2.022513        55.0354 
 660   0.0000       2.032329        55.3025 
 661   0.0000       2.046086        55.6768 
 662   0.0000       2.055503        55.9331 
 663   0.0000       2.076582        56.5067 
 664   0.0000       2.080314        56.6082 
 665   0.0000       2.093352        56.9630 
 666   0.0000       2.102839        57.2212 
 667   0.0000       2.114552        57.5399 
 668   0.0000       2.128422        57.9173 
 669   0.0000       2.159493        58.7628 
 670   0.0000       2.178246        59.2731 
 671   0.0000       2.200657        59.8829 
 672   0.0000       2.213039        60.2199 
 673   0.0000       2.225471        60.5582 
 674   0.0000       2.240215        60.9593 
 675   0.0000       2.256902        61.4134 
 676   0.0000       2.261085        61.5273 
 677   0.0000       2.267586        61.7041 
 678   0.0000       2.294629        62.4400 
 679   0.0000       2.304753        62.7155 
 680   0.0000       2.323615        63.2288 
 681   0.0000       2.345235        63.8171 
 682   0.0000       2.347218        63.8711 
 683   0.0000       2.377869        64.7051 
 684   0.0000       2.379254        64.7428 
 685   0.0000       2.385545        64.9140 
 686   0.0000       2.388668        64.9990 
 687   0.0000       2.405322        65.4521 
 688   0.0000       2.417029        65.7707 
 689   0.0000       2.420445        65.8637 
 690   0.0000       2.434741        66.2527 
 691   0.0000       2.450563        66.6832 
 692   0.0000       2.461267        66.9745 
 693   0.0000       2.468076        67.1598 
 694   0.0000       2.476190        67.3806 
 695   0.0000       2.491370        67.7936 
 696   0.0000       2.494863        67.8887 
 697   0.0000       2.509317        68.2820 
 698   0.0000       2.516619        68.4807 
 699   0.0000       2.520456        68.5851 
 700   0.0000       2.556718        69.5718 
 701   0.0000       2.559615        69.6507 
 702   0.0000       2.574123        70.0454 
 703   0.0000       2.579386        70.1886 
 704   0.0000       2.587525        70.4101 
 705   0.0000       2.595268        70.6208 
 706   0.0000       2.597646        70.6855 
 707   0.0000       2.615101        71.1605 
 708   0.0000       2.643802        71.9415 
 709   0.0000       2.648849        72.0789 
 710   0.0000       2.660533        72.3968 
 711   0.0000       2.665943        72.5440 
 712   0.0000       2.688544        73.1590 
 713   0.0000       2.714782        73.8730 
 714   0.0000       2.722511        74.0833 
 715   0.0000       2.735999        74.4503 
 716   0.0000       2.745523        74.7095 
 717   0.0000       2.755012        74.9677 
 718   0.0000       2.802134        76.2499 
 719   0.0000       2.805350        76.3375 
 720   0.0000       2.807151        76.3865 
 721   0.0000       2.818466        76.6944 
 722   0.0000       2.830946        77.0339 
 723   0.0000       2.848548        77.5129 
 724   0.0000       2.866727        78.0076 
 725   0.0000       2.881004        78.3961 
 726   0.0000       2.884661        78.4956 
 727   0.0000       2.886224        78.5382 
 728   0.0000       2.888792        78.6080 
 729   0.0000       2.907969        79.1298 
 730   0.0000       2.924189        79.5712 
 731   0.0000       2.934969        79.8646 
 732   0.0000       2.946038        80.1658 
 733   0.0000       2.965089        80.6842 
 734   0.0000       2.972668        80.8904 
 735   0.0000       3.006015        81.7978 
 736   0.0000       3.019126        82.1546 
 737   0.0000       3.032447        82.5171 
 738   0.0000       3.037252        82.6478 
 739   0.0000       3.051539        83.0366 
 740   0.0000       3.058548        83.2273 
 741   0.0000       3.064685        83.3943 
 742   0.0000       3.084595        83.9361 
 743   0.0000       3.116746        84.8110 
 744   0.0000       3.118919        84.8701 
 745   0.0000       3.126083        85.0650 
 746   0.0000       3.139961        85.4427 
 747   0.0000       3.147627        85.6513 
 748   0.0000       3.156726        85.8989 
 749   0.0000       3.178452        86.4901 
 750   0.0000       3.191277        86.8391 
 751   0.0000       3.263079        88.7929 
 752   0.0000       3.271167        89.0130 
 753   0.0000       3.274854        89.1133 
 754   0.0000       3.287659        89.4617 
 755   0.0000       3.299497        89.7839 
 756   0.0000       3.316628        90.2500 
 757   0.0000       3.337456        90.8168 
 758   0.0000       3.353217        91.2457 
 759   0.0000       3.369692        91.6940 
 760   0.0000       3.389659        92.2373 
 761   0.0000       3.419086        93.0381 
 762   0.0000       3.443488        93.7021 
 763   0.0000       3.459708        94.1434 
 764   0.0000       3.498516        95.1995 
 765   0.0000       3.527082        95.9768 
 766   0.0000       3.536868        96.2431 
 767   0.0000       3.563958        96.9802 
 768   0.0000       3.590390        97.6995 
 769   0.0000       3.599911        97.9586 
 770   0.0000       3.604928        98.0951 
 771   0.0000       3.649031        99.2952 
 772   0.0000       3.663898        99.6997 
 773   0.0000       3.707287       100.8804 
 774   0.0000       3.738694       101.7350 
 775   0.0000       3.739559       101.7586 
 776   0.0000       3.766900       102.5026 
 777   0.0000       3.789823       103.1263 
 778   0.0000       3.803602       103.5013 
 779   0.0000       3.849983       104.7634 
 780   0.0000       3.923180       106.7551 
 781   0.0000       3.955720       107.6406 
 782   0.0000       3.991801       108.6224 
 783   0.0000       4.025059       109.5274 
 784   0.0000       4.042810       110.0104 
 785   0.0000       4.063008       110.5601 
 786   0.0000       4.119843       112.1066 
 787   0.0000       4.174590       113.5964 
 788   0.0000       4.199110       114.2636 
 789   0.0000       4.241152       115.4076 
 790   0.0000       4.289468       116.7224 
 791   0.0000       4.331967       117.8788 
 792   0.0000       4.359994       118.6415 
 793   0.0000       4.401872       119.7810 
 794   0.0000       4.478453       121.8649 
 795   0.0000       4.486992       122.0973 
 796   0.0000       4.515498       122.8729 
 797   0.0000       4.569987       124.3557 
 798   0.0000       4.588105       124.8487 
 799   0.0000       4.618946       125.6879 
 800   0.0000       4.727358       128.6380 
 801   0.0000       4.761806       129.5753 
 802   0.0000       4.816288       131.0579 
 803   0.0000       4.831459       131.4707 
 804   0.0000       4.937659       134.3605 
 805   0.0000       4.952189       134.7559 
 806   0.0000       5.111615       139.0941 
 807   0.0000       5.168430       140.6401 
 808   0.0000       5.244384       142.7070 
 809   0.0000       6.691976       182.0979 
 810   0.0000       6.740481       183.4178 
 811   0.0000       7.965212       216.7444 
 812   0.0000       8.649269       235.3586 
 813   0.0000       9.164110       249.3681 
 814   0.0000       9.719252       264.4743 
 815   0.0000       9.784740       266.2563 
 816   0.0000      10.106874       275.0220 
 817   0.0000      10.177117       276.9334 
 818   0.0000      10.381640       282.4988 
 819   0.0000      10.500328       285.7285 
 820   0.0000      10.709892       291.4310 
 821   0.0000      11.093139       301.8596 
 822   0.0000      11.133211       302.9501 
 823   0.0000      11.241163       305.8876 
 824   0.0000      11.536547       313.9254 
 825   0.0000      11.866012       322.8906 
 826   0.0000      12.047543       327.8303 
 827   0.0000      13.039453       354.8216 

                    ********************************
                    * MULLIKEN POPULATION ANALYSIS *
                    ********************************

-----------------------
MULLIKEN ATOMIC CHARGES
-----------------------
   0 C :   -0.290764
   1 C :    0.036503
   2 O :   -0.361763
   3 C :    0.472889
   4 O :   -0.539304
   5 C :   -0.207964
   6 C :    0.156530
   7 C :   -0.253424
   8 N :   -0.130074
   9 C :    0.294569
  10 S :   -0.615813
  11 N :   -0.222411
  12 C :    0.041899
  13 C :   -0.003840
  14 C :   -0.140608
  15 C :   -0.172141
  16 C :   -0.237820
  17 C :    0.214634
  18 O :   -0.457697
  19 C :   -0.277934
  20 H :    0.105102
  21 H :    0.117875
  22 H :    0.108506
  23 H :    0.115106
  24 H :    0.124864
  25 H :    0.129338
  26 H :    0.128987
  27 H :    0.118620
  28 H :    0.251347
  29 H :    0.242790
  30 H :    0.177169
  31 H :    0.180119
  32 H :    0.200081
  33 H :    0.180103
  34 H :    0.330470
  35 H :    0.184055
Sum of atomic charges:    0.0000000

--------------------------------
MULLIKEN REDUCED ORBITAL CHARGES
--------------------------------
  0 C s       :     3.266817  s :     3.266817
      pz      :     0.960566  p :     2.948011
      px      :     1.006338
      py      :     0.981107
      dz2     :     0.020377  d :     0.071361
      dxz     :     0.010092
      dyz     :     0.011499
      dx2y2   :     0.018540
      dxy     :     0.010852
      f0      :     0.000596  f :     0.004575
      f+1     :     0.000567
      f-1     :     0.000915
      f+2     :     0.000490
      f-2     :     0.000629
      f+3     :     0.001062
      f-3     :     0.000316
  1 C s       :     3.183054  s :     3.183054
      pz      :     0.948783  p :     2.621366
      px      :     1.027335
      py      :     0.645248
      dz2     :     0.030027  d :     0.147996
      dxz     :     0.022904
      dyz     :     0.029593
      dx2y2   :     0.041463
      dxy     :     0.024009
      f0      :     0.000930  f :     0.011081
      f+1     :     0.000910
      f-1     :     0.002075
      f+2     :     0.002281
      f-2     :     0.001491
      f+3     :     0.001854
      f-3     :     0.001542
  2 O s       :     3.720451  s :     3.720451
      pz      :     1.612327  p :     4.605641
      px      :     1.787133
      py      :     1.206181
      dz2     :     0.003906  d :     0.033502
      dxz     :     0.003087
      dyz     :     0.016807
      dx2y2   :     0.005098
      dxy     :     0.004603
      f0      :     0.000189  f :     0.002169
      f+1     :     0.000021
      f-1     :     0.000358
      f+2     :     0.000609
      f-2     :     0.000180
[...]
 15 C s       :     2.708207  s :     2.708207
      pz      :     0.923852  p :     2.808837
      px      :     0.923225
      py      :     0.961760
      dz2     :     0.070535  d :     0.403498
      dxz     :     0.064430
      dyz     :     0.095211
      dx2y2   :     0.100647
      dxy     :     0.072674
      f0      :     0.005752  f :     0.040629
      f+1     :     0.004745
      f-1     :     0.004533
      f+2     :     0.005320
      f-2     :     0.007376
      f+3     :     0.005605
      f-3     :     0.007297
 16 C s       :     2.713978  s :     2.713978
      pz      :     0.949976  p :     2.854550
      px      :     0.931406
      py      :     0.973168
      dz2     :     0.058386  d :     0.381417
      dxz     :     0.063460
      dyz     :     0.088465
      dx2y2   :     0.093872
      dxy     :     0.077234
      f0      :     0.003254  f :     0.037375
      f+1     :     0.002892
      f-1     :     0.007935
      f+2     :     0.004711
      f-2     :     0.005617
      f+3     :     0.006693
      f-3     :     0.006274
 17 C s       :     2.716907  s :     2.716907
      pz      :     0.956025  p :     2.706081
      px      :     0.869698
      py      :     0.880358
      dz2     :     0.111797  d :     0.653027
      dxz     :     0.103150
      dyz     :     0.120344
      dx2y2   :     0.166217
      dxy     :     0.151519
      f0      :     0.010461  f :     0.084971
      f+1     :     0.007710
      f-1     :     0.010064
      f+2     :     0.006541
      f-2     :     0.015773
      f+3     :     0.018386
      f-3     :     0.016036
 18 O s       :     3.204569  s :     3.204569
      pz      :     1.506086  p :     4.423702
      px      :     1.481482
      py      :     1.436134
      dz2     :     0.012826  d :     0.063567
      dxz     :     0.007681
      dyz     :     0.014322
      dx2y2   :     0.011333
      dxy     :     0.017405
      f0      :     0.000621  f :     0.003974
      f+1     :     0.000513
      f-1     :     0.000586
      f+2     :     0.000225
      f-2     :     0.000664
      f+3     :     0.000606
      f-3     :     0.000761
 19 C s       :     2.696264  s :     2.696264
      pz      :     0.930218  p :     2.835015
      px      :     0.939197
      py      :     0.965600
      dz2     :     0.066871  d :     0.409263
      dxz     :     0.075930
      dyz     :     0.087881
      dx2y2   :     0.106124
      dxy     :     0.072458
      f0      :     0.006628  f :     0.042596
      f+1     :     0.005629
      f-1     :     0.003931
      f+2     :     0.005230
      f-2     :     0.007440
      f+3     :     0.005759
      f-3     :     0.007979
 20 H s       :     0.839958  s :     0.839958
      pz      :     0.069284  p :     0.154039
      px      :     0.042837
      py      :     0.041918
      dz2     :     0.009316  d :     0.028126
      dxz     :     0.007918
      dyz     :     0.008591
      dx2y2   :     0.001655
      dxy     :     0.000647
 21 H s       :     0.835521  s :     0.835521
      pz      :     0.042627  p :     0.152859
      px      :     0.041217
      py      :     0.069016
      dz2     :     0.002758  d :     0.027630
      dxz     :     0.000853
      dyz     :     0.008583
      dx2y2   :     0.007977
      dxy     :     0.007460
 22 H s       :     0.842760  s :     0.842760
      pz      :     0.039399  p :     0.151453
      px      :     0.074167
      py      :     0.037886
      dz2     :     0.002439  d :     0.027618
      dxz     :     0.009368
      dyz     :     0.000039
      dx2y2   :     0.007062
      dxy     :     0.008710
 23 H s       :     0.852845  s :     0.852845
      pz      :     0.039054  p :     0.145343
      px      :     0.078709
      py      :     0.027579
      dz2     :     0.002810  d :     0.026834
      dxz     :     0.009316
      dyz     :     0.000724
      dx2y2   :     0.007558
      dxy     :     0.006426
 24 H s       :     0.851349  s :     0.851349
      pz      :     0.070204  p :     0.148961
      px      :     0.050588
      py      :     0.028168
      dz2     :     0.009220  d :     0.027101
      dxz     :     0.007912
      dyz     :     0.005209
      dx2y2   :     0.003216
      dxy     :     0.001544
 25 H s       :     0.830693  s :     0.830693
      pz      :     0.038816  p :     0.151981
      px      :     0.071374
      py      :     0.041791
      dz2     :     0.003790  d :     0.027639
      dxz     :     0.007504
      dyz     :     0.001058
      dx2y2   :     0.007291
      dxy     :     0.007996
 26 H s       :     0.823589  s :     0.823589
      pz      :     0.047571  p :     0.154147
      px      :     0.053852
      py      :     0.052724
      dz2     :     0.006282  d :     0.028155
      dxz     :     0.004816
      dyz     :     0.005143
      dx2y2   :     0.007374
      dxy     :     0.004539
 27 H s       :     0.833348  s :     0.833348
      pz      :     0.036148  p :     0.150865
      px      :     0.042840
      py      :     0.071878
      dz2     :     0.003106  d :     0.027793
      dxz     :     0.000746
      dyz     :     0.008095
      dx2y2   :     0.007389
      dxy     :     0.008458
 28 H s       :     0.713304  s :     0.713304
      pz      :     0.072118  p :     0.249439
      px      :     0.072849
      py      :     0.104471
      dz2     :     0.010725  d :     0.060620
      dxz     :     0.006572
      dyz     :     0.016069
      dx2y2   :     0.012292
      dxy     :     0.014962
 29 H s       :     0.727670  s :     0.727670
      pz      :     0.114795  p :     0.251838
      px      :     0.090735
      py      :     0.046308
      dz2     :     0.021709  d :     0.060772
      dxz     :     0.016846
      dyz     :     0.011353
      dx2y2   :     0.005643
      dxy     :     0.005221
 30 H s       :     0.821157  s :     0.821157
      pz      :     0.035757  p :     0.151299
      px      :     0.053535
      py      :     0.062006
      dz2     :     0.002818  d :     0.029268
      dxz     :     0.004581
      dyz     :     0.005132
      dx2y2   :     0.008209
      dxy     :     0.008528
 31 H s       :     0.835399  s :     0.835399
      pz      :     0.044896  p :     0.156120
      px      :     0.051580
      py      :     0.059643
      dz2     :     0.004105  d :     0.027811
      dxz     :     0.003711
      dyz     :     0.006031
      dx2y2   :     0.007325
      dxy     :     0.006640
 32 H s       :     0.831672  s :     0.831672
      pz      :     0.046369  p :     0.153258
      px      :     0.036335
      py      :     0.070554
      dz2     :     0.004356  d :     0.026790
      dxz     :     0.001860
      dyz     :     0.008005
      dx2y2   :     0.006214
      dxy     :     0.006356
 33 H s       :     0.841233  s :     0.841233
      pz      :     0.067109  p :     0.159185
      px      :     0.058187
      py      :     0.033889
      dz2     :     0.008070  d :     0.027594
      dxz     :     0.007662
      dyz     :     0.005454
      dx2y2   :     0.003155
      dxy     :     0.003252
 34 H s       :     0.673772  s :     0.673772
      pz      :     0.161651  p :     0.347540
      px      :     0.082001
      py      :     0.103889
      dz2     :     0.032028  d :     0.098676
      dxz     :     0.022926
      dyz     :     0.026021
      dx2y2   :     0.009368
      dxy     :     0.008332
 35 H s       :     0.832356  s :     0.832356
      pz      :     0.049428  p :     0.154933
      px      :     0.035649
      py      :     0.069856
      dz2     :     0.005090  d :     0.027910
      dxz     :     0.002237
      dyz     :     0.007900
      dx2y2   :     0.006097
      dxy     :     0.006586


                      *****************************
                      * MAYER POPULATION ANALYSIS *
                      *****************************

  NA   - Mulliken gross atomic population
  ZA   - Total nuclear charge
  QA   - Mulliken gross atomic charge
  VA   - Mayer's total valence
  BVA  - Mayer's bonded valence
  FA   - Mayer's free valence

  ATOM       NA         ZA         QA         VA         BVA        FA
  0 C      6.2908     6.0000    -0.2908     3.8888     3.8888    -0.0000
  1 C      5.9635     6.0000     0.0365     3.7886     3.7886     0.0000
  2 O      8.3618     8.0000    -0.3618     2.0696     2.0696     0.0000
  3 C      5.5271     6.0000     0.4729     4.2920     4.2920     0.0000
  4 O      8.5393     8.0000    -0.5393     1.9887     1.9887     0.0000
  5 C      6.2080     6.0000    -0.2080     3.6142     3.6142    -0.0000
  6 C      5.8435     6.0000     0.1565     3.8735     3.8735    -0.0000
  7 C      6.2534     6.0000    -0.2534     3.8701     3.8701    -0.0000
  8 N      7.1301     7.0000    -0.1301     3.3728     3.3728    -0.0000
  9 C      5.7054     6.0000     0.2946     4.0732     4.0732     0.0000
 10 S     16.6158    16.0000    -0.6158     1.5215     1.5215     0.0000
 11 N      7.2224     7.0000    -0.2224     3.3137     3.3137     0.0000
 12 C      5.9581     6.0000     0.0419     3.9103     3.9103    -0.0000
 13 C      6.0038     6.0000    -0.0038     3.6312     3.6312     0.0000
 14 C      6.1406     6.0000    -0.1406     3.7992     3.7992     0.0000
 15 C      6.1721     6.0000    -0.1721     3.7803     3.7803     0.0000
 16 C      6.2378     6.0000    -0.2378     3.7694     3.7694    -0.0000
 17 C      5.7854     6.0000     0.2146     3.9254     3.9254     0.0000
 18 O      8.4577     8.0000    -0.4577     2.0215     2.0215    -0.0000
 19 C      6.2779     6.0000    -0.2779     3.7842     3.7842     0.0000
 20 H      0.8949     1.0000     0.1051     0.9765     0.9765    -0.0000
 21 H      0.8821     1.0000     0.1179     0.9828     0.9828    -0.0000
 22 H      0.8915     1.0000     0.1085     0.9855     0.9855    -0.0000
 23 H      0.8849     1.0000     0.1151     0.9766     0.9766     0.0000
 24 H      0.8751     1.0000     0.1249     0.9845     0.9845     0.0000
 25 H      0.8707     1.0000     0.1293     0.9820     0.9820    -0.0000
 26 H      0.8710     1.0000     0.1290     0.9787     0.9787    -0.0000
 27 H      0.8814     1.0000     0.1186     0.9907     0.9907     0.0000
 28 H      0.7487     1.0000     0.2513     0.9700     0.9700    -0.0000
 29 H      0.7572     1.0000     0.2428     0.9796     0.9796     0.0000
 30 H      0.8228     1.0000     0.1772     0.9848     0.9848    -0.0000
 31 H      0.8199     1.0000     0.1801     0.9766     0.9766     0.0000
 32 H      0.7999     1.0000     0.2001     0.9640     0.9640     0.0000
 33 H      0.8199     1.0000     0.1801     0.9780     0.9780    -0.0000
 34 H      0.6695     1.0000     0.3305     0.9336     0.9336    -0.0000
 35 H      0.8159     1.0000     0.1841     0.9787     0.9787     0.0000

  Mayer bond orders larger than 0.100000
B(  0-C ,  1-C ) :   0.9668 B(  0-C , 20-H ) :   0.9728 B(  0-C , 21-H ) :   0.9751 
B(  0-C , 22-H ) :   0.9800 B(  1-C ,  2-O ) :   0.8418 B(  1-C , 23-H ) :   0.9755 
B(  1-C , 24-H ) :   0.9759 B(  2-O ,  3-C ) :   1.2283 B(  3-C ,  4-O ) :   1.9271 
B(  3-C ,  5-C ) :   1.0845 B(  5-C ,  6-C ) :   1.6255 B(  5-C , 12-C ) :   0.9614 
B(  6-C ,  7-C ) :   0.9612 B(  6-C ,  8-N ) :   1.1718 B(  7-C , 25-H ) :   0.9647 
B(  7-C , 26-H ) :   0.9551 B(  7-C , 27-H ) :   0.9858 B(  8-N ,  9-C ) :   1.2329 
B(  8-N , 28-H ) :   0.9253 B(  9-C , 10-S ) :   1.3871 B(  9-C , 11-N ) :   1.3723 
B( 11-N , 12-C ) :   0.9694 B( 11-N , 29-H ) :   0.9296 B( 12-C , 13-C ) :   0.9401 
B( 12-C , 30-H ) :   0.9991 B( 13-C , 14-C ) :   1.3407 B( 13-C , 19-C ) :   1.3131 
B( 14-C , 15-C ) :   1.3997 B( 14-C , 31-H ) :   0.9607 B( 15-C , 16-C ) :   1.3495 
B( 15-C , 32-H ) :   0.9569 B( 16-C , 17-C ) :   1.3697 B( 16-C , 33-H ) :   0.9596 
B( 17-C , 18-O ) :   1.0910 B( 17-C , 19-C ) :   1.3787 B( 18-O , 34-H ) :   0.9100 
B( 19-C , 35-H ) :   0.9591 

-------
TIMINGS
-------

Total SCF time: 0 days 1 hours 54 min 11 sec 

Total time                  ....    6851.448 sec
Sum of individual times     ....    6847.995 sec  ( 99.9%)

Fock matrix formation       ....    6835.753 sec  ( 99.8%)
Diagonalization             ....       1.433 sec  (  0.0%)
Density matrix formation    ....       0.186 sec  (  0.0%)
Population analysis         ....       0.225 sec  (  0.0%)
Initial guess               ....       6.045 sec  (  0.1%)
Orbital Transformation      ....       0.000 sec  (  0.0%)
Orbital Orthonormalization  ....       0.000 sec  (  0.0%)
DIIS solution               ....       1.197 sec  (  0.0%)
SOSCF solution              ....       1.741 sec  (  0.0%)

Maximum memory used throughout the entire SCF-calculation: 723.0 MB

------------------------------------------------------------------------------
                                ORCA  MP2 
------------------------------------------------------------------------------

Freezing NCore=48 chemical core electrons

-------------
RI-MP2 ENERGY
-------------
Dimension of the basis                    ...  828
Memory devoted to MP2                     ...  256 MB   
Data format for buffers                   ... DOUBLE
Compression type for matrix containers    ... UNCOMPRESSED
Overall scaling of the MP2 energy         ...   1.000e+00
Calculating two index integrals           ... done (    0.045 sec)
Cholesky decomposition of V**-1           ... done (    0.567 sec)

-----------------
RI-TRANSFORMATION (AUX index driven)
-----------------

Dimension of the orbital-basis         ... 828
Dimension of the aux-basis             ... 2141
Transformation of internal/external MOs...   24-  76 to   77- 827
Number Format for Storage              ... Double (8 Byte)
Integral mode                          ... Direct

First Phase: integral generation and transformation of MO indices
  Aux angular momentum 0               ... done (    5.121 sec)
  Aux angular momentum 1               ... done (    8.515 sec)
  Aux angular momentum 2               ... done (   11.267 sec)
  Aux angular momentum 3               ... done (    9.198 sec)
  Aux angular momentum 4               ... done (    3.151 sec)
Closing buffer VIA ( 0.63 GB; CompressionRatio= 1.00)
  Phase 1 completed in    37.419 sec
Second Phase: sorting and transformation of aux index

IA-Transformation
Memory available                       ... 158 MB 
Max. # MO pairs treated in a batch     ... 11    
# of internal orbitals                 ... 53
# batches for internal orbitals        ... 5
Closing buffer IAV ( 0.63 GB; CompressionRatio= 1.00)
(ia|v) transformation done in    19.384 sec

  Phase 2 completed in    19.398 sec
RI-Integral transformation completed in    56.823 sec
Opening buffers                              ... done

Starting loop over batches of integrals:

Operator 0  - window                       ... ( 24- 76)x( 77-827)
Operator 0  - Memory available             ...   256 MB
Operator 0  - Memory needed per MO         ...  12.3 MB
Operator 0  - Number of orbitals per batch ... 13
Operator 0  - Number of batches            ... 5

OPERATOR  0   PASS   0:  MOs    24 ...   36
  Reading integrals       ... ok
  Internal MO  26
  Internal MO  29
  Internal MO  32
  Internal MO  35
OPERATOR  0   PASS   1:  MOs    37 ...   49
  Reading integrals       ... ok
  Internal MO  38
  Internal MO  41
  Internal MO  44
  Internal MO  47
OPERATOR  0   PASS   2:  MOs    50 ...   62
  Reading integrals       ... ok
  Internal MO  50
  Internal MO  53
  Internal MO  56
  Internal MO  59
  Internal MO  62
OPERATOR  0   PASS   3:  MOs    63 ...   75
  Reading integrals       ... ok
  Internal MO  65
  Internal MO  68
  Internal MO  71
  Internal MO  74
OPERATOR  0   PASS   4:  MOs    76 ...   76
  Reading integrals       ... ok
Time spent in pair loops =    91.977 sec
Deleting buffer (Ka|jb)[aa] ...done

-----------------------------------------------
 RI-MP2 CORRELATION ENERGY:     -3.524579066 Eh
-----------------------------------------------


-------
TIMINGS
-------

Total time                :  149.519 sec
Integral trafo            :   56.844 sec ( 38.0%)
I/O of integrals          :    0.860 sec (  0.6%)
K(i,j) Operators          :   64.629 sec ( 43.2%)
T(i,j) pair energies      :    8.919 sec (  6.0%)
V-calculation             :    0.045 sec (  0.0%)
V**(-1/2)                 :    0.567 sec (  0.4%)
Gamma(ia|P)               :    0.000 sec (  0.0%)
Gamma-Trafo               :    0.000 sec (  0.0%)
D(virtual)                :    0.000 sec (  0.0%)
D(internal)               :    0.000 sec (  0.0%)
W(virtual)                :    0.000 sec (  0.0%)
W(internal)               :    0.000 sec (  0.0%)
L(virtual)                :    0.000 sec (  0.0%)
L(internal)               :    0.000 sec (  0.0%)
G(D)                      :    0.000 sec (  0.0%)
G(Z)                      :    0.000 sec (  0.0%)
Z-Vector Solution         :    0.000 sec (  0.0%)
3-Index Derivative        :    0.000 sec (  0.0%)
2-Index Derivative        :    0.000 sec (  0.0%)
Separable Gradient        :    0.000 sec (  0.0%)


---------------------------------------
MP2 TOTAL ENERGY:    -1274.418114620 Eh
---------------------------------------

Maximum memory used throughout the entire MP2-calculation: 303.4 MB

-------------------------   --------------------
FINAL SINGLE POINT ENERGY     -1274.418114620174
-------------------------   --------------------


                            ***************************************
                            *     ORCA property calculations      *
                            ***************************************


  WARNING: The energy has been calculated at the MP2 level but the densities
           used in the property calculations are still SCF densities
           MP2 response densities have not been calculated 
           use %mp2 Density relaxed end
           or  %mp2 Density unrelaxed end

                                    ---------------------
                                    Active property flags
                                    ---------------------
   (+) Dipole Moment


------------------------------------------------------------------------------
                       ORCA ELECTRIC PROPERTIES CALCULATION
------------------------------------------------------------------------------

Dipole Moment Calculation                       ... on
Quadrupole Moment Calculation                   ... off
Polarizability Calculation                      ... off
GBWName                                         ... qm_input.solv.gbw
Electron density file                           ... qm_input.solv.scfp
The origin for moment calculation is the CENTER OF MASS  = (-9.996738, -8.242178 -22.672315)

-------------
DIPOLE MOMENT
-------------
                                X             Y             Z
Electronic contribution:      4.73087     -14.58453      -4.33887
Nuclear contribution   :     -5.36615      16.50212       5.53155
                        -----------------------------------------
Total Dipole Moment    :     -0.63528       1.91759       1.19269
                        -----------------------------------------
Magnitude (a.u.)       :      2.34589
Magnitude (Debye)      :      5.96279



--------------------
Rotational spectrum 
--------------------
 
Rotational constants in cm-1:     0.010851     0.008729     0.005843 
Rotational constants in MHz :   325.311249   261.680433   175.173211 

 Dipole components along the rotational axes: 
x,y,z [a.u.] :    -1.872131     1.395808     0.223760 
x,y,z [Debye]:    -4.758578     3.547863     0.568753 

 

Timings for individual modules:

Sum of individual times         ...     7220.738 sec (= 120.346 min)
GTO integral calculation        ...      219.105 sec (=   3.652 min)   3.0 %
SCF iterations                  ...     6851.550 sec (= 114.193 min)  94.9 %
MP2 module                      ...      150.082 sec (=   2.501 min)   2.1 %
                             ****ORCA TERMINATED NORMALLY****
TOTAL RUN TIME: 0 days 2 hours 0 minutes 21 seconds 707 msec
