
                                        *****************
                                        * O   R   C   A *
                                        *****************

                                            #,                                       
                                            ###                                      
                                            ####                                     
                                            #####                                    
                                            ######                                   
                                           ########,                                 
                                     ,,################,,,,,                         
                               ,,#################################,,                 
                          ,,##########################################,,             
                       ,#########################################, ''#####,          
                    ,#############################################,,   '####,        
                  ,##################################################,,,,####,       
                ,###########''''           ''''###############################       
              ,#####''   ,,,,##########,,,,          '''####'''          '####       
            ,##' ,,,,###########################,,,                        '##       
           ' ,,###''''                  '''############,,,                           
         ,,##''                                '''############,,,,        ,,,,,,###''
      ,#''                                            '''#######################'''  
     '                                                          ''''####''''         
             ,#######,   #######,   ,#######,      ##                                
            ,#'     '#,  ##    ##  ,#'     '#,    #''#        ######   ,####,        
            ##       ##  ##   ,#'  ##            #'  '#       #        #'  '#        
            ##       ##  #######   ##           ,######,      #####,   #    #        
            '#,     ,#'  ##    ##  '#,     ,#' ,#      #,         ##   #,  ,#        
             '#######'   ##     ##  '#######'  #'      '#     #####' # '####'        



                  #######################################################
                  #                        -***-                        #
                  #          Department of theory and spectroscopy      #
                  #    Directorship and core code : Frank Neese         #
                  #        Max Planck Institute fuer Kohlenforschung    #
                  #                Kaiser Wilhelm Platz 1               #
                  #                 D-45470 Muelheim/Ruhr               #
                  #                      Germany                        #
                  #                                                     #
                  #                  All rights reserved                #
                  #                        -***-                        #
                  #######################################################


                         Program Version 5.0.0 -  RELEASE  -
                                (SVN: $Rev: 19529$)
                ($Date: 2021-06-28 11:36:33 +0200 (Mo, 28 Jun 2021) $)


 With contributions from (in alphabetic order):
   Daniel Aravena         : Magnetic Suceptibility
   Michael Atanasov       : Ab Initio Ligand Field Theory (pilot matlab implementation)
   Alexander A. Auer      : GIAO ZORA, VPT2 properties, NMR spectrum
   Ute Becker             : Parallelization
   Giovanni Bistoni       : ED, misc. LED, open-shell LED, HFLD
   Martin Brehm           : Molecular dynamics
   Dmytro Bykov           : SCF Hessian
   Vijay G. Chilkuri      : MRCI spin determinant printing, contributions to CSF-ICE
   Dipayan Datta          : RHF DLPNO-CCSD density
   Achintya Kumar Dutta   : EOM-CC, STEOM-CC
   Dmitry Ganyushin       : Spin-Orbit,Spin-Spin,Magnetic field MRCI
   Miquel Garcia          : C-PCM Hessian, Gaussian charge scheme
   Yang Guo               : DLPNO-NEVPT2, F12-NEVPT2, CIM, IAO-localization
   Andreas Hansen         : Spin unrestricted coupled pair/coupled cluster methods
   Benjamin Helmich-Paris : MC-RPA, TRAH-SCF, COSX integrals
   Lee Huntington         : MR-EOM, pCC
   Robert Izsak           : Overlap fitted RIJCOSX, COSX-SCS-MP3, EOM
   Marcus Kettner         : VPT2
   Christian Kollmar      : KDIIS, OOCD, Brueckner-CCSD(T), CCSD density, CASPT2, CASPT2-K
   Simone Kossmann        : Meta GGA functionals, TD-DFT gradient, OOMP2, MP2 Hessian
   Martin Krupicka        : Initial AUTO-CI
   Lucas Lang             : DCDCAS
   Marvin Lechner         : AUTO-CI (C++ implementation), FIC-MRCC
   Dagmar Lenk            : GEPOL surface, SMD
   Dimitrios Liakos       : Extrapolation schemes; Compound Job, initial MDCI parallelization
   Dimitrios Manganas     : Further ROCIS development; embedding schemes
   Dimitrios Pantazis     : SARC Basis sets
   Anastasios Papadopoulos: AUTO-CI, single reference methods and gradients
   Taras Petrenko         : DFT Hessian,TD-DFT gradient, ASA, ECA, R-Raman, ABS, FL, XAS/XES, NRVS
   Peter Pinski           : DLPNO-MP2, DLPNO-MP2 Gradient
   Christoph Reimann      : Effective Core Potentials
   Marius Retegan         : Local ZFS, SOC
   Christoph Riplinger    : Optimizer, TS searches, QM/MM, DLPNO-CCSD(T), (RO)-DLPNO pert. Triples
   Tobias Risthaus        : Range-separated hybrids, TD-DFT gradient, RPA, STAB
   Michael Roemelt        : Original ROCIS implementation
   Masaaki Saitow         : Open-shell DLPNO-CCSD energy and density
   Barbara Sandhoefer     : DKH picture change effects
   Avijit Sen             : IP-ROCIS
   Kantharuban Sivalingam : CASSCF convergence, NEVPT2, FIC-MRCI
   Bernardo de Souza      : ESD, SOC TD-DFT
   Georgi Stoychev        : AutoAux, RI-MP2 NMR
   Willem Van den Heuvel  : Paramagnetic NMR
   Boris Wezisla          : Elementary symmetry handling
   Frank Wennmohs         : Technical directorship


 We gratefully acknowledge several colleagues who have allowed us to
 interface, adapt or use parts of their codes:
   Stefan Grimme, W. Hujo, H. Kruse, P. Pracht,  : VdW corrections, initial TS optimization,
                  C. Bannwarth, S. Ehlert          DFT functionals, gCP, sTDA/sTD-DF
   Ed Valeev, F. Pavosevic, A. Kumar             : LibInt (2-el integral package), F12 methods
   Garnet Chan, S. Sharma, J. Yang, R. Olivares  : DMRG
   Ulf Ekstrom                                   : XCFun DFT Library
   Mihaly Kallay                                 : mrcc  (arbitrary order and MRCC methods)
   Jiri Pittner, Ondrej Demel                    : Mk-CCSD
   Frank Weinhold                                : gennbo (NPA and NBO analysis)
   Christopher J. Cramer and Donald G. Truhlar   : smd solvation model
   Lars Goerigk                                  : TD-DFT with DH, B97 family of functionals
   V. Asgeirsson, H. Jonsson                     : NEB implementation
   FAccTs GmbH                                   : IRC, NEB, NEB-TS, DLPNO-Multilevel, CI-OPT
                                                   MM, QMMM, 2- and 3-layer-ONIOM, Crystal-QMMM,
                                                   LR-CPCM, SF, NACMEs, symmetry and pop. for TD-DFT,
                                                   nearIR, NL-DFT gradient (VV10), updates on ESD,
                                                   ML-optimized integration grids
   S Lehtola, MJT Oliveira, MAL Marques          : LibXC Library
   Liviu Ungur et al                             : ANISO software


 Your calculation uses the libint2 library for the computation of 2-el integrals
 For citations please refer to: http://libint.valeyev.net

 Your ORCA version has been built with support for libXC version: 5.1.0
 For citations please refer to: https://tddft.org/programs/libxc/

 This ORCA versions uses:
   CBLAS   interface :  Fast vector & matrix operations
   LAPACKE interface :  Fast linear algebra routines
   SCALAPACK package :  Parallel linear algebra routines
   Shared memory     :  Shared parallel matrices
   BLAS/LAPACK       :  OpenBLAS 0.3.15  USE64BITINT DYNAMIC_ARCH NO_AFFINITY SkylakeX SINGLE_THREADED
        Core in use  :  SkylakeX
   Copyright (c) 2011-2014, The OpenBLAS Project


================================================================================

----- Orbital basis set information -----
Your calculation utilizes the basis: cc-pVTZ 
       H, B-Ne : Obtained from the ccRepo (grant-hill.group.shef.ac.uk/ccrepo) Feb. 2017
                 T. H. Dunning, Jr., J. Chem. Phys. 90, 1007 (1989)
            He : Obtained from the ccRepo (grant-hill.group.shef.ac.uk/ccrepo) Feb. 2017
                 D. E. Woon, T. H. Dunning, Jr., J. Chem. Phys. 100, 2975 (1994)
  Li-Be, Na-Mg : Obtained from the ccRepo (grant-hill.group.shef.ac.uk/ccrepo) Feb. 2017
                 B. P. Prascher, D. E. Woon, K. A. Peterson, T. H. Dunning, Jr., A. K. Wilson, Theor. Chem. Acc. 128, 69 (2011)
         Al-Ar : Obtained from the ccRepo (grant-hill.group.shef.ac.uk/ccrepo) Feb. 2017
                 D. E. Woon, T. H. Dunning, Jr., J. Chem. Phys. 98, 1358 (1993)
            Ca : Obtained from the Peterson Research Group Website (tyr0.chem.wsu.edu/~kipeters) Feb. 2017
                 J. Koput, K. A. Peterson, J. Phys. Chem. 106, 9595 (2002)
         Sc-Zn : Obtained from the ccRepo (grant-hill.group.shef.ac.uk/ccrepo) Feb. 2017
                 N. B. Balabanov, K. A. Peterson, J. Chem. Phys. 123, 064107 (2005)
                 N. B. Balabanov, K. A. Peterson, J. Chem. Phys. 125, 074110 (2006)
         Ga-Kr : Obtained from the ccRepo (grant-hill.group.shef.ac.uk/ccrepo) Feb. 2017
                 A. K. Wilson, D. E. Woon, K. A. Peterson, T. H. Dunning, Jr., J. Chem. Phys. 110, 7667 (1999)
             Y : Obtained from the ccRepo (grant-hill.group.shef.ac.uk/ccrepo) Feb. 2017
                 K. A. Peterson, D. Figgen, M. Dolg, H. Stoll, J. Chem. Phys. 126, 124101 (2007)
        Ag, Au : Obtained from the Peterson Research Group Website (tyr0.chem.wsu.edu/~kipeters) Feb. 2017
                 K. A. Peterson, C. Puzzarini, Theor. Chem. Acc. 114, 283 (2005)

----- AuxC basis set information -----
Your calculation utilizes the auxiliary basis: cc-pVTZ/C 
  Obtained from the EMSL Basis Set Exchange (bse.pnl.gov) Feb. 2017
  H-He, B-F, Al-Ar, Ga-Kr : F. Weigend, A. Kohn, C. Hattig, J. Chem. Phys. 116, 3175 (2002)
             Li-Be, Na-Mg : C. Haettig, Phys. Chem. Chem. Phys. 7, 59 (2005)
                       Ne : C. Haettig, Phys. Chem. Chem. Phys. 7, 59 (2005)
                            F. Weigend, A. Kohn, C. Hattig, J. Chem. Phys. 116, 3175 (2002)
                    Sc-Zn : J. G. Hill, J. A. Platts, J. Chem. Phys. 128, 044104 (2008)

================================================================================
                                        WARNINGS
                       Please study these warnings very carefully!
================================================================================


WARNING: No MP2 level density has been requested!
         To caclulate MP2 level properties use
         %mp2 Density relaxed end
         or
         %mp2 Density unrelaxed end

WARNING: Post HF methods need fully converged wavefunctions
  ===> : Setting SCFConvForced true
         You can overwrite this default with %scf ConvForced false 


INFO   : the flag for use of the SHARK integral package has been found!

================================================================================
                                       INPUT FILE
================================================================================
NAME = qm_input.vacu
|  1> ! RI-MP2 cc-pVTZ cc-pVTZ/c TightSCF KeepDens NoKeepInts
|  2> 
|  3> *xyz  0  1
|  4>     C    -6.1190477    0.3105761  -11.3065524
|  5>     C    -5.5669524   -0.6717097  -10.2811537
|  6>     O    -5.6252623   -2.0099326  -10.8965608
|  7>     C    -5.5611705   -3.1062095  -10.0907694
|  8>     O    -5.6837787   -2.9875384   -8.9013707
|  9>     C    -5.0473079   -4.3710776  -10.7067757
| 10>     C    -4.8829405   -5.5389631  -10.0332675
| 11>     C    -5.1402180   -5.7892370   -8.5259208
| 12>     N    -4.2915369   -6.6022305  -10.6810703
| 13>     C    -3.5663856   -6.5561578  -11.8480958
| 14>     S    -2.5836666   -7.8416663  -12.3743648
| 15>     N    -3.6299479   -5.3340183  -12.5095713
| 16>     C    -4.4859600   -4.2051437  -12.1159525
| 17>     C    -5.4679435   -3.9521897  -13.2396945
| 18>     C    -5.5515906   -2.7297069  -13.9175994
| 19>     C    -6.4900257   -2.5074553  -14.9128548
| 20>     C    -7.3178058   -3.6188123  -15.2760786
| 21>     C    -7.3071339   -4.8452495  -14.5566938
| 22>     O    -8.3452877   -5.7910659  -14.7412727
| 23>     C    -6.3705365   -4.9687708  -13.5169964
| 24>     H    -5.8061087    0.1091560  -12.3383878
| 25>     H    -5.7221573    1.3254712  -11.1814307
| 26>     H    -7.2127534    0.2278927  -11.2937768
| 27>     H    -4.5061614   -0.5166848  -10.0490317
| 28>     H    -6.1657048   -0.6734285   -9.3620878
| 29>     H    -6.1494804   -5.5509381   -8.1684344
| 30>     H    -4.5224634   -5.1455318   -7.8877884
| 31>     H    -4.8668142   -6.8242946   -8.2869738
| 32>     H    -4.1884128   -7.4553809  -10.1449116
| 33>     H    -3.0967025   -5.2476037  -13.3663957
| 34>     H    -3.7590367   -3.3846765  -12.0758152
| 35>     H    -4.9634510   -1.9162272  -13.5031837
| 36>     H    -6.4610444   -1.5459643  -15.4169293
| 37>     H    -7.9740383   -3.5303078  -16.1368467
| 38>     H    -8.4948773   -6.2787590  -13.9127151
| 39>     H    -6.3437379   -5.9130414  -12.9812438
| 40> *
| 41> 
| 42>                          ****END OF INPUT****
================================================================================

                       ****************************
                       * Single Point Calculation *
                       ****************************

---------------------------------
CARTESIAN COORDINATES (ANGSTROEM)
---------------------------------
  C     -6.119048    0.310576  -11.306552
  C     -5.566952   -0.671710  -10.281154
  O     -5.625262   -2.009933  -10.896561
  C     -5.561170   -3.106209  -10.090769
  O     -5.683779   -2.987538   -8.901371
  C     -5.047308   -4.371078  -10.706776
  C     -4.882941   -5.538963  -10.033267
  C     -5.140218   -5.789237   -8.525921
  N     -4.291537   -6.602230  -10.681070
  C     -3.566386   -6.556158  -11.848096
  S     -2.583667   -7.841666  -12.374365
  N     -3.629948   -5.334018  -12.509571
  C     -4.485960   -4.205144  -12.115952
  C     -5.467943   -3.952190  -13.239695
  C     -5.551591   -2.729707  -13.917599
  C     -6.490026   -2.507455  -14.912855
  C     -7.317806   -3.618812  -15.276079
  C     -7.307134   -4.845250  -14.556694
  O     -8.345288   -5.791066  -14.741273
  C     -6.370537   -4.968771  -13.516996
  H     -5.806109    0.109156  -12.338388
  H     -5.722157    1.325471  -11.181431
  H     -7.212753    0.227893  -11.293777
  H     -4.506161   -0.516685  -10.049032
  H     -6.165705   -0.673428   -9.362088
  H     -6.149480   -5.550938   -8.168434
  H     -4.522463   -5.145532   -7.887788
  H     -4.866814   -6.824295   -8.286974
  H     -4.188413   -7.455381  -10.144912
  H     -3.096702   -5.247604  -13.366396
  H     -3.759037   -3.384676  -12.075815
  H     -4.963451   -1.916227  -13.503184
  H     -6.461044   -1.545964  -15.416929
  H     -7.974038   -3.530308  -16.136847
  H     -8.494877   -6.278759  -13.912715
  H     -6.343738   -5.913041  -12.981244

----------------------------
CARTESIAN COORDINATES (A.U.)
----------------------------
  NO LB      ZA    FRAG     MASS         X           Y           Z
   0 C     6.0000    0    12.011  -11.563324    0.586904  -21.366288
   1 C     6.0000    0    12.011  -10.520015   -1.269347  -19.428565
   2 O     8.0000    0    15.999  -10.630205   -3.798222  -20.591516
   3 C     6.0000    0    12.011  -10.509089   -5.869885  -19.068791
   4 O     8.0000    0    15.999  -10.740785   -5.645629  -16.821153
   5 C     6.0000    0    12.011   -9.538030   -8.260140  -20.232874
   6 C     6.0000    0    12.011   -9.227420  -10.467123  -18.960128
   7 C     6.0000    0    12.011   -9.713604  -10.940072  -16.111655
   8 N     7.0000    0    14.007   -8.109829  -12.476408  -20.184298
   9 C     6.0000    0    12.011   -6.739492  -12.389343  -22.389656
  10 S    16.0000    0    32.060   -4.882422  -14.818602  -23.384161
  11 N     7.0000    0    14.007   -6.859607  -10.079834  -23.639664
  12 C     6.0000    0    12.011   -8.477236   -7.946570  -22.895832
  13 C     6.0000    0    12.011  -10.332916   -7.468556  -25.019397
  14 C     6.0000    0    12.011  -10.490986   -5.158398  -26.300451
  15 C     6.0000    0    12.011  -12.264371   -4.738404  -28.181211
  16 C     6.0000    0    12.011  -13.828649   -6.838564  -28.867605
  17 C     6.0000    0    12.011  -13.808482   -9.156195  -27.508165
  18 O     8.0000    0    15.999  -15.770308  -10.943529  -27.856968
  19 C     6.0000    0    12.011  -12.038569   -9.389616  -25.543421
  20 H     1.0000    0     1.008  -10.971955    0.206275  -23.316174
  21 H     1.0000    0     1.008  -10.813310    2.504778  -21.129842
  22 H     1.0000    0     1.008  -13.630129    0.430655  -21.342145
  23 H     1.0000    0     1.008   -8.515411   -0.976393  -18.989918
  24 H     1.0000    0     1.008  -11.651493   -1.272595  -17.691782
  25 H     1.0000    0     1.008  -11.620834  -10.489753  -15.436104
  26 H     1.0000    0     1.008   -8.546217   -9.723646  -14.905760
  27 H     1.0000    0     1.008   -9.196946  -12.896048  -15.660111
  28 H     1.0000    0     1.008   -7.914953  -14.088628  -19.171105
  29 H     1.0000    0     1.008   -5.851920   -9.916534  -25.258827
  30 H     1.0000    0     1.008   -7.103550   -6.396112  -22.819984
  31 H     1.0000    0     1.008   -9.379563   -3.621145  -25.517319
  32 H     1.0000    0     1.008  -12.209604   -2.921449  -29.133774
  33 H     1.0000    0     1.008  -15.068749   -6.671315  -30.494221
  34 H     1.0000    0     1.008  -16.052992  -11.865135  -26.291221
  35 H     1.0000    0     1.008  -11.987927  -11.174029  -24.530996

--------------------------------
INTERNAL COORDINATES (ANGSTROEM)
--------------------------------
 C      0   0   0     0.000000000000     0.00000000     0.00000000
 C      1   0   0     1.523527849147     0.00000000     0.00000000
 O      2   1   0     1.474098529018   106.85785854     0.00000000
 C      3   2   1     1.362068493364   118.80520167   198.68273301
 O      4   3   2     1.201575993537   120.08647589    12.43447333
 C      4   3   2     1.497801670354   116.90603405   205.25361617
 C      6   4   3     1.358155542919   124.31522614   177.93190554
 C      7   6   4     1.549491145837   126.95651170   357.93392994
 N      7   6   4     1.378384652295   118.82827301   185.64446007
 C      9   7   6     1.374742019154   126.82900983    15.72392549
 S     10   9   7     1.701536892605   122.81202253   165.44021760
 N     10   9   7     1.391120038150   114.14168414   349.84683481
 C     12  10   9     1.470391219229   125.01497476   354.00224212
 C     13  12  10     1.513629215810   107.89339659   243.05374866
 C     14  13  12     1.400362841223   122.95904083   239.25068221
 C     15  14  13     1.385853355101   121.87724819   182.23475324
 C     16  15  14     1.432573140992   116.67636116   356.14016959
 C     17  16  15     1.421891903579   122.44724936     7.49328203
 O     18  17  16     1.416474971642   120.29887880   165.02210059
 C     14  13  12     1.387446431496   116.61432057    63.85182437
 H      1   2   3     1.096897974790   114.28925316   319.91759492
 H      1   2   3     1.096899946863   112.87054998   206.49471600
 H      1   2   3     1.096901052422   107.75122952    77.87644803
 H      2   1   3     1.096900582635   113.68794719   115.07435219
 H      2   1   3     1.096899958666   111.53860912   240.87689945
 H      8   7   6     1.096901765875   115.76782058    56.43144934
 H      8   7   6     1.096900218916   112.18753205   300.45298811
 H      8   7   6     1.096899968995   108.84090700   182.66085365
 H      9   7   6     1.012899963771   116.40024968   180.08385702
 H     12  10   9     1.012899892462   116.94444984   178.89813459
 H     13  12  10     1.096902417360   101.43448416   128.13375748
 H     15  14  13     1.086000821274   115.90202183   351.83769736
 H     16  15  14     1.085999981759   117.20982569   182.45507198
 H     17  16  15     1.085999936719   119.13707437   188.01092766
 H     19  18  17     0.973000156595   109.65743756   211.63245499
 H     20  14  13     1.085999990512   121.49512589   357.49547167

---------------------------
INTERNAL COORDINATES (A.U.)
---------------------------
 C      0   0   0     0.000000000000     0.00000000     0.00000000
 C      1   0   0     2.879050392289     0.00000000     0.00000000
 O      2   1   0     2.785642514260   106.85785854     0.00000000
 C      3   2   1     2.573936428101   118.80520167   198.68273301
 O      4   3   2     2.270649556879   120.08647589    12.43447333
 C      4   3   2     2.830434959899   116.90603405   205.25361617
 C      6   4   3     2.566542023383   124.31522614   177.93190554
 C      7   6   4     2.928113912568   126.95651170   357.93392994
 N      7   6   4     2.604769500039   118.82827301   185.64446007
 C      9   7   6     2.597885920995   126.82900983    15.72392549
 S     10   9   7     3.215438733786   122.81202253   165.44021760
 N     10   9   7     2.628835891513   114.14168414   349.84683481
 C     12  10   9     2.778636714065   125.01497476   354.00224212
 C     13  12  10     2.860344686182   107.89339659   243.05374866
 C     14  13  12     2.646302258031   122.95904083   239.25068221
 C     15  14  13     2.618883302916   121.87724819   182.23475324
 C     16  15  14     2.707170903286   116.67636116   356.14016959
 C     17  16  15     2.686986289805   122.44724936     7.49328203
 O     18  17  16     2.676749771958   120.29887880   165.02210059
 C     14  13  12     2.621893781013   116.61432057    63.85182437
 H      1   2   3     2.072836769206   114.28925316   319.91759492
 H      1   2   3     2.072840495883   112.87054998   206.49471600
 H      1   2   3     2.072842585087   107.75122952    77.87644803
 H      2   1   3     2.072841697319   113.68794719   115.07435219
 H      2   1   3     2.072840518189   111.53860912   240.87689945
 H      8   7   6     2.072843933319   115.76782058    56.43144934
 H      8   7   6     2.072841009989   112.18753205   300.45298811
 H      8   7   6     2.072840537707   108.84090700   182.66085365
 H      9   7   6     1.914103532585   116.40024968   180.08385702
 H     12  10   9     1.914103397832   116.94444984   178.89813459
 H     13  12  10     2.072845164446   101.43448416   128.13375748
 H     15  14  13     2.052244133420   115.90202183   351.83769736
 H     16  15  14     2.052242546968   117.20982569   182.45507198
 H     17  16  15     2.052242461855   119.13707437   188.01092766
 H     19  18  17     1.838703824227   109.65743756   211.63245499
 H     20  14  13     2.052242563510   121.49512589   357.49547167

---------------------
BASIS SET INFORMATION
---------------------
There are 5 groups of distinct atoms

 Group   1 Type C   : 18s5p2d1f contracted to 4s3p2d1f pattern {8811/311/11/1}
 Group   2 Type O   : 18s5p2d1f contracted to 4s3p2d1f pattern {8811/311/11/1}
 Group   3 Type N   : 18s5p2d1f contracted to 4s3p2d1f pattern {8811/311/11/1}
 Group   4 Type S   : 41s16p2d1f contracted to 5s4p2d1f pattern {13131311/7711/11/1}
 Group   5 Type H   : 5s2p1d contracted to 3s2p1d pattern {311/11/1}

Atom   0C    basis set group =>   1
Atom   1C    basis set group =>   1
Atom   2O    basis set group =>   2
Atom   3C    basis set group =>   1
Atom   4O    basis set group =>   2
Atom   5C    basis set group =>   1
Atom   6C    basis set group =>   1
Atom   7C    basis set group =>   1
Atom   8N    basis set group =>   3
Atom   9C    basis set group =>   1
Atom  10S    basis set group =>   4
Atom  11N    basis set group =>   3
Atom  12C    basis set group =>   1
Atom  13C    basis set group =>   1
Atom  14C    basis set group =>   1
Atom  15C    basis set group =>   1
Atom  16C    basis set group =>   1
Atom  17C    basis set group =>   1
Atom  18O    basis set group =>   2
Atom  19C    basis set group =>   1
Atom  20H    basis set group =>   5
Atom  21H    basis set group =>   5
Atom  22H    basis set group =>   5
Atom  23H    basis set group =>   5
Atom  24H    basis set group =>   5
Atom  25H    basis set group =>   5
Atom  26H    basis set group =>   5
Atom  27H    basis set group =>   5
Atom  28H    basis set group =>   5
Atom  29H    basis set group =>   5
Atom  30H    basis set group =>   5
Atom  31H    basis set group =>   5
Atom  32H    basis set group =>   5
Atom  33H    basis set group =>   5
Atom  34H    basis set group =>   5
Atom  35H    basis set group =>   5
---------------------------------
AUXILIARY/C BASIS SET INFORMATION
---------------------------------
There are 5 groups of distinct atoms

 Group   1 Type C   : 8s6p5d3f1g contracted to 8s6p5d3f1g pattern {11111111/111111/11111/111/1}
 Group   2 Type O   : 8s6p5d3f1g contracted to 8s6p5d3f1g pattern {11111111/111111/11111/111/1}
 Group   3 Type N   : 8s6p5d3f1g contracted to 8s6p5d3f1g pattern {11111111/111111/11111/111/1}
 Group   4 Type S   : 10s8p7d5f2g contracted to 10s8p7d5f2g pattern {1111111111/11111111/1111111/11111/11}
 Group   5 Type H   : 4s3p2d1f contracted to 4s3p2d1f pattern {1111/111/11/1}

Atom   0C    basis set group =>   1
Atom   1C    basis set group =>   1
Atom   2O    basis set group =>   2
Atom   3C    basis set group =>   1
Atom   4O    basis set group =>   2
Atom   5C    basis set group =>   1
Atom   6C    basis set group =>   1
Atom   7C    basis set group =>   1
Atom   8N    basis set group =>   3
Atom   9C    basis set group =>   1
Atom  10S    basis set group =>   4
Atom  11N    basis set group =>   3
Atom  12C    basis set group =>   1
Atom  13C    basis set group =>   1
Atom  14C    basis set group =>   1
Atom  15C    basis set group =>   1
Atom  16C    basis set group =>   1
Atom  17C    basis set group =>   1
Atom  18O    basis set group =>   2
Atom  19C    basis set group =>   1
Atom  20H    basis set group =>   5
Atom  21H    basis set group =>   5
Atom  22H    basis set group =>   5
Atom  23H    basis set group =>   5
Atom  24H    basis set group =>   5
Atom  25H    basis set group =>   5
Atom  26H    basis set group =>   5
Atom  27H    basis set group =>   5
Atom  28H    basis set group =>   5
Atom  29H    basis set group =>   5
Atom  30H    basis set group =>   5
Atom  31H    basis set group =>   5
Atom  32H    basis set group =>   5
Atom  33H    basis set group =>   5
Atom  34H    basis set group =>   5
Atom  35H    basis set group =>   5
------------------------------------------------------------------------------
                           ORCA GTO INTEGRAL CALCULATION
------------------------------------------------------------------------------
------------------------------------------------------------------------------
                   ___                                                        
                  /   \      - P O W E R E D   B Y -                         
                 /     \                                                     
                 |  |  |   _    _      __       _____    __    __             
                 |  |  |  | |  | |    /  \     |  _  \  |  |  /  |          
                  \  \/   | |  | |   /    \    | | | |  |  | /  /          
                 / \  \   | |__| |  /  /\  \   | |_| |  |  |/  /          
                |  |  |   |  __  | /  /__\  \  |    /   |      \           
                |  |  |   | |  | | |   __   |  |    \   |  |\   \          
                \     /   | |  | | |  |  |  |  | |\  \  |  | \   \       
                 \___/    |_|  |_| |__|  |__|  |_| \__\ |__|  \__/        
                                                                              
                      - O R C A' S   B I G   F R I E N D -                    
                                      &                                       
                       - I N T E G R A L  F E E D E R -                       
                                                                              
 v1 FN, 2020, v2 2021                                                         
------------------------------------------------------------------------------


Reading SHARK input file qm_input.vacu.SHARKINP.tmp ... ok
----------------------
SHARK INTEGRAL PACKAGE
----------------------

Number of atoms                             ...     36
Number of basis functions                   ...    828
Number of shells                            ...    298
Maximum angular momentum                    ...      3
Integral batch strategy                     ... SHARK/LIBINT Hybrid
RI-J (if used) integral strategy            ... SPLIT-RIJ (Revised 2003 algorithm where possible)
Printlevel                                  ...      1
Contraction scheme used                     ... SEGMENTED contraction
Coulomb Range Separation                    ... NOT USED
Exchange Range Separation                   ... NOT USED
Finite Nucleus Model                        ... NOT USED
Auxiliary Coulomb fitting basis             ... NOT available
Auxiliary J/K fitting basis                 ... NOT available
Auxiliary Correlation fitting basis         ... AVAILABLE
   # of basis functions in Aux-C            ...   2141
   # of shells in Aux-C                     ...    629
   Maximum angular momentum in Aux-C        ...      4
Auxiliary 'external' fitting basis          ... NOT available
Integral threshold                          ...     2.500000e-11
Primitive cut-off                           ...     2.500000e-12
Primitive pair pre-selection threshold      ...     2.500000e-12

Calculating pre-screening integrals         ... done (  0.7 sec) Dimension = 298
Organizing shell pair data                  ... done (  0.4 sec)
Shell pair information
Total number of shell pairs                 ...     44551
Shell pairs after pre-screening             ...     32629
Total number of primitive shell pairs       ...    234348
Primitive shell pairs kept                  ...     93677
          la=0 lb=0:   6536 shell pairs
          la=1 lb=0:   9077 shell pairs
          la=1 lb=1:   3203 shell pairs
          la=2 lb=0:   5202 shell pairs
          la=2 lb=1:   3570 shell pairs
          la=2 lb=2:   1011 shell pairs
          la=3 lb=0:   1881 shell pairs
          la=3 lb=1:   1286 shell pairs
          la=3 lb=2:    719 shell pairs
          la=3 lb=3:    144 shell pairs

Calculating one electron integrals          ... done (  0.4 sec)
Calculating RI/C V-Matrix + Cholesky decomp.... done (  0.4 sec)
Calculating Nuclear repulsion               ... done (  0.0 sec) ENN=   1685.157298291842 Eh

SHARK setup successfully completed in   1.9 seconds

Maximum memory used throughout the entire GTOINT-calculation: 480.6 MB
-------------------------------------------------------------------------------
                                 ORCA SCF
-------------------------------------------------------------------------------

------------
SCF SETTINGS
------------
Hamiltonian:
 Ab initio Hamiltonian  Method          .... Hartree-Fock(GTOs)


General Settings:
 Integral files         IntName         .... qm_input.vacu
 Hartree-Fock type      HFTyp           .... RHF
 Total Charge           Charge          ....    0
 Multiplicity           Mult            ....    1
 Number of Electrons    NEL             ....  154
 Basis Dimension        Dim             ....  828
 Nuclear Repulsion      ENuc            ....   1685.1572982918 Eh

Convergence Acceleration:
 DIIS                   CNVDIIS         .... on
   Start iteration      DIISMaxIt       ....    12
   Startup error        DIISStart       ....  0.200000
   # of expansion vecs  DIISMaxEq       ....     5
   Bias factor          DIISBfac        ....   1.050
   Max. coefficient     DIISMaxC        ....  10.000
 Trust-Rad. Augm. Hess. CNVTRAH         .... auto
   Auto Start mean grad. ratio tolernc. ....  1.125000
   Auto Start start iteration           ....    20
   Auto Start num. interpolation iter.  ....    10
   Max. Number of Micro iterations      ....    16
   Max. Number of Macro iterations      .... Maxiter - #DIIS iter
   Number of Davidson start vectors     ....     2
   Converg. threshold I  (grad. norm)   ....   1.000e-05
   Converg. threshold II (energy diff.) ....   1.000e-08
   Grad. Scal. Fac. for Micro threshold ....   0.100
   Minimum threshold for Micro iter.    ....   0.010
   NR start threshold (gradient norm)   ....   0.001
   Initial trust radius                 ....   0.400
   Minimum AH scaling param. (alpha)    ....   1.000
   Maximum AH scaling param. (alpha)    .... 1000.000
   Orbital update algorithm             .... Taylor
   White noise on init. David. guess    .... on
   Maximum white noise                  ....   0.010
   Quad. conv. algorithm                .... NR
 SOSCF                  CNVSOSCF        .... on
   Start iteration      SOSCFMaxIt      ....   150
   Startup grad/error   SOSCFStart      ....  0.003300
 Level Shifting         CNVShift        .... on
   Level shift para.    LevelShift      ....    0.2500
   Turn off err/grad.   ShiftErr        ....    0.0010
 Zerner damping         CNVZerner       .... off
 Static damping         CNVDamp         .... on
   Fraction old density DampFac         ....    0.7000
   Max. Damping (<1)    DampMax         ....    0.9800
   Min. Damping (>=0)   DampMin         ....    0.0000
   Turn off err/grad.   DampErr         ....    0.1000
 Fernandez-Rico         CNVRico         .... off

SCF Procedure:
 Maximum # iterations   MaxIter         ....   125
 SCF integral mode      SCFMode         .... Direct
   Integral package                     .... SHARK and LIBINT hybrid scheme
 Reset frequency        DirectResetFreq ....    20
 Integral Threshold     Thresh          ....  2.500e-11 Eh
 Primitive CutOff       TCut            ....  2.500e-12 Eh

Convergence Tolerance:
 Convergence Check Mode ConvCheckMode   .... Total+1el-Energy
 Convergence forced     ConvForced      .... 1
 Energy Change          TolE            ....  1.000e-08 Eh
 1-El. energy change                    ....  1.000e-05 Eh
 Orbital Gradient       TolG            ....  1.000e-05
 Orbital Rotation angle TolX            ....  1.000e-05
 DIIS Error             TolErr          ....  5.000e-07


Diagonalization of the overlap matrix:
Smallest eigenvalue                        ... 4.237e-05
Time for diagonalization                   ...    0.160 sec
Threshold for overlap eigenvalues          ... 1.000e-08
Number of eigenvalues below threshold      ... 0
Time for construction of square roots      ...    0.081 sec
Total time needed                          ...    0.244 sec

Time for model grid setup =    1.697 sec

------------------------------
INITIAL GUESS: MODEL POTENTIAL
------------------------------
Loading Hartree-Fock densities                     ... done
Calculating cut-offs                               ... done
Initializing the effective Hamiltonian             ... done
Setting up the integral package (SHARK)            ... done
Starting the Coulomb interaction                   ... done (   4.4 sec)
Reading the grid                                   ... done
Mapping shells                                     ... done
Starting the XC term evaluation                    ... done (   1.8 sec)
Transforming the Hamiltonian                       ... done (   0.1 sec)
Diagonalizing the Hamiltonian                      ... done (   0.2 sec)
Back transforming the eigenvectors                 ... done (   0.0 sec)
Now organizing SCF variables                       ... done
                      ------------------
                      INITIAL GUESS DONE (   8.2 sec)
                      ------------------
--------------
SCF ITERATIONS
--------------
ITER       Energy         Delta-E        Max-DP      RMS-DP      [F,P]     Damp
               ***  Starting incremental Fock matrix formation  ***
  0  -1269.9858509651   0.000000000000 0.06172438  0.00046265  0.3335543 0.7000
  1  -1270.2529798418  -0.267128876694 0.05741007  0.00038157  0.2004521 0.7000
                               ***Turning on DIIS***
  2  -1270.4194708130  -0.166490971142 0.03372956  0.00025370  0.1122737 0.7000
  3  -1272.4878770300  -2.068406217022 0.06300029  0.00053213  0.0828132 0.0000
  4  -1270.7323892740   1.755487755988 0.01598423  0.00011066  0.0072332 0.0000
  5  -1270.7836843771  -0.051295103054 0.00466184  0.00005439  0.0045978 0.0000
                      *** Initiating the SOSCF procedure ***
                           *** Shutting down DIIS ***
                      *** Re-Reading the Fockian *** 
                      *** Removing any level shift *** 
ITER      Energy       Delta-E        Grad      Rot      Max-DP    RMS-DP
  6  -1270.76650250   0.0171818742  0.001546  0.001546  0.002014  0.000027
               *** Restarting incremental Fock matrix formation ***
  7  -1270.78148133  -0.0149788296  0.000896  0.002322  0.001289  0.000016
  8  -1270.78153250  -0.0000511661  0.000419  0.002799  0.001606  0.000018
  9  -1270.78155281  -0.0000203065  0.000213  0.000350  0.000350  0.000005
 10  -1270.78155546  -0.0000026576  0.000047  0.000127  0.000128  0.000002
 11  -1270.78155576  -0.0000002994  0.000027  0.000151  0.000068  0.000001
 12  -1270.78155586  -0.0000000999  0.000011  0.000050  0.000039  0.000000
 13  -1270.78155587  -0.0000000077  0.000004  0.000015  0.000011  0.000000
                 **** Energy Check signals convergence ****
              ***Rediagonalizing the Fockian in SOSCF/NRSCF***

               *****************************************************
               *                     SUCCESS                       *
               *           SCF CONVERGED AFTER  14 CYCLES          *
               *****************************************************


----------------
TOTAL SCF ENERGY
----------------

Total Energy       :        -1270.78155587 Eh          -34579.72413 eV

Components:
Nuclear Repulsion  :         1685.15729829 Eh           45855.46133 eV
Electronic Energy  :        -2955.93885416 Eh          -80435.18547 eV
One Electron Energy:        -5091.36172473 Eh         -138542.99592 eV
Two Electron Energy:         2135.42287057 Eh           58107.81045 eV

Virial components:
Potential Energy   :        -2539.52296600 Eh          -69103.93308 eV
Kinetic Energy     :         1268.74141013 Eh           34524.20895 eV
Virial Ratio       :            2.00160801


---------------
SCF CONVERGENCE
---------------

  Last Energy change         ...    4.2151e-09  Tolerance :   1.0000e-08
  Last MAX-Density change    ...    4.0094e-06  Tolerance :   1.0000e-07
  Last RMS-Density change    ...    4.7801e-08  Tolerance :   5.0000e-09
  Last Orbital Gradient      ...    1.8933e-06  Tolerance :   1.0000e-05
  Last Orbital Rotation      ...    6.4512e-06  Tolerance :   1.0000e-05

             **** THE GBW FILE WAS UPDATED (qm_input.vacu.gbw) ****
             **** DENSITY qm_input.vacu.scfp WAS UPDATED ****
             **** ENERGY FILE WAS UPDATED (qm_input.vacu.en.tmp) ****
             **** THE GBW FILE WAS UPDATED (qm_input.vacu.gbw) ****
             **** DENSITY qm_input.vacu.scfp WAS UPDATED ****
----------------
ORBITAL ENERGIES
----------------

  NO   OCC          E(Eh)            E(eV) 
   0   2.0000     -91.896533     -2500.6318 
   1   2.0000     -20.599711      -560.5466 
   2   2.0000     -20.589929      -560.2804 
   3   2.0000     -20.541069      -558.9509 
   4   2.0000     -15.634672      -425.4411 
   5   2.0000     -15.611193      -424.8022 
   6   2.0000     -11.396393      -310.1116 
   7   2.0000     -11.390979      -309.9643 
   8   2.0000     -11.340907      -308.6018 
   9   2.0000     -11.315949      -307.9226 
  10   2.0000     -11.306708      -307.6712 
  11   2.0000     -11.304571      -307.6130 
  12   2.0000     -11.262132      -306.4582 
  13   2.0000     -11.261078      -306.4295 
  14   2.0000     -11.253402      -306.2206 
  15   2.0000     -11.252893      -306.2068 
  16   2.0000     -11.247723      -306.0661 
  17   2.0000     -11.242652      -305.9281 
  18   2.0000     -11.236608      -305.7637 
  19   2.0000     -11.236525      -305.7614 
  20   2.0000      -8.899567      -242.1695 
  21   2.0000      -6.580939      -179.0764 
  22   2.0000      -6.579083      -179.0259 
  23   2.0000      -6.578515      -179.0105 
  24   2.0000      -1.457290       -39.6549 
  25   2.0000      -1.383498       -37.6469 
  26   2.0000      -1.357460       -36.9384 
  27   2.0000      -1.344368       -36.5821 
  28   2.0000      -1.241755       -33.7899 
  29   2.0000      -1.158031       -31.5116 
  30   2.0000      -1.118899       -30.4468 
  31   2.0000      -1.046578       -28.4788 
  32   2.0000      -1.037328       -28.2271 
  33   2.0000      -1.017491       -27.6873 
  34   2.0000      -0.998077       -27.1591 
  35   2.0000      -0.978529       -26.6271 
  36   2.0000      -0.922161       -25.0933 
  37   2.0000      -0.889895       -24.2153 
  38   2.0000      -0.854828       -23.2610 
  39   2.0000      -0.840769       -22.8785 
  40   2.0000      -0.827116       -22.5070 
  41   2.0000      -0.813719       -22.1424 
  42   2.0000      -0.765652       -20.8345 
  43   2.0000      -0.732087       -19.9211 
  44   2.0000      -0.725022       -19.7288 
  45   2.0000      -0.697155       -18.9705 
  46   2.0000      -0.685726       -18.6596 
  47   2.0000      -0.682152       -18.5623 
  48   2.0000      -0.671180       -18.2637 
  49   2.0000      -0.659529       -17.9467 
  50   2.0000      -0.647125       -17.6092 
  51   2.0000      -0.644591       -17.5402 
  52   2.0000      -0.628251       -17.0956 
  53   2.0000      -0.613172       -16.6853 
  54   2.0000      -0.605938       -16.4884 
  55   2.0000      -0.599297       -16.3077 
  56   2.0000      -0.587235       -15.9795 
  57   2.0000      -0.583575       -15.8799 
  58   2.0000      -0.569198       -15.4887 
  59   2.0000      -0.559469       -15.2239 
  60   2.0000      -0.556457       -15.1420 
  61   2.0000      -0.550572       -14.9818 
  62   2.0000      -0.540898       -14.7186 
  63   2.0000      -0.530004       -14.4222 
  64   2.0000      -0.523026       -14.2323 
  65   2.0000      -0.513788       -13.9809 
  66   2.0000      -0.507929       -13.8214 
  67   2.0000      -0.497342       -13.5334 
  68   2.0000      -0.485789       -13.2190 
  69   2.0000      -0.465153       -12.6575 
  70   2.0000      -0.461308       -12.5528 
  71   2.0000      -0.449745       -12.2382 
  72   2.0000      -0.353742        -9.6258 
  73   2.0000      -0.347188        -9.4475 
  74   2.0000      -0.330470        -8.9925 
  75   2.0000      -0.324707        -8.8357 
  76   2.0000      -0.316003        -8.5989 
  77   0.0000       0.070667         1.9230 
  78   0.0000       0.103641         2.8202 
  79   0.0000       0.122841         3.3427 
  80   0.0000       0.127124         3.4592 
  81   0.0000       0.131719         3.5843 
  82   0.0000       0.142748         3.8844 
  83   0.0000       0.150003         4.0818 
  84   0.0000       0.153024         4.1640 
  85   0.0000       0.159680         4.3451 
  86   0.0000       0.165711         4.5092 
  87   0.0000       0.179293         4.8788 
  88   0.0000       0.186153         5.0655 
  89   0.0000       0.194932         5.3044 
  90   0.0000       0.201214         5.4753 
  91   0.0000       0.205307         5.5867 
  92   0.0000       0.208270         5.6673 
  93   0.0000       0.221444         6.0258 
  94   0.0000       0.230359         6.2684 
  95   0.0000       0.233754         6.3608 
  96   0.0000       0.238929         6.5016 
  97   0.0000       0.250298         6.8109 
  98   0.0000       0.260386         7.0855 
  99   0.0000       0.288157         7.8412 
 100   0.0000       0.291057         7.9201 
 101   0.0000       0.304604         8.2887 
 102   0.0000       0.310081         8.4377 
 103   0.0000       0.319113         8.6835 
 104   0.0000       0.324337         8.8257 
 105   0.0000       0.332116         9.0373 
 106   0.0000       0.343046         9.3347 
 107   0.0000       0.346980         9.4418 
 108   0.0000       0.359519         9.7830 
 109   0.0000       0.364111         9.9080 
 110   0.0000       0.367893        10.0109 
 111   0.0000       0.373199        10.1553 
 112   0.0000       0.381052        10.3690 
 113   0.0000       0.385580        10.4922 
 114   0.0000       0.389033        10.5861 
 115   0.0000       0.397878        10.8268 
 116   0.0000       0.408296        11.1103 
 117   0.0000       0.418812        11.3964 
 118   0.0000       0.422538        11.4978 
 119   0.0000       0.435855        11.8602 
 120   0.0000       0.445391        12.1197 
 121   0.0000       0.447470        12.1763 
 122   0.0000       0.455576        12.3969 
 123   0.0000       0.458939        12.4884 
 124   0.0000       0.460189        12.5224 
 125   0.0000       0.467421        12.7192 
 126   0.0000       0.469019        12.7627 
 127   0.0000       0.476885        12.9767 
 128   0.0000       0.483392        13.1538 
 129   0.0000       0.489779        13.3276 
 130   0.0000       0.492927        13.4132 
 131   0.0000       0.505624        13.7587 
 132   0.0000       0.506472        13.7818 
 133   0.0000       0.517535        14.0828 
 134   0.0000       0.522420        14.2158 
 135   0.0000       0.525682        14.3045 
 136   0.0000       0.532148        14.4805 
 137   0.0000       0.535538        14.5727 
 138   0.0000       0.538230        14.6460 
 139   0.0000       0.548252        14.9187 
 140   0.0000       0.551519        15.0076 
 141   0.0000       0.555385        15.1128 
 142   0.0000       0.560880        15.2623 
 143   0.0000       0.562514        15.3068 
 144   0.0000       0.570846        15.5335 
 145   0.0000       0.572408        15.5760 
 146   0.0000       0.574179        15.6242 
 147   0.0000       0.583813        15.8864 
 148   0.0000       0.592563        16.1245 
 149   0.0000       0.596917        16.2429 
 150   0.0000       0.603879        16.4324 
 151   0.0000       0.606451        16.5024 
 152   0.0000       0.608875        16.5683 
 153   0.0000       0.611748        16.6465 
 154   0.0000       0.615061        16.7367 
 155   0.0000       0.616585        16.7781 
 156   0.0000       0.621037        16.8993 
 157   0.0000       0.625747        17.0274 
 158   0.0000       0.630597        17.1594 
 159   0.0000       0.634598        17.2683 
 160   0.0000       0.640718        17.4348 
 161   0.0000       0.643803        17.5188 
 162   0.0000       0.649279        17.6678 
 163   0.0000       0.658019        17.9056 
 164   0.0000       0.661110        17.9897 
 165   0.0000       0.665706        18.1148 
 166   0.0000       0.673029        18.3141 
 167   0.0000       0.677048        18.4234 
 168   0.0000       0.686487        18.6802 
 169   0.0000       0.692289        18.8381 
 170   0.0000       0.698963        19.0198 
 171   0.0000       0.704651        19.1745 
 172   0.0000       0.706882        19.2352 
 173   0.0000       0.713699        19.4208 
 174   0.0000       0.720877        19.6161 
 175   0.0000       0.722773        19.6677 
 176   0.0000       0.737142        20.0587 
 177   0.0000       0.744680        20.2638 
 178   0.0000       0.750293        20.4165 
 179   0.0000       0.754501        20.5310 
 180   0.0000       0.761482        20.7210 
 181   0.0000       0.771194        20.9852 
 182   0.0000       0.775696        21.1078 
 183   0.0000       0.779578        21.2134 
 184   0.0000       0.784898        21.3582 
 185   0.0000       0.789998        21.4970 
 186   0.0000       0.795464        21.6457 
 187   0.0000       0.802921        21.8486 
 188   0.0000       0.821738        22.3606 
 189   0.0000       0.829657        22.5761 
 190   0.0000       0.832602        22.6563 
 191   0.0000       0.842255        22.9189 
 192   0.0000       0.851003        23.1570 
 193   0.0000       0.855200        23.2712 
 194   0.0000       0.863058        23.4850 
 195   0.0000       0.876369        23.8472 
 196   0.0000       0.886489        24.1226 
 197   0.0000       0.888718        24.1832 
 198   0.0000       0.896173        24.3861 
 199   0.0000       0.898869        24.4595 
 200   0.0000       0.902057        24.5462 
 201   0.0000       0.908968        24.7343 
 202   0.0000       0.914258        24.8782 
 203   0.0000       0.925629        25.1876 
 204   0.0000       0.939763        25.5722 
 205   0.0000       0.942796        25.6548 
 206   0.0000       0.950933        25.8762 
 207   0.0000       0.956893        26.0384 
 208   0.0000       0.959806        26.1176 
 209   0.0000       0.967090        26.3159 
 210   0.0000       0.974593        26.5200 
 211   0.0000       0.981061        26.6960 
 212   0.0000       0.982136        26.7253 
 213   0.0000       0.992090        26.9961 
 214   0.0000       1.004541        27.3350 
 215   0.0000       1.014480        27.6054 
 216   0.0000       1.022785        27.8314 
 217   0.0000       1.024488        27.8777 
 218   0.0000       1.033104        28.1122 
 219   0.0000       1.035734        28.1837 
 220   0.0000       1.046025        28.4638 
 221   0.0000       1.052011        28.6267 
 222   0.0000       1.063618        28.9425 
 223   0.0000       1.069602        29.1053 
 224   0.0000       1.080826        29.4108 
 225   0.0000       1.087015        29.5792 
 226   0.0000       1.102319        29.9956 
 227   0.0000       1.103562        30.0295 
 228   0.0000       1.110239        30.2111 
 229   0.0000       1.115408        30.3518 
 230   0.0000       1.122188        30.5363 
 231   0.0000       1.134266        30.8650 
 232   0.0000       1.139768        31.0147 
 233   0.0000       1.140995        31.0480 
 234   0.0000       1.155955        31.4551 
 235   0.0000       1.157975        31.5101 
 236   0.0000       1.168609        31.7995 
 237   0.0000       1.173941        31.9446 
 238   0.0000       1.176382        32.0110 
 239   0.0000       1.188739        32.3472 
 240   0.0000       1.192038        32.4370 
 241   0.0000       1.194898        32.5148 
 242   0.0000       1.200149        32.6577 
 243   0.0000       1.210854        32.9490 
 244   0.0000       1.219090        33.1731 
 245   0.0000       1.221274        33.2326 
 246   0.0000       1.228278        33.4232 
 247   0.0000       1.234555        33.5939 
 248   0.0000       1.237836        33.6832 
 249   0.0000       1.247116        33.9357 
 250   0.0000       1.251165        34.0459 
 251   0.0000       1.253781        34.1171 
 252   0.0000       1.259785        34.2805 
 253   0.0000       1.274242        34.6739 
 254   0.0000       1.283062        34.9139 
 255   0.0000       1.286168        34.9984 
 256   0.0000       1.297446        35.3053 
 257   0.0000       1.309954        35.6457 
 258   0.0000       1.319019        35.8923 
 259   0.0000       1.320005        35.9192 
 260   0.0000       1.333410        36.2839 
 261   0.0000       1.337714        36.4010 
 262   0.0000       1.346711        36.6459 
 263   0.0000       1.359143        36.9842 
 264   0.0000       1.366850        37.1939 
 265   0.0000       1.381980        37.6056 
 266   0.0000       1.384598        37.6768 
 267   0.0000       1.398212        38.0473 
 268   0.0000       1.399957        38.0948 
 269   0.0000       1.405045        38.2332 
 270   0.0000       1.410848        38.3911 
 271   0.0000       1.422892        38.7189 
 272   0.0000       1.429312        38.8936 
 273   0.0000       1.435922        39.0734 
 274   0.0000       1.441434        39.2234 
 275   0.0000       1.451258        39.4908 
 276   0.0000       1.457594        39.6631 
 277   0.0000       1.468746        39.9666 
 278   0.0000       1.475979        40.1634 
 279   0.0000       1.482941        40.3529 
 280   0.0000       1.488044        40.4917 
 281   0.0000       1.492265        40.6066 
 282   0.0000       1.498765        40.7835 
 283   0.0000       1.504697        40.9449 
 284   0.0000       1.510566        41.1046 
 285   0.0000       1.521768        41.4094 
 286   0.0000       1.528377        41.5893 
 287   0.0000       1.533681        41.7336 
 288   0.0000       1.541807        41.9547 
 289   0.0000       1.549119        42.1537 
 290   0.0000       1.552196        42.2374 
 291   0.0000       1.557324        42.3769 
 292   0.0000       1.565895        42.6102 
 293   0.0000       1.575697        42.8769 
 294   0.0000       1.581676        43.0396 
 295   0.0000       1.585661        43.1480 
 296   0.0000       1.591952        43.3192 
 297   0.0000       1.605029        43.6751 
 298   0.0000       1.609657        43.8010 
 299   0.0000       1.624273        44.1987 
 300   0.0000       1.630093        44.3571 
 301   0.0000       1.641884        44.6779 
 302   0.0000       1.644420        44.7470 
 303   0.0000       1.648021        44.8449 
 304   0.0000       1.653625        44.9974 
 305   0.0000       1.665268        45.3142 
 306   0.0000       1.670918        45.4680 
 307   0.0000       1.680537        45.7297 
 308   0.0000       1.692625        46.0587 
 309   0.0000       1.696800        46.1723 
 310   0.0000       1.704416        46.3795 
 311   0.0000       1.718652        46.7669 
 312   0.0000       1.731684        47.1215 
 313   0.0000       1.734175        47.1893 
 314   0.0000       1.744435        47.4685 
 315   0.0000       1.760079        47.8942 
 316   0.0000       1.762166        47.9510 
 317   0.0000       1.776398        48.3382 
 318   0.0000       1.788681        48.6725 
 319   0.0000       1.796419        48.8830 
 320   0.0000       1.808625        49.2152 
 321   0.0000       1.824444        49.6456 
 322   0.0000       1.836059        49.9617 
 323   0.0000       1.843895        50.1749 
 324   0.0000       1.849277        50.3214 
 325   0.0000       1.870075        50.8873 
 326   0.0000       1.875417        51.0327 
 327   0.0000       1.892438        51.4959 
 328   0.0000       1.897439        51.6319 
 329   0.0000       1.909968        51.9729 
 330   0.0000       1.920074        52.2479 
 331   0.0000       1.924850        52.3778 
 332   0.0000       1.933865        52.6231 
 333   0.0000       1.935687        52.6727 
 334   0.0000       1.950382        53.0726 
 335   0.0000       1.954502        53.1847 
 336   0.0000       1.972152        53.6650 
 337   0.0000       1.984293        53.9954 
 338   0.0000       2.003501        54.5180 
 339   0.0000       2.013602        54.7929 
 340   0.0000       2.015130        54.8345 
 341   0.0000       2.019364        54.9497 
 342   0.0000       2.034908        55.3727 
 343   0.0000       2.057407        55.9849 
 344   0.0000       2.086647        56.7806 
 345   0.0000       2.090906        56.8964 
 346   0.0000       2.097743        57.0825 
 347   0.0000       2.121294        57.7233 
 348   0.0000       2.129803        57.9549 
 349   0.0000       2.148613        58.4667 
 350   0.0000       2.168140        58.9981 
 351   0.0000       2.172560        59.1184 
 352   0.0000       2.197889        59.8076 
 353   0.0000       2.218911        60.3796 
 354   0.0000       2.232831        60.7584 
 355   0.0000       2.241869        61.0044 
 356   0.0000       2.249413        61.2096 
 357   0.0000       2.268534        61.7300 
 358   0.0000       2.288405        62.2707 
 359   0.0000       2.303649        62.6855 
 360   0.0000       2.312273        62.9201 
 361   0.0000       2.323241        63.2186 
 362   0.0000       2.327075        63.3229 
 363   0.0000       2.341567        63.7173 
 364   0.0000       2.351414        63.9852 
 365   0.0000       2.365872        64.3786 
 366   0.0000       2.377193        64.6867 
 367   0.0000       2.379174        64.7406 
 368   0.0000       2.397136        65.2294 
 369   0.0000       2.405952        65.4693 
 370   0.0000       2.427152        66.0462 
 371   0.0000       2.453726        66.7693 
 372   0.0000       2.465766        67.0969 
 373   0.0000       2.474244        67.3276 
 374   0.0000       2.480177        67.4890 
 375   0.0000       2.496264        67.9268 
 376   0.0000       2.503414        68.1213 
 377   0.0000       2.520669        68.5909 
 378   0.0000       2.531913        68.8969 
 379   0.0000       2.540930        69.1422 
 380   0.0000       2.558845        69.6297 
 381   0.0000       2.567791        69.8732 
 382   0.0000       2.581810        70.2546 
 383   0.0000       2.587515        70.4099 
 384   0.0000       2.607546        70.9549 
 385   0.0000       2.613722        71.1230 
 386   0.0000       2.620006        71.2940 
 387   0.0000       2.641799        71.8870 
 388   0.0000       2.654821        72.2414 
 389   0.0000       2.667972        72.5992 
 390   0.0000       2.672655        72.7266 
 391   0.0000       2.686040        73.0909 
 392   0.0000       2.704054        73.5811 
 393   0.0000       2.712119        73.8005 
 394   0.0000       2.719202        73.9932 
 395   0.0000       2.724290        74.1317 
 396   0.0000       2.730638        74.3044 
 397   0.0000       2.739235        74.5384 
 398   0.0000       2.750299        74.8394 
 399   0.0000       2.760245        75.1101 
 400   0.0000       2.765715        75.2589 
 401   0.0000       2.770641        75.3930 
 402   0.0000       2.772024        75.4306 
 403   0.0000       2.784965        75.7827 
 404   0.0000       2.788955        75.8913 
 405   0.0000       2.823313        76.8263 
 406   0.0000       2.826984        76.9261 
 407   0.0000       2.830817        77.0304 
 408   0.0000       2.837463        77.2113 
 409   0.0000       2.847064        77.4726 
 410   0.0000       2.862995        77.9061 
 411   0.0000       2.866233        77.9942 
 412   0.0000       2.881683        78.4146 
 413   0.0000       2.891401        78.6790 
 414   0.0000       2.896245        78.8108 
 415   0.0000       2.905700        79.0681 
 416   0.0000       2.910678        79.2036 
 417   0.0000       2.934418        79.8496 
 418   0.0000       2.936813        79.9147 
 419   0.0000       2.948786        80.2405 
 420   0.0000       2.955330        80.4186 
 421   0.0000       2.974259        80.9337 
 422   0.0000       2.978329        81.0445 
 423   0.0000       2.987492        81.2938 
 424   0.0000       2.991145        81.3932 
 425   0.0000       2.994608        81.4874 
 426   0.0000       3.006755        81.8180 
 427   0.0000       3.007147        81.8286 
 428   0.0000       3.021206        82.2112 
 429   0.0000       3.026728        82.3615 
 430   0.0000       3.045425        82.8702 
 431   0.0000       3.060959        83.2929 
 432   0.0000       3.062966        83.3475 
 433   0.0000       3.073028        83.6213 
 434   0.0000       3.079034        83.7848 
 435   0.0000       3.082831        83.8881 
 436   0.0000       3.090997        84.1103 
 437   0.0000       3.098085        84.3032 
 438   0.0000       3.100613        84.3720 
 439   0.0000       3.110655        84.6452 
 440   0.0000       3.113959        84.7351 
 441   0.0000       3.122166        84.9585 
 442   0.0000       3.126794        85.0844 
 443   0.0000       3.127795        85.1116 
 444   0.0000       3.140984        85.4705 
 445   0.0000       3.144917        85.5776 
 446   0.0000       3.153739        85.8176 
 447   0.0000       3.159736        85.9808 
 448   0.0000       3.172858        86.3378 
 449   0.0000       3.178529        86.4922 
 450   0.0000       3.190350        86.8138 
 451   0.0000       3.197801        87.0166 
 452   0.0000       3.204340        87.1945 
 453   0.0000       3.208728        87.3139 
 454   0.0000       3.218243        87.5729 
 455   0.0000       3.226702        87.8030 
 456   0.0000       3.237173        88.0880 
 457   0.0000       3.239670        88.1559 
 458   0.0000       3.249355        88.4194 
 459   0.0000       3.259596        88.6981 
 460   0.0000       3.264663        88.8360 
 461   0.0000       3.271024        89.0091 
 462   0.0000       3.275220        89.1233 
 463   0.0000       3.281874        89.3043 
 464   0.0000       3.287623        89.4608 
 465   0.0000       3.291976        89.5792 
 466   0.0000       3.299247        89.7771 
 467   0.0000       3.312257        90.1311 
 468   0.0000       3.314244        90.1852 
 469   0.0000       3.322862        90.4197 
 470   0.0000       3.323182        90.4284 
 471   0.0000       3.328604        90.5759 
 472   0.0000       3.336450        90.7894 
 473   0.0000       3.339399        90.8697 
 474   0.0000       3.343519        90.9818 
 475   0.0000       3.351825        91.2078 
 476   0.0000       3.358190        91.3810 
 477   0.0000       3.360975        91.4568 
 478   0.0000       3.364711        91.5584 
 479   0.0000       3.369482        91.6883 
 480   0.0000       3.382444        92.0410 
 481   0.0000       3.390471        92.2594 
 482   0.0000       3.393164        92.3327 
 483   0.0000       3.399130        92.4950 
 484   0.0000       3.408688        92.7551 
 485   0.0000       3.411840        92.8409 
 486   0.0000       3.422032        93.1182 
 487   0.0000       3.428845        93.3036 
 488   0.0000       3.432795        93.4111 
 489   0.0000       3.438375        93.5629 
 490   0.0000       3.440119        93.6104 
 491   0.0000       3.448023        93.8255 
 492   0.0000       3.453314        93.9695 
 493   0.0000       3.461731        94.1985 
 494   0.0000       3.464922        94.2853 
 495   0.0000       3.475148        94.5636 
 496   0.0000       3.478260        94.6483 
 497   0.0000       3.481801        94.7446 
 498   0.0000       3.489067        94.9424 
 499   0.0000       3.498253        95.1923 
 500   0.0000       3.504184        95.3537 
 501   0.0000       3.508170        95.4622 
 502   0.0000       3.515027        95.6487 
 503   0.0000       3.523069        95.8676 
 504   0.0000       3.531472        96.0962 
 505   0.0000       3.535513        96.2062 
 506   0.0000       3.551030        96.6284 
 507   0.0000       3.557949        96.8167 
 508   0.0000       3.562520        96.9411 
 509   0.0000       3.570102        97.1474 
 510   0.0000       3.575951        97.3066 
 511   0.0000       3.585064        97.5545 
 512   0.0000       3.591192        97.7213 
 513   0.0000       3.593540        97.7852 
 514   0.0000       3.613807        98.3367 
 515   0.0000       3.618933        98.4762 
 516   0.0000       3.620735        98.5252 
 517   0.0000       3.635383        98.9238 
 518   0.0000       3.637949        98.9936 
 519   0.0000       3.641846        99.0997 
 520   0.0000       3.645502        99.1991 
 521   0.0000       3.652114        99.3791 
 522   0.0000       3.654942        99.4560 
 523   0.0000       3.657495        99.5255 
 524   0.0000       3.664659        99.7204 
 525   0.0000       3.678245       100.0901 
 526   0.0000       3.683250       100.2263 
 527   0.0000       3.688516       100.3696 
 528   0.0000       3.695719       100.5656 
 529   0.0000       3.702560       100.7518 
 530   0.0000       3.712632       101.0258 
 531   0.0000       3.719519       101.2133 
 532   0.0000       3.721955       101.2795 
 533   0.0000       3.727926       101.4420 
 534   0.0000       3.730689       101.5172 
 535   0.0000       3.736995       101.6888 
 536   0.0000       3.748192       101.9935 
 537   0.0000       3.753934       102.1497 
 538   0.0000       3.755558       102.1939 
 539   0.0000       3.760093       102.3173 
 540   0.0000       3.766797       102.4998 
 541   0.0000       3.778833       102.8273 
 542   0.0000       3.789004       103.1040 
 543   0.0000       3.795723       103.2869 
 544   0.0000       3.796435       103.3062 
 545   0.0000       3.806938       103.5921 
 546   0.0000       3.814006       103.7844 
 547   0.0000       3.823526       104.0434 
 548   0.0000       3.829157       104.1967 
 549   0.0000       3.832202       104.2795 
 550   0.0000       3.838491       104.4507 
 551   0.0000       3.855465       104.9125 
 552   0.0000       3.860343       105.0453 
 553   0.0000       3.867808       105.2484 
 554   0.0000       3.874646       105.4345 
 555   0.0000       3.884234       105.6954 
 556   0.0000       3.886678       105.7619 
 557   0.0000       3.903310       106.2145 
 558   0.0000       3.910190       106.4017 
 559   0.0000       3.913232       106.4844 
 560   0.0000       3.933038       107.0234 
 561   0.0000       3.939354       107.1953 
 562   0.0000       3.950039       107.4860 
 563   0.0000       3.956180       107.6531 
 564   0.0000       3.961137       107.7880 
 565   0.0000       3.968743       107.9950 
 566   0.0000       3.976363       108.2023 
 567   0.0000       3.988888       108.5432 
 568   0.0000       3.993705       108.6742 
 569   0.0000       4.000276       108.8530 
 570   0.0000       4.022672       109.4625 
 571   0.0000       4.027069       109.5821 
 572   0.0000       4.029416       109.6460 
 573   0.0000       4.045457       110.0825 
 574   0.0000       4.048871       110.1754 
 575   0.0000       4.061375       110.5156 
 576   0.0000       4.067270       110.6760 
 577   0.0000       4.070658       110.7682 
 578   0.0000       4.090456       111.3070 
 579   0.0000       4.098774       111.5333 
 580   0.0000       4.101595       111.6101 
 581   0.0000       4.112186       111.8983 
 582   0.0000       4.115035       111.9758 
 583   0.0000       4.123174       112.1973 
 584   0.0000       4.130149       112.3871 
 585   0.0000       4.139120       112.6312 
 586   0.0000       4.143374       112.7469 
 587   0.0000       4.149327       112.9089 
 588   0.0000       4.151764       112.9752 
 589   0.0000       4.156552       113.1055 
 590   0.0000       4.164227       113.3144 
 591   0.0000       4.187676       113.9525 
 592   0.0000       4.191280       114.0505 
 593   0.0000       4.192870       114.0938 
 594   0.0000       4.199315       114.2692 
 595   0.0000       4.201933       114.3404 
 596   0.0000       4.213886       114.6657 
 597   0.0000       4.218272       114.7850 
 598   0.0000       4.221217       114.8651 
 599   0.0000       4.242270       115.4380 
 600   0.0000       4.247251       115.5736 
 601   0.0000       4.251831       115.6982 
 602   0.0000       4.260330       115.9295 
 603   0.0000       4.274014       116.3018 
 604   0.0000       4.283839       116.5692 
 605   0.0000       4.286585       116.6439 
 606   0.0000       4.291001       116.7641 
 607   0.0000       4.300345       117.0183 
 608   0.0000       4.305561       117.1603 
 609   0.0000       4.321139       117.5842 
 610   0.0000       4.327846       117.7667 
 611   0.0000       4.333116       117.9101 
 612   0.0000       4.341007       118.1248 
 613   0.0000       4.348849       118.3382 
 614   0.0000       4.356010       118.5331 
 615   0.0000       4.368602       118.8757 
 616   0.0000       4.377953       119.1302 
 617   0.0000       4.379319       119.1673 
 618   0.0000       4.385683       119.3405 
 619   0.0000       4.390240       119.4645 
 620   0.0000       4.398115       119.6788 
 621   0.0000       4.413802       120.1057 
 622   0.0000       4.418602       120.2363 
 623   0.0000       4.428918       120.5170 
 624   0.0000       4.432362       120.6107 
 625   0.0000       4.448510       121.0501 
 626   0.0000       4.449846       121.0865 
 627   0.0000       4.453382       121.1827 
 628   0.0000       4.467003       121.5533 
 629   0.0000       4.470950       121.6607 
 630   0.0000       4.478500       121.8662 
 631   0.0000       4.483348       121.9981 
 632   0.0000       4.502828       122.5282 
 633   0.0000       4.511264       122.7577 
 634   0.0000       4.518077       122.9431 
 635   0.0000       4.524905       123.1289 
 636   0.0000       4.540073       123.5417 
 637   0.0000       4.540787       123.5611 
 638   0.0000       4.563732       124.1855 
 639   0.0000       4.575651       124.5098 
 640   0.0000       4.585087       124.7666 
 641   0.0000       4.593178       124.9867 
 642   0.0000       4.596791       125.0850 
 643   0.0000       4.600665       125.1905 
 644   0.0000       4.604075       125.2833 
 645   0.0000       4.612526       125.5132 
 646   0.0000       4.617311       125.6434 
 647   0.0000       4.629845       125.9845 
 648   0.0000       4.637596       126.1954 
 649   0.0000       4.644615       126.3864 
 650   0.0000       4.647082       126.4535 
 651   0.0000       4.656293       126.7042 
 652   0.0000       4.678829       127.3174 
 653   0.0000       4.684403       127.4691 
 654   0.0000       4.689681       127.6127 
 655   0.0000       4.695697       127.7764 
 656   0.0000       4.716018       128.3294 
 657   0.0000       4.720694       128.4566 
 658   0.0000       4.730975       128.7364 
 659   0.0000       4.743222       129.0696 
 660   0.0000       4.755819       129.4124 
 661   0.0000       4.766921       129.7145 
 662   0.0000       4.773109       129.8829 
 663   0.0000       4.798269       130.5675 
 664   0.0000       4.800335       130.6237 
 665   0.0000       4.811201       130.9194 
 666   0.0000       4.822754       131.2338 
 667   0.0000       4.835605       131.5835 
 668   0.0000       4.847518       131.9077 
 669   0.0000       4.881914       132.8436 
 670   0.0000       4.899306       133.3169 
 671   0.0000       4.922905       133.9591 
 672   0.0000       4.933223       134.2398 
 673   0.0000       4.948958       134.6680 
 674   0.0000       4.960942       134.9941 
 675   0.0000       4.978550       135.4732 
 676   0.0000       4.980688       135.5314 
 677   0.0000       4.988985       135.7572 
 678   0.0000       5.010666       136.3472 
 679   0.0000       5.027915       136.8165 
 680   0.0000       5.046424       137.3202 
 681   0.0000       5.066189       137.8580 
 682   0.0000       5.068169       137.9119 
 683   0.0000       5.092718       138.5799 
 684   0.0000       5.095036       138.6430 
 685   0.0000       5.098827       138.7461 
 686   0.0000       5.104400       138.8978 
 687   0.0000       5.128762       139.5607 
 688   0.0000       5.135230       139.7367 
 689   0.0000       5.140362       139.8764 
 690   0.0000       5.156383       140.3123 
 691   0.0000       5.168418       140.6398 
 692   0.0000       5.176037       140.8471 
 693   0.0000       5.184665       141.0819 
 694   0.0000       5.195645       141.3807 
 695   0.0000       5.209257       141.7511 
 696   0.0000       5.212813       141.8479 
 697   0.0000       5.230412       142.3267 
 698   0.0000       5.239662       142.5784 
 699   0.0000       5.242347       142.6515 
 700   0.0000       5.276576       143.5829 
 701   0.0000       5.278950       143.6475 
 702   0.0000       5.293974       144.0563 
 703   0.0000       5.297762       144.1594 
 704   0.0000       5.306822       144.4060 
 705   0.0000       5.311754       144.5402 
 706   0.0000       5.319929       144.7626 
 707   0.0000       5.330834       145.0594 
 708   0.0000       5.365422       146.0006 
 709   0.0000       5.372168       146.1841 
 710   0.0000       5.379138       146.3738 
 711   0.0000       5.384123       146.5094 
 712   0.0000       5.407945       147.1577 
 713   0.0000       5.433888       147.8636 
 714   0.0000       5.434972       147.8931 
 715   0.0000       5.457076       148.4946 
 716   0.0000       5.465676       148.7286 
 717   0.0000       5.478071       149.0659 
 718   0.0000       5.517247       150.1319 
 719   0.0000       5.522161       150.2657 
 720   0.0000       5.531730       150.5260 
 721   0.0000       5.538867       150.7202 
 722   0.0000       5.547860       150.9649 
 723   0.0000       5.567589       151.5018 
 724   0.0000       5.582896       151.9183 
 725   0.0000       5.595712       152.2671 
 726   0.0000       5.604798       152.5143 
 727   0.0000       5.609239       152.6351 
 728   0.0000       5.614069       152.7666 
 729   0.0000       5.631903       153.2519 
 730   0.0000       5.647551       153.6777 
 731   0.0000       5.658437       153.9739 
 732   0.0000       5.672553       154.3580 
 733   0.0000       5.687000       154.7511 
 734   0.0000       5.697959       155.0494 
 735   0.0000       5.730617       155.9380 
 736   0.0000       5.740787       156.2148 
 737   0.0000       5.751131       156.4962 
 738   0.0000       5.758068       156.6850 
 739   0.0000       5.771086       157.0392 
 740   0.0000       5.780400       157.2927 
 741   0.0000       5.787040       157.4734 
 742   0.0000       5.800200       157.8315 
 743   0.0000       5.836847       158.8287 
 744   0.0000       5.843772       159.0171 
 745   0.0000       5.848806       159.1541 
 746   0.0000       5.859330       159.4405 
 747   0.0000       5.870184       159.7358 
 748   0.0000       5.873229       159.8187 
 749   0.0000       5.901884       160.5984 
 750   0.0000       5.916189       160.9877 
 751   0.0000       5.983831       162.8283 
 752   0.0000       5.998838       163.2367 
 753   0.0000       6.001208       163.3012 
 754   0.0000       6.013409       163.6332 
 755   0.0000       6.021878       163.8636 
 756   0.0000       6.040698       164.3757 
 757   0.0000       6.056686       164.8108 
 758   0.0000       6.076884       165.3604 
 759   0.0000       6.091499       165.7581 
 760   0.0000       6.117553       166.4671 
 761   0.0000       6.148030       167.2964 
 762   0.0000       6.167191       167.8178 
 763   0.0000       6.179794       168.1607 
 764   0.0000       6.226022       169.4187 
 765   0.0000       6.244070       169.9098 
 766   0.0000       6.246417       169.9736 
 767   0.0000       6.273609       170.7136 
 768   0.0000       6.305641       171.5852 
 769   0.0000       6.324434       172.0966 
 770   0.0000       6.330896       172.2724 
 771   0.0000       6.367528       173.2692 
 772   0.0000       6.381792       173.6574 
 773   0.0000       6.426318       174.8690 
 774   0.0000       6.463116       175.8703 
 775   0.0000       6.470126       176.0611 
 776   0.0000       6.487045       176.5215 
 777   0.0000       6.518512       177.3777 
 778   0.0000       6.532552       177.7598 
 779   0.0000       6.568307       178.7327 
 780   0.0000       6.652063       181.0118 
 781   0.0000       6.675972       181.6624 
 782   0.0000       6.731303       183.1681 
 783   0.0000       6.749071       183.6516 
 784   0.0000       6.778376       184.4490 
 785   0.0000       6.789102       184.7409 
 786   0.0000       6.860296       186.6782 
 787   0.0000       6.919884       188.2996 
 788   0.0000       6.922336       188.3663 
 789   0.0000       6.962839       189.4685 
 790   0.0000       7.006446       190.6551 
 791   0.0000       7.073250       192.4729 
 792   0.0000       7.087949       192.8729 
 793   0.0000       7.120344       193.7544 
 794   0.0000       7.202873       196.0001 
 795   0.0000       7.219150       196.4431 
 796   0.0000       7.244908       197.1440 
 797   0.0000       7.303924       198.7499 
 798   0.0000       7.317259       199.1127 
 799   0.0000       7.370432       200.5596 
 800   0.0000       7.463603       203.0950 
 801   0.0000       7.495575       203.9650 
 802   0.0000       7.543308       205.2638 
 803   0.0000       7.584758       206.3918 
 804   0.0000       7.662826       208.5161 
 805   0.0000       7.698038       209.4743 
 806   0.0000       7.843628       213.4360 
 807   0.0000       7.892117       214.7554 
 808   0.0000       7.974736       217.0036 
 809   0.0000       9.418068       256.2787 
 810   0.0000       9.465693       257.5746 
 811   0.0000      10.690677       290.9081 
 812   0.0000      11.380602       309.6819 
 813   0.0000      11.897657       323.7517 
 814   0.0000      12.444944       338.6441 
 815   0.0000      12.509288       340.3950 
 816   0.0000      12.825641       349.0034 
 817   0.0000      12.900839       351.0497 
 818   0.0000      13.103095       356.5533 
 819   0.0000      13.227507       359.9388 
 820   0.0000      13.430738       365.4689 
 821   0.0000      13.813046       375.8721 
 822   0.0000      13.847200       376.8015 
 823   0.0000      13.966393       380.0449 
 824   0.0000      14.260375       388.0445 
 825   0.0000      14.583353       396.8332 
 826   0.0000      14.773659       402.0117 
 827   0.0000      15.767033       429.0428 

                    ********************************
                    * MULLIKEN POPULATION ANALYSIS *
                    ********************************

-----------------------
MULLIKEN ATOMIC CHARGES
-----------------------
   0 C :   -0.275395
   1 C :    0.034899
   2 O :   -0.360739
   3 C :    0.442418
   4 O :   -0.426151
   5 C :   -0.191249
   6 C :    0.134405
   7 C :   -0.268686
   8 N :   -0.117569
   9 C :    0.200720
  10 S :   -0.437591
  11 N :   -0.213513
  12 C :    0.018624
  13 C :    0.040446
  14 C :   -0.124935
  15 C :   -0.153206
  16 C :   -0.195775
  17 C :    0.253387
  18 O :   -0.378060
  19 C :   -0.277692
  20 H :    0.094344
  21 H :    0.102607
  22 H :    0.104637
  23 H :    0.095175
  24 H :    0.127963
  25 H :    0.135614
  26 H :    0.138213
  27 H :    0.090386
  28 H :    0.192651
  29 H :    0.197825
  30 H :    0.149677
  31 H :    0.142989
  32 H :    0.168205
  33 H :    0.160148
  34 H :    0.245037
  35 H :    0.150192
Sum of atomic charges:    0.0000000

--------------------------------
MULLIKEN REDUCED ORBITAL CHARGES
--------------------------------
  0 C s       :     3.258553  s :     3.258553
      pz      :     0.960700  p :     2.940214
      px      :     1.010237
      py      :     0.969278
      dz2     :     0.021083  d :     0.072044
      dxz     :     0.009830
      dyz     :     0.011296
      dx2y2   :     0.018837
      dxy     :     0.010997
      f0      :     0.000608  f :     0.004584
      f+1     :     0.000554
      f-1     :     0.000926
      f+2     :     0.000488
      f-2     :     0.000621
      f+3     :     0.001071
      f-3     :     0.000317
  1 C s       :     3.180442  s :     3.180442
      pz      :     0.951001  p :     2.622837
      px      :     1.011757
      py      :     0.660080
      dz2     :     0.030483  d :     0.150670
      dxz     :     0.023543
      dyz     :     0.030066
      dx2y2   :     0.041533
      dxy     :     0.025046
      f0      :     0.000921  f :     0.011152
      f+1     :     0.000922
      f-1     :     0.002102
      f+2     :     0.002276
      f-2     :     0.001513
      f+3     :     0.001898
      f-3     :     0.001520
  2 O s       :     3.722074  s :     3.722074
      pz      :     1.610931  p :     4.603393
      px      :     1.795690
      py      :     1.196772
      dz2     :     0.003783  d :     0.033103
      dxz     :     0.003035
      dyz     :     0.016775
      dx2y2   :     0.005041
      dxy     :     0.004469
      f0      :     0.000188  f :     0.002170
      f+1     :     0.000020
      f-1     :     0.000352
      f+2     :     0.000613
      f-2     :     0.000177
      f+3     :     0.000293
      f-3     :     0.000526
  3 C s       :     3.048960  s :     3.048960
      pz      :     0.747992  p :     2.183984
      px      :     0.655938
[...]
 15 C s       :     2.706810  s :     2.706810
      pz      :     0.923204  p :     2.807631
      px      :     0.925150
      py      :     0.959277
      dz2     :     0.070135  d :     0.402781
      dxz     :     0.064433
      dyz     :     0.095206
      dx2y2   :     0.101493
      dxy     :     0.071514
      f0      :     0.005778  f :     0.040720
      f+1     :     0.004918
      f-1     :     0.004497
      f+2     :     0.005347
      f-2     :     0.007335
      f+3     :     0.005588
      f-3     :     0.007257
 16 C s       :     2.712595  s :     2.712595
      pz      :     0.944071  p :     2.837090
      px      :     0.923063
      py      :     0.969957
      dz2     :     0.057921  d :     0.377896
      dxz     :     0.063127
      dyz     :     0.087590
      dx2y2   :     0.092544
      dxy     :     0.076714
      f0      :     0.003279  f :     0.037458
      f+1     :     0.002917
      f-1     :     0.007841
      f+2     :     0.004772
      f-2     :     0.005614
      f+3     :     0.006677
      f-3     :     0.006357
 17 C s       :     2.715623  s :     2.715623
      pz      :     0.949368  p :     2.687926
      px      :     0.862850
      py      :     0.875708
      dz2     :     0.111144  d :     0.648373
      dxz     :     0.102400
      dyz     :     0.119019
      dx2y2   :     0.165236
      dxy     :     0.150574
      f0      :     0.010540  f :     0.084966
      f+1     :     0.007711
      f-1     :     0.010007
      f+2     :     0.006569
      f-2     :     0.015705
      f+3     :     0.018313
      f-3     :     0.016119
 18 O s       :     3.209741  s :     3.209741
      pz      :     1.478802  p :     4.384388
      px      :     1.477972
      py      :     1.427615
      dz2     :     0.013692  d :     0.065722
      dxz     :     0.007646
      dyz     :     0.015819
      dx2y2   :     0.011375
      dxy     :     0.017191
      f0      :     0.000617  f :     0.004087
      f+1     :     0.000518
      f-1     :     0.000682
      f+2     :     0.000242
      f-2     :     0.000659
      f+3     :     0.000615
      f-3     :     0.000754
 19 C s       :     2.694925  s :     2.694925
      pz      :     0.932355  p :     2.837816
      px      :     0.943662
      py      :     0.961798
      dz2     :     0.066322  d :     0.409080
      dxz     :     0.075548
      dyz     :     0.088769
      dx2y2   :     0.106837
      dxy     :     0.071604
      f0      :     0.006614  f :     0.042708
      f+1     :     0.005667
      f-1     :     0.003905
      f+2     :     0.005250
      f-2     :     0.007442
      f+3     :     0.005819
      f-3     :     0.008010
 20 H s       :     0.842909  s :     0.842909
      pz      :     0.069113  p :     0.153769
      px      :     0.042830
      py      :     0.041826
      dz2     :     0.009347  d :     0.028126
      dxz     :     0.007923
      dyz     :     0.008540
      dx2y2   :     0.001660
      dxy     :     0.000655
 21 H s       :     0.842125  s :     0.842125
      pz      :     0.043258  p :     0.153397
      px      :     0.041450
      py      :     0.068689
      dz2     :     0.002746  d :     0.027632
      dxz     :     0.000860
      dyz     :     0.008612
      dx2y2   :     0.007974
      dxy     :     0.007440
 22 H s       :     0.843202  s :     0.843202
      pz      :     0.039337  p :     0.151099
      px      :     0.074051
      py      :     0.037712
      dz2     :     0.002438  d :     0.027608
      dxz     :     0.009368
      dyz     :     0.000040
      dx2y2   :     0.007107
      dxy     :     0.008655
 23 H s       :     0.860231  s :     0.860231
      pz      :     0.039485  p :     0.145268
      px      :     0.077648
      py      :     0.028135
      dz2     :     0.002802  d :     0.026866
      dxz     :     0.009295
      dyz     :     0.000746
      dx2y2   :     0.007532
      dxy     :     0.006491
 24 H s       :     0.849190  s :     0.849190
      pz      :     0.070323  p :     0.148994
      px      :     0.050005
      py      :     0.028667
      dz2     :     0.009136  d :     0.027103
      dxz     :     0.007929
      dyz     :     0.005278
      dx2y2   :     0.003193
      dxy     :     0.001567
 25 H s       :     0.829304  s :     0.829304
      pz      :     0.039001  p :     0.151872
      px      :     0.071406
      py      :     0.041465
      dz2     :     0.003782  d :     0.027614
      dxz     :     0.007556
      dyz     :     0.001056
      dx2y2   :     0.007379
      dxy     :     0.007840
 26 H s       :     0.822396  s :     0.822396
      pz      :     0.047613  p :     0.153930
      px      :     0.053470
      py      :     0.052847
      dz2     :     0.006294  d :     0.028125
      dxz     :     0.004791
      dyz     :     0.005149
      dx2y2   :     0.007304
      dxy     :     0.004587
 27 H s       :     0.846996  s :     0.846996
      pz      :     0.037292  p :     0.151764
      px      :     0.043957
      py      :     0.070515
      dz2     :     0.003103  d :     0.027847
      dxz     :     0.000751
      dyz     :     0.008188
      dx2y2   :     0.007329
      dxy     :     0.008476
 28 H s       :     0.740641  s :     0.740641
      pz      :     0.072076  p :     0.250930
      px      :     0.076835
      py      :     0.102020
      dz2     :     0.010802  d :     0.060822
      dxz     :     0.006636
      dyz     :     0.015979
      dx2y2   :     0.012293
      dxy     :     0.015111
 29 H s       :     0.749183  s :     0.749183
      pz      :     0.112831  p :     0.252399
      px      :     0.091988
      py      :     0.047580
      dz2     :     0.021813  d :     0.061010
      dxz     :     0.016774
      dyz     :     0.011463
      dx2y2   :     0.005717
      dxy     :     0.005244
 30 H s       :     0.830895  s :     0.830895
      pz      :     0.036408  p :     0.151528
      px      :     0.053001
      py      :     0.062118
      dz2     :     0.002788  d :     0.029325
      dxz     :     0.004592
      dyz     :     0.005183
      dx2y2   :     0.008274
      dxy     :     0.008488
 31 H s       :     0.845538  s :     0.845538
      pz      :     0.046063  p :     0.157148
      px      :     0.052254
      py      :     0.058831
      dz2     :     0.004155  d :     0.027853
      dxz     :     0.003700
      dyz     :     0.006031
      dx2y2   :     0.007339
      dxy     :     0.006628
 32 H s       :     0.842040  s :     0.842040
      pz      :     0.047145  p :     0.153575
      px      :     0.037390
      py      :     0.069040
      dz2     :     0.004409  d :     0.026804
      dxz     :     0.001883
      dyz     :     0.007956
      dx2y2   :     0.006154
      dxy     :     0.006401
 33 H s       :     0.844679  s :     0.844679
      pz      :     0.066435  p :     0.158306
      px      :     0.057999
      py      :     0.033873
      dz2     :     0.008065  d :     0.027580
      dxz     :     0.007666
      dyz     :     0.005450
      dx2y2   :     0.003149
      dxy     :     0.003249
 34 H s       :     0.710709  s :     0.710709
      pz      :     0.160488  p :     0.352055
      px      :     0.086046
      py      :     0.105522
      dz2     :     0.032078  d :     0.098214
      dxz     :     0.022798
      dyz     :     0.025620
      dx2y2   :     0.009371
      dxy     :     0.008346
 35 H s       :     0.842970  s :     0.842970
      pz      :     0.050248  p :     0.155778
      px      :     0.036936
      py      :     0.068594
      dz2     :     0.005166  d :     0.027963
      dxz     :     0.002255
      dyz     :     0.007859
      dx2y2   :     0.006017
      dxy     :     0.006666


                      *****************************
                      * MAYER POPULATION ANALYSIS *
                      *****************************

  NA   - Mulliken gross atomic population
  ZA   - Total nuclear charge
  QA   - Mulliken gross atomic charge
  VA   - Mayer's total valence
  BVA  - Mayer's bonded valence
  FA   - Mayer's free valence

  ATOM       NA         ZA         QA         VA         BVA        FA
  0 C      6.2754     6.0000    -0.2754     3.8878     3.8878    -0.0000
  1 C      5.9651     6.0000     0.0349     3.8240     3.8240    -0.0000
  2 O      8.3607     8.0000    -0.3607     2.0642     2.0642    -0.0000
  3 C      5.5576     6.0000     0.4424     4.2652     4.2652     0.0000
  4 O      8.4262     8.0000    -0.4262     2.0789     2.0789     0.0000
  5 C      6.1912     6.0000    -0.1912     3.6293     3.6293     0.0000
  6 C      5.8656     6.0000     0.1344     3.8749     3.8749    -0.0000
  7 C      6.2687     6.0000    -0.2687     3.9011     3.9011     0.0000
  8 N      7.1176     7.0000    -0.1176     3.2954     3.2954     0.0000
  9 C      5.7993     6.0000     0.2007     4.1255     4.1255    -0.0000
 10 S     16.4376    16.0000    -0.4376     1.7138     1.7138     0.0000
 11 N      7.2135     7.0000    -0.2135     3.2483     3.2483    -0.0000
 12 C      5.9814     6.0000     0.0186     3.9585     3.9585    -0.0000
 13 C      5.9596     6.0000     0.0404     3.6956     3.6956     0.0000
 14 C      6.1249     6.0000    -0.1249     3.8365     3.8365     0.0000
 15 C      6.1532     6.0000    -0.1532     3.8121     3.8121     0.0000
 16 C      6.1958     6.0000    -0.1958     3.8202     3.8202    -0.0000
 17 C      5.7466     6.0000     0.2534     3.9050     3.9050    -0.0000
 18 O      8.3781     8.0000    -0.3781     2.0799     2.0799    -0.0000
 19 C      6.2777     6.0000    -0.2777     3.8471     3.8471     0.0000
 20 H      0.9057     1.0000     0.0943     0.9784     0.9784    -0.0000
 21 H      0.8974     1.0000     0.1026     0.9824     0.9824    -0.0000
 22 H      0.8954     1.0000     0.1046     0.9871     0.9871    -0.0000
 23 H      0.9048     1.0000     0.0952     0.9789     0.9789     0.0000
 24 H      0.8720     1.0000     0.1280     0.9840     0.9840    -0.0000
 25 H      0.8644     1.0000     0.1356     0.9802     0.9802    -0.0000
 26 H      0.8618     1.0000     0.1382     0.9764     0.9764    -0.0000
 27 H      0.9096     1.0000     0.0904     0.9887     0.9887     0.0000
 28 H      0.8073     1.0000     0.1927     1.0233     1.0233    -0.0000
 29 H      0.8022     1.0000     0.1978     1.0146     1.0146     0.0000
 30 H      0.8503     1.0000     0.1497     0.9897     0.9897    -0.0000
 31 H      0.8570     1.0000     0.1430     0.9884     0.9884     0.0000
 32 H      0.8318     1.0000     0.1682     0.9740     0.9740    -0.0000
 33 H      0.8399     1.0000     0.1601     0.9844     0.9844    -0.0000
 34 H      0.7550     1.0000     0.2450     1.0068     1.0068    -0.0000
 35 H      0.8498     1.0000     0.1502     0.9908     0.9908     0.0000

  Mayer bond orders larger than 0.100000
B(  0-C ,  1-C ) :   0.9651 B(  0-C , 20-H ) :   0.9744 B(  0-C , 21-H ) :   0.9772 
B(  0-C , 22-H ) :   0.9817 B(  1-C ,  2-O ) :   0.8669 B(  1-C , 23-H ) :   0.9802 
B(  1-C , 24-H ) :   0.9775 B(  2-O ,  3-C ) :   1.1933 B(  3-C ,  4-O ) :   1.9825 
B(  3-C ,  5-C ) :   1.0563 B(  5-C ,  6-C ) :   1.6596 B(  5-C , 12-C ) :   0.9649 
B(  6-C ,  7-C ) :   0.9702 B(  6-C ,  8-N ) :   1.1515 B(  7-C , 25-H ) :   0.9644 
B(  7-C , 26-H ) :   0.9548 B(  7-C , 27-H ) :   0.9883 B(  8-N ,  9-C ) :   1.1789 
B(  8-N , 28-H ) :   0.9526 B(  9-C , 10-S ) :   1.5720 B(  9-C , 11-N ) :   1.3072 
B( 11-N , 12-C ) :   0.9740 B( 11-N , 29-H ) :   0.9525 B( 12-C , 13-C ) :   0.9506 
B( 12-C , 30-H ) :   1.0054 B( 13-C , 14-C ) :   1.3585 B( 13-C , 19-C ) :   1.3514 
B( 14-C , 15-C ) :   1.3985 B( 14-C , 31-H ) :   0.9687 B( 15-C , 16-C ) :   1.3671 
B( 15-C , 32-H ) :   0.9677 B( 16-C , 17-C ) :   1.3793 B( 16-C , 33-H ) :   0.9671 
B( 17-C , 18-O ) :   1.0714 B( 17-C , 19-C ) :   1.3743 B( 18-O , 34-H ) :   0.9758 
B( 19-C , 35-H ) :   0.9627 

-------
TIMINGS
-------

Total SCF time: 0 days 2 hours 2 min 8 sec 

Total time                  ....    7328.608 sec
Sum of individual times     ....    7325.342 sec  (100.0%)

Fock matrix formation       ....    7312.007 sec  ( 99.8%)
Diagonalization             ....       1.548 sec  (  0.0%)
Density matrix formation    ....       0.202 sec  (  0.0%)
Population analysis         ....       0.191 sec  (  0.0%)
Initial guess               ....       6.500 sec  (  0.1%)
Orbital Transformation      ....       0.000 sec  (  0.0%)
Orbital Orthonormalization  ....       0.000 sec  (  0.0%)
DIIS solution               ....       1.398 sec  (  0.0%)
SOSCF solution              ....       1.798 sec  (  0.0%)

Maximum memory used throughout the entire SCF-calculation: 723.0 MB

------------------------------------------------------------------------------
                                ORCA  MP2 
------------------------------------------------------------------------------

Freezing NCore=48 chemical core electrons

-------------
RI-MP2 ENERGY
-------------
Dimension of the basis                    ...  828
Memory devoted to MP2                     ...  256 MB   
Data format for buffers                   ... DOUBLE
Compression type for matrix containers    ... UNCOMPRESSED
Overall scaling of the MP2 energy         ...   1.000e+00
Calculating two index integrals           ... done (    0.046 sec)
Cholesky decomposition of V**-1           ... done (    0.569 sec)

-----------------
RI-TRANSFORMATION (AUX index driven)
-----------------

Dimension of the orbital-basis         ... 828
Dimension of the aux-basis             ... 2141
Transformation of internal/external MOs...   24-  76 to   77- 827
Number Format for Storage              ... Double (8 Byte)
Integral mode                          ... Direct

First Phase: integral generation and transformation of MO indices
  Aux angular momentum 0               ... done (    5.280 sec)
  Aux angular momentum 1               ... done (    8.634 sec)
  Aux angular momentum 2               ... done (   11.291 sec)
  Aux angular momentum 3               ... done (    8.949 sec)
  Aux angular momentum 4               ... done (    3.094 sec)
Closing buffer VIA ( 0.63 GB; CompressionRatio= 1.00)
  Phase 1 completed in    37.415 sec
Second Phase: sorting and transformation of aux index

IA-Transformation
Memory available                       ... 158 MB 
Max. # MO pairs treated in a batch     ... 11    
# of internal orbitals                 ... 53
# batches for internal orbitals        ... 5
Closing buffer IAV ( 0.63 GB; CompressionRatio= 1.00)
(ia|v) transformation done in    20.256 sec

  Phase 2 completed in    20.264 sec
RI-Integral transformation completed in    57.684 sec
Opening buffers                              ... done

Starting loop over batches of integrals:

Operator 0  - window                       ... ( 24- 76)x( 77-827)
Operator 0  - Memory available             ...   256 MB
Operator 0  - Memory needed per MO         ...  12.3 MB
Operator 0  - Number of orbitals per batch ... 13
Operator 0  - Number of batches            ... 5

OPERATOR  0   PASS   0:  MOs    24 ...   36
  Reading integrals       ... ok
  Internal MO  26
  Internal MO  29
  Internal MO  32
  Internal MO  35
OPERATOR  0   PASS   1:  MOs    37 ...   49
  Reading integrals       ... ok
  Internal MO  38
  Internal MO  41
  Internal MO  44
  Internal MO  47
OPERATOR  0   PASS   2:  MOs    50 ...   62
  Reading integrals       ... ok
  Internal MO  50
  Internal MO  53
  Internal MO  56
  Internal MO  59
  Internal MO  62
OPERATOR  0   PASS   3:  MOs    63 ...   75
  Reading integrals       ... ok
  Internal MO  65
  Internal MO  68
  Internal MO  71
  Internal MO  74
OPERATOR  0   PASS   4:  MOs    76 ...   76
  Reading integrals       ... ok
Time spent in pair loops =    95.731 sec
Deleting buffer (Ka|jb)[aa] ...done

-----------------------------------------------
 RI-MP2 CORRELATION ENERGY:     -3.533955191 Eh
-----------------------------------------------


-------
TIMINGS
-------

Total time                :  154.132 sec
Integral trafo            :   57.704 sec ( 37.4%)
I/O of integrals          :    1.139 sec (  0.7%)
K(i,j) Operators          :   65.140 sec ( 42.3%)
T(i,j) pair energies      :    9.350 sec (  6.1%)
V-calculation             :    0.046 sec (  0.0%)
V**(-1/2)                 :    0.569 sec (  0.4%)
Gamma(ia|P)               :    0.000 sec (  0.0%)
Gamma-Trafo               :    0.000 sec (  0.0%)
D(virtual)                :    0.000 sec (  0.0%)
D(internal)               :    0.000 sec (  0.0%)
W(virtual)                :    0.000 sec (  0.0%)
W(internal)               :    0.000 sec (  0.0%)
L(virtual)                :    0.000 sec (  0.0%)
L(internal)               :    0.000 sec (  0.0%)
G(D)                      :    0.000 sec (  0.0%)
G(Z)                      :    0.000 sec (  0.0%)
Z-Vector Solution         :    0.000 sec (  0.0%)
3-Index Derivative        :    0.000 sec (  0.0%)
2-Index Derivative        :    0.000 sec (  0.0%)
Separable Gradient        :    0.000 sec (  0.0%)


---------------------------------------
MP2 TOTAL ENERGY:    -1274.315511057 Eh
---------------------------------------

Maximum memory used throughout the entire MP2-calculation: 303.4 MB

-------------------------   --------------------
FINAL SINGLE POINT ENERGY     -1274.315511056602
-------------------------   --------------------


                            ***************************************
                            *     ORCA property calculations      *
                            ***************************************


  WARNING: The energy has been calculated at the MP2 level but the densities
           used in the property calculations are still SCF densities
           MP2 response densities have not been calculated 
           use %mp2 Density relaxed end
           or  %mp2 Density unrelaxed end

                                    ---------------------
                                    Active property flags
                                    ---------------------
   (+) Dipole Moment


------------------------------------------------------------------------------
                       ORCA ELECTRIC PROPERTIES CALCULATION
------------------------------------------------------------------------------

Dipole Moment Calculation                       ... on
Quadrupole Moment Calculation                   ... off
Polarizability Calculation                      ... off
GBWName                                         ... qm_input.vacu.gbw
Electron density file                           ... qm_input.vacu.scfp
The origin for moment calculation is the CENTER OF MASS  = (-9.996738, -8.242178 -22.672315)

-------------
DIPOLE MOMENT
-------------
                                X             Y             Z
Electronic contribution:      4.71260     -14.90574      -4.59978
Nuclear contribution   :     -5.36615      16.50212       5.53155
                        -----------------------------------------
Total Dipole Moment    :     -0.65355       1.59638       0.93177
                        -----------------------------------------
Magnitude (a.u.)       :      1.96055
Magnitude (Debye)      :      4.98333



--------------------
Rotational spectrum 
--------------------
 
Rotational constants in cm-1:     0.010851     0.008729     0.005843 
Rotational constants in MHz :   325.311249   261.680433   175.173211 

 Dipole components along the rotational axes: 
x,y,z [a.u.] :    -1.621618     1.068860     0.267697 
x,y,z [Debye]:    -4.121826     2.716825     0.680431 

 

Timings for individual modules:

Sum of individual times         ...     7485.180 sec (= 124.753 min)
GTO integral calculation        ...        1.977 sec (=   0.033 min)   0.0 %
SCF iterations                  ...     7328.728 sec (= 122.145 min)  97.9 %
MP2 module                      ...      154.475 sec (=   2.575 min)   2.1 %
                             ****ORCA TERMINATED NORMALLY****
TOTAL RUN TIME: 0 days 2 hours 4 minutes 45 seconds 996 msec
