
                                        *****************
                                        * O   R   C   A *
                                        *****************

                                            #,                                       
                                            ###                                      
                                            ####                                     
                                            #####                                    
                                            ######                                   
                                           ########,                                 
                                     ,,################,,,,,                         
                               ,,#################################,,                 
                          ,,##########################################,,             
                       ,#########################################, ''#####,          
                    ,#############################################,,   '####,        
                  ,##################################################,,,,####,       
                ,###########''''           ''''###############################       
              ,#####''   ,,,,##########,,,,          '''####'''          '####       
            ,##' ,,,,###########################,,,                        '##       
           ' ,,###''''                  '''############,,,                           
         ,,##''                                '''############,,,,        ,,,,,,###''
      ,#''                                            '''#######################'''  
     '                                                          ''''####''''         
             ,#######,   #######,   ,#######,      ##                                
            ,#'     '#,  ##    ##  ,#'     '#,    #''#        ######   ,####,        
            ##       ##  ##   ,#'  ##            #'  '#       #        #'  '#        
            ##       ##  #######   ##           ,######,      #####,   #    #        
            '#,     ,#'  ##    ##  '#,     ,#' ,#      #,         ##   #,  ,#        
             '#######'   ##     ##  '#######'  #'      '#     #####' # '####'        



                  #######################################################
                  #                        -***-                        #
                  #          Department of theory and spectroscopy      #
                  #    Directorship and core code : Frank Neese         #
                  #        Max Planck Institute fuer Kohlenforschung    #
                  #                Kaiser Wilhelm Platz 1               #
                  #                 D-45470 Muelheim/Ruhr               #
                  #                      Germany                        #
                  #                                                     #
                  #                  All rights reserved                #
                  #                        -***-                        #
                  #######################################################


                         Program Version 5.0.0 -  RELEASE  -
                                (SVN: $Rev: 19529$)
                ($Date: 2021-06-28 11:36:33 +0200 (Mo, 28 Jun 2021) $)


 With contributions from (in alphabetic order):
   Daniel Aravena         : Magnetic Suceptibility
   Michael Atanasov       : Ab Initio Ligand Field Theory (pilot matlab implementation)
   Alexander A. Auer      : GIAO ZORA, VPT2 properties, NMR spectrum
   Ute Becker             : Parallelization
   Giovanni Bistoni       : ED, misc. LED, open-shell LED, HFLD
   Martin Brehm           : Molecular dynamics
   Dmytro Bykov           : SCF Hessian
   Vijay G. Chilkuri      : MRCI spin determinant printing, contributions to CSF-ICE
   Dipayan Datta          : RHF DLPNO-CCSD density
   Achintya Kumar Dutta   : EOM-CC, STEOM-CC
   Dmitry Ganyushin       : Spin-Orbit,Spin-Spin,Magnetic field MRCI
   Miquel Garcia          : C-PCM Hessian, Gaussian charge scheme
   Yang Guo               : DLPNO-NEVPT2, F12-NEVPT2, CIM, IAO-localization
   Andreas Hansen         : Spin unrestricted coupled pair/coupled cluster methods
   Benjamin Helmich-Paris : MC-RPA, TRAH-SCF, COSX integrals
   Lee Huntington         : MR-EOM, pCC
   Robert Izsak           : Overlap fitted RIJCOSX, COSX-SCS-MP3, EOM
   Marcus Kettner         : VPT2
   Christian Kollmar      : KDIIS, OOCD, Brueckner-CCSD(T), CCSD density, CASPT2, CASPT2-K
   Simone Kossmann        : Meta GGA functionals, TD-DFT gradient, OOMP2, MP2 Hessian
   Martin Krupicka        : Initial AUTO-CI
   Lucas Lang             : DCDCAS
   Marvin Lechner         : AUTO-CI (C++ implementation), FIC-MRCC
   Dagmar Lenk            : GEPOL surface, SMD
   Dimitrios Liakos       : Extrapolation schemes; Compound Job, initial MDCI parallelization
   Dimitrios Manganas     : Further ROCIS development; embedding schemes
   Dimitrios Pantazis     : SARC Basis sets
   Anastasios Papadopoulos: AUTO-CI, single reference methods and gradients
   Taras Petrenko         : DFT Hessian,TD-DFT gradient, ASA, ECA, R-Raman, ABS, FL, XAS/XES, NRVS
   Peter Pinski           : DLPNO-MP2, DLPNO-MP2 Gradient
   Christoph Reimann      : Effective Core Potentials
   Marius Retegan         : Local ZFS, SOC
   Christoph Riplinger    : Optimizer, TS searches, QM/MM, DLPNO-CCSD(T), (RO)-DLPNO pert. Triples
   Tobias Risthaus        : Range-separated hybrids, TD-DFT gradient, RPA, STAB
   Michael Roemelt        : Original ROCIS implementation
   Masaaki Saitow         : Open-shell DLPNO-CCSD energy and density
   Barbara Sandhoefer     : DKH picture change effects
   Avijit Sen             : IP-ROCIS
   Kantharuban Sivalingam : CASSCF convergence, NEVPT2, FIC-MRCI
   Bernardo de Souza      : ESD, SOC TD-DFT
   Georgi Stoychev        : AutoAux, RI-MP2 NMR
   Willem Van den Heuvel  : Paramagnetic NMR
   Boris Wezisla          : Elementary symmetry handling
   Frank Wennmohs         : Technical directorship


 We gratefully acknowledge several colleagues who have allowed us to
 interface, adapt or use parts of their codes:
   Stefan Grimme, W. Hujo, H. Kruse, P. Pracht,  : VdW corrections, initial TS optimization,
                  C. Bannwarth, S. Ehlert          DFT functionals, gCP, sTDA/sTD-DF
   Ed Valeev, F. Pavosevic, A. Kumar             : LibInt (2-el integral package), F12 methods
   Garnet Chan, S. Sharma, J. Yang, R. Olivares  : DMRG
   Ulf Ekstrom                                   : XCFun DFT Library
   Mihaly Kallay                                 : mrcc  (arbitrary order and MRCC methods)
   Jiri Pittner, Ondrej Demel                    : Mk-CCSD
   Frank Weinhold                                : gennbo (NPA and NBO analysis)
   Christopher J. Cramer and Donald G. Truhlar   : smd solvation model
   Lars Goerigk                                  : TD-DFT with DH, B97 family of functionals
   V. Asgeirsson, H. Jonsson                     : NEB implementation
   FAccTs GmbH                                   : IRC, NEB, NEB-TS, DLPNO-Multilevel, CI-OPT
                                                   MM, QMMM, 2- and 3-layer-ONIOM, Crystal-QMMM,
                                                   LR-CPCM, SF, NACMEs, symmetry and pop. for TD-DFT,
                                                   nearIR, NL-DFT gradient (VV10), updates on ESD,
                                                   ML-optimized integration grids
   S Lehtola, MJT Oliveira, MAL Marques          : LibXC Library
   Liviu Ungur et al                             : ANISO software


 Your calculation uses the libint2 library for the computation of 2-el integrals
 For citations please refer to: http://libint.valeyev.net

 Your ORCA version has been built with support for libXC version: 5.1.0
 For citations please refer to: https://tddft.org/programs/libxc/

 This ORCA versions uses:
   CBLAS   interface :  Fast vector & matrix operations
   LAPACKE interface :  Fast linear algebra routines
   SCALAPACK package :  Parallel linear algebra routines
   Shared memory     :  Shared parallel matrices
   BLAS/LAPACK       :  OpenBLAS 0.3.15  USE64BITINT DYNAMIC_ARCH NO_AFFINITY SkylakeX SINGLE_THREADED
        Core in use  :  SkylakeX
   Copyright (c) 2011-2014, The OpenBLAS Project


================================================================================

----- Orbital basis set information -----
Your calculation utilizes the basis: cc-pVTZ 
       H, B-Ne : Obtained from the ccRepo (grant-hill.group.shef.ac.uk/ccrepo) Feb. 2017
                 T. H. Dunning, Jr., J. Chem. Phys. 90, 1007 (1989)
            He : Obtained from the ccRepo (grant-hill.group.shef.ac.uk/ccrepo) Feb. 2017
                 D. E. Woon, T. H. Dunning, Jr., J. Chem. Phys. 100, 2975 (1994)
  Li-Be, Na-Mg : Obtained from the ccRepo (grant-hill.group.shef.ac.uk/ccrepo) Feb. 2017
                 B. P. Prascher, D. E. Woon, K. A. Peterson, T. H. Dunning, Jr., A. K. Wilson, Theor. Chem. Acc. 128, 69 (2011)
         Al-Ar : Obtained from the ccRepo (grant-hill.group.shef.ac.uk/ccrepo) Feb. 2017
                 D. E. Woon, T. H. Dunning, Jr., J. Chem. Phys. 98, 1358 (1993)
            Ca : Obtained from the Peterson Research Group Website (tyr0.chem.wsu.edu/~kipeters) Feb. 2017
                 J. Koput, K. A. Peterson, J. Phys. Chem. 106, 9595 (2002)
         Sc-Zn : Obtained from the ccRepo (grant-hill.group.shef.ac.uk/ccrepo) Feb. 2017
                 N. B. Balabanov, K. A. Peterson, J. Chem. Phys. 123, 064107 (2005)
                 N. B. Balabanov, K. A. Peterson, J. Chem. Phys. 125, 074110 (2006)
         Ga-Kr : Obtained from the ccRepo (grant-hill.group.shef.ac.uk/ccrepo) Feb. 2017
                 A. K. Wilson, D. E. Woon, K. A. Peterson, T. H. Dunning, Jr., J. Chem. Phys. 110, 7667 (1999)
             Y : Obtained from the ccRepo (grant-hill.group.shef.ac.uk/ccrepo) Feb. 2017
                 K. A. Peterson, D. Figgen, M. Dolg, H. Stoll, J. Chem. Phys. 126, 124101 (2007)
        Ag, Au : Obtained from the Peterson Research Group Website (tyr0.chem.wsu.edu/~kipeters) Feb. 2017
                 K. A. Peterson, C. Puzzarini, Theor. Chem. Acc. 114, 283 (2005)

----- AuxC basis set information -----
Your calculation utilizes the auxiliary basis: cc-pVTZ/C 
  Obtained from the EMSL Basis Set Exchange (bse.pnl.gov) Feb. 2017
  H-He, B-F, Al-Ar, Ga-Kr : F. Weigend, A. Kohn, C. Hattig, J. Chem. Phys. 116, 3175 (2002)
             Li-Be, Na-Mg : C. Haettig, Phys. Chem. Chem. Phys. 7, 59 (2005)
                       Ne : C. Haettig, Phys. Chem. Chem. Phys. 7, 59 (2005)
                            F. Weigend, A. Kohn, C. Hattig, J. Chem. Phys. 116, 3175 (2002)
                    Sc-Zn : J. G. Hill, J. A. Platts, J. Chem. Phys. 128, 044104 (2008)

================================================================================
                                        WARNINGS
                       Please study these warnings very carefully!
================================================================================


WARNING: No MP2 level density has been requested!
         To caclulate MP2 level properties use
         %mp2 Density relaxed end
         or
         %mp2 Density unrelaxed end

WARNING: Post HF methods need fully converged wavefunctions
  ===> : Setting SCFConvForced true
         You can overwrite this default with %scf ConvForced false 


INFO   : the flag for use of the SHARK integral package has been found!

================================================================================
                                       INPUT FILE
================================================================================
NAME = qm_input.solv
|  1> ! RI-MP2 cc-pVTZ cc-pVTZ/c TightSCF KeepDens NoKeepInts
|  2> 
|  3> %pointcharges "srfp_output"
|  4> 
|  5> *xyz  0  1
|  6>     C    -6.8818067    1.8166553    2.9756631
|  7>     C    -7.0735817    3.2354372    2.4707209
|  8>     O    -6.7899152    3.2709077    1.0774351
|  9>     C    -6.4123215    4.4862342    0.5608086
| 10>     O    -6.6969578    5.5850895    1.1131205
| 11>     C    -5.8733003    4.4532466   -0.8727088
| 12>     C    -5.2745172    5.5050585   -1.4073619
| 13>     C    -4.8862461    6.8116606   -0.8988065
| 14>     N    -4.7936132    5.3705742   -2.7528544
| 15>     C    -4.8106328    4.2248323   -3.4554428
| 16>     S    -4.2753549    4.1851910   -5.0291058
| 17>     N    -5.2421856    3.1198673   -2.8204690
| 18>     C    -5.9739543    3.0684755   -1.5539342
| 19>     C    -5.2787938    1.9609974   -0.7379917
| 20>     C    -5.7848755    0.6400349   -0.7181281
| 21>     C    -5.1074529   -0.3618166   -0.0828425
| 22>     C    -4.0027877   -0.0426036    0.7221745
| 23>     C    -3.5117521    1.2884412    0.7214507
| 24>     O    -2.5757419    1.6838333    1.6317316
| 25>     C    -4.1496039    2.3047136    0.0671121
| 26>     H    -5.8952926    1.3796060    2.7782550
| 27>     H    -7.7168892    1.2061944    2.6107462
| 28>     H    -7.0119902    1.8345879    4.0646668
| 29>     H    -8.0698179    3.6312574    2.7031553
| 30>     H    -6.2953505    3.8726697    2.9083058
| 31>     H    -4.0859475    7.2489691   -1.5082960
| 32>     H    -4.5820568    6.9199211    0.1494961
| 33>     H    -5.8007722    7.4144969   -0.9572879
| 34>     H    -4.3680913    6.1341926   -3.2645032
| 35>     H    -5.3315439    2.2684661   -3.3618540
| 36>     H    -7.0380379    2.8704904   -1.7320283
| 37>     H    -6.6633550    0.4043346   -1.3115233
| 38>     H    -5.4678073   -1.3861614   -0.0989718
| 39>     H    -3.5632526   -0.7645005    1.4041353
| 40>     H    -2.6388693    1.1260594    2.4264851
| 41>     H    -3.7695268    3.3175377   -0.0284134
| 42> *
| 43> 
| 44>                          ****END OF INPUT****
================================================================================

                       ****************************
                       * Single Point Calculation *
                       ****************************

---------------------------------
CARTESIAN COORDINATES (ANGSTROEM)
---------------------------------
  C     -6.881807    1.816655    2.975663
  C     -7.073582    3.235437    2.470721
  O     -6.789915    3.270908    1.077435
  C     -6.412322    4.486234    0.560809
  O     -6.696958    5.585089    1.113120
  C     -5.873300    4.453247   -0.872709
  C     -5.274517    5.505058   -1.407362
  C     -4.886246    6.811661   -0.898806
  N     -4.793613    5.370574   -2.752854
  C     -4.810633    4.224832   -3.455443
  S     -4.275355    4.185191   -5.029106
  N     -5.242186    3.119867   -2.820469
  C     -5.973954    3.068475   -1.553934
  C     -5.278794    1.960997   -0.737992
  C     -5.784876    0.640035   -0.718128
  C     -5.107453   -0.361817   -0.082842
  C     -4.002788   -0.042604    0.722175
  C     -3.511752    1.288441    0.721451
  O     -2.575742    1.683833    1.631732
  C     -4.149604    2.304714    0.067112
  H     -5.895293    1.379606    2.778255
  H     -7.716889    1.206194    2.610746
  H     -7.011990    1.834588    4.064667
  H     -8.069818    3.631257    2.703155
  H     -6.295350    3.872670    2.908306
  H     -4.085947    7.248969   -1.508296
  H     -4.582057    6.919921    0.149496
  H     -5.800772    7.414497   -0.957288
  H     -4.368091    6.134193   -3.264503
  H     -5.331544    2.268466   -3.361854
  H     -7.038038    2.870490   -1.732028
  H     -6.663355    0.404335   -1.311523
  H     -5.467807   -1.386161   -0.098972
  H     -3.563253   -0.764501    1.404135
  H     -2.638869    1.126059    2.426485
  H     -3.769527    3.317538   -0.028413

----------------------------
CARTESIAN COORDINATES (A.U.)
----------------------------
  NO LB      ZA    FRAG     MASS         X           Y           Z
   0 C     6.0000    0    12.011  -13.004730    3.432981    5.623188
   1 C     6.0000    0    12.011  -13.367132    6.114090    4.668986
   2 O     8.0000    0    15.999  -12.831080    6.181120    2.036057
   3 C     6.0000    0    12.011  -12.117532    8.477754    1.059775
   4 O     8.0000    0    15.999  -12.655416   10.554290    2.103493
   5 C     6.0000    0    12.011  -11.098929    8.415416   -1.649181
   6 C     6.0000    0    12.011   -9.967393   10.403053   -2.659529
   7 C     6.0000    0    12.011   -9.233667   12.872173   -1.698498
   8 N     7.0000    0    14.007   -9.058616   10.148914   -5.202141
   9 C     6.0000    0    12.011   -9.090779    7.983776   -6.529841
  10 S    16.0000    0    32.060   -8.079250    7.908865   -9.503633
  11 N     7.0000    0    14.007   -9.906295    5.895695   -5.329914
  12 C     6.0000    0    12.011  -11.289138    5.798578   -2.936510
  13 C     6.0000    0    12.011   -9.975475    3.705748   -1.394602
  14 C     6.0000    0    12.011  -10.931830    1.209491   -1.357065
  15 C     6.0000    0    12.011   -9.651687   -0.683734   -0.156550
  16 C     6.0000    0    12.011   -7.564173   -0.080509    1.364712
  17 C     6.0000    0    12.011   -6.636250    2.434801    1.363344
  18 O     8.0000    0    15.999   -4.867447    3.181984    3.083526
  19 C     6.0000    0    12.011   -7.841615    4.355278    0.126823
  20 H     1.0000    0     1.008  -11.140488    2.607078    5.250141
  21 H     1.0000    0     1.008  -14.582807    2.279377    4.933595
  22 H     1.0000    0     1.008  -13.250741    3.466869    7.681107
  23 H     1.0000    0     1.008  -15.249746    6.862082    5.108223
  24 H     1.0000    0     1.008  -11.896488    7.318285    5.495901
  25 H     1.0000    0     1.008   -7.721322   13.698566   -2.850266
  26 H     1.0000    0     1.008   -8.658832   13.076756    0.282507
  27 H     1.0000    0     1.008  -10.961871   14.011369   -1.809012
  28 H     1.0000    0     1.008   -8.254496   11.591944   -6.169017
  29 H     1.0000    0     1.008  -10.075158    4.286780   -6.352983
  30 H     1.0000    0     1.008  -13.299964    5.424441   -3.273059
  31 H     1.0000    0     1.008  -12.591916    0.764082   -2.478420
  32 H     1.0000    0     1.008  -10.332658   -2.619465   -0.187030
  33 H     1.0000    0     1.008   -6.733572   -1.444697    2.653431
  34 H     1.0000    0     1.008   -4.986740    2.127944    4.585392
  35 H     1.0000    0     1.008   -7.123373    6.269238   -0.053694

--------------------------------
INTERNAL COORDINATES (ANGSTROEM)
--------------------------------
 C      0   0   0     0.000000000000     0.00000000     0.00000000
 C      1   0   0     1.518119348317     0.00000000     0.00000000
 O      2   1   0     1.422311555207   108.90108082     0.00000000
 C      3   2   1     1.373498614628   116.44628858   204.13066579
 O      4   3   2     1.262358597427   122.93426003   337.44517893
 C      4   3   2     1.531862974259   115.44670035   169.51316207
 C      6   4   3     1.323141493253   121.34950834   191.28370025
 C      7   6   4     1.454851225964   133.90448545     4.60444946
 N      7   6   4     1.435167151143   117.12810850   179.45936455
 C      9   7   6     1.344114812066   124.45001351   354.14104676
 S     10   9   7     1.662681298524   120.72883349   177.93869852
 N     10   9   7     1.345502581603   117.21988425   356.22031682
 C     12  10   9     1.463638256885   126.69560292    14.79349596
 C     13  12  10     1.541271561421   104.94157085   225.68741925
 C     14  13  12     1.414727951263   121.13210503   263.71904521
 C     15  14  13     1.366087698726   120.92434428   174.66568657
 C     16  15  14     1.403650424340   119.35282492     9.37505287
 C     17  16  15     1.418730680560   119.04222295   352.00504516
 O     18  17  16     1.364207214521   120.60067449   170.16470798
 C     18  17  16     1.366683399041   122.43589274     6.47898833
 H      1   2   3     1.096901143255   115.22158522    55.58237614
 H      1   2   3     1.096900011916   108.25770788   286.93200322
 H      1   2   3     1.096903997818   107.45421923   174.68418902
 H      2   1   3     1.096898330394   112.42615742   125.13490537
 H      2   1   3     1.096899997455   108.70002776   247.79574713
 H      8   7   6     1.096902012007   111.01029913   157.85825621
 H      8   7   6     1.096900089918   119.78333035    32.62253321
 H      8   7   6     1.096900025675   104.62163742   277.74329954
 H      9   7   6     1.012900016161   122.93558221   176.56493990
 H     12  10   9     1.012900107299   117.79745736   175.04204075
 H     13  12  10     1.096899957182   110.53924525   103.32820056
 H     15  14  13     1.086001255397   118.96960205     1.63326542
 H     16  15  14     1.086000790610   121.35146215   182.62774355
 H     17  16  15     1.086000355018   121.83615649   167.04697669
 H     19  18  17     0.973000471693   109.53366070   334.29173971
 H     20  18  17     1.086000175247   124.90889170   185.26083204

---------------------------
INTERNAL COORDINATES (A.U.)
---------------------------
 C      0   0   0     0.000000000000     0.00000000     0.00000000
 C      1   0   0     2.868829806926     0.00000000     0.00000000
 O      2   1   0     2.687779316452   108.90108082     0.00000000
 C      3   2   1     2.595536226967   116.44628858   204.13066579
 O      4   3   2     2.385512031938   122.93426003   337.44517893
 C      4   3   2     2.894801496044   115.44670035   169.51316207
 C      6   4   3     2.500375058675   121.34950834   191.28370025
 C      7   6   4     2.749270382671   133.90448545     4.60444946
 N      7   6   4     2.712072872059   117.12810850   179.45936455
 C      9   7   6     2.540008887351   124.45001351   354.14104676
 S     10   9   7     3.142012302204   120.72883349   177.93869852
 N     10   9   7     2.542631391713   117.21988425   356.22031682
 C     12  10   9     2.765875464643   126.69560292    14.79349596
 C     13  12  10     2.912581149087   104.94157085   225.68741925
 C     14  13  12     2.673448381891   121.13210503   263.71904521
 C     15  14  13     2.581531625511   120.92434428   174.66568657
 C     16  15  14     2.652514889764   119.35282492     9.37505287
 C     17  16  15     2.681012444049   119.04222295   352.00504516
 O     18  17  16     2.577978025364   120.60067449   170.16470798
 C     18  17  16     2.582657335965   122.43589274     6.47898833
 H      1   2   3     2.072842756738   115.22158522    55.58237614
 H      1   2   3     2.072840618816   108.25770788   286.93200322
 H      1   2   3     2.072848151079   107.45421923   174.68418902
 H      2   1   3     2.072837441201   112.42615742   125.13490537
 H      2   1   3     2.072840591490   108.70002776   247.79574713
 H      8   7   6     2.072844398440   111.01029913   157.85825621
 H      8   7   6     2.072840766218   119.78333035    32.62253321
 H      8   7   6     2.072840644816   104.62163742   277.74329954
 H      9   7   6     1.914103631589   122.93558221   176.56493990
 H     12  10   9     1.914103803814   117.79745736   175.04204075
 H     13  12  10     2.072840515384   110.53924525   103.32820056
 H     15  14  13     2.052244953795   118.96960205     1.63326542
 H     16  15  14     2.052244075474   121.35146215   182.62774355
 H     17  16  15     2.052243252324   121.83615649   167.04697669
 H     19  18  17     1.838704419675   109.53366070   334.29173971
 H     20  18  17     2.052242912606   124.90889170   185.26083204

---------------------
BASIS SET INFORMATION
---------------------
There are 5 groups of distinct atoms

 Group   1 Type C   : 18s5p2d1f contracted to 4s3p2d1f pattern {8811/311/11/1}
 Group   2 Type O   : 18s5p2d1f contracted to 4s3p2d1f pattern {8811/311/11/1}
 Group   3 Type N   : 18s5p2d1f contracted to 4s3p2d1f pattern {8811/311/11/1}
 Group   4 Type S   : 41s16p2d1f contracted to 5s4p2d1f pattern {13131311/7711/11/1}
 Group   5 Type H   : 5s2p1d contracted to 3s2p1d pattern {311/11/1}

Atom   0C    basis set group =>   1
Atom   1C    basis set group =>   1
Atom   2O    basis set group =>   2
Atom   3C    basis set group =>   1
Atom   4O    basis set group =>   2
Atom   5C    basis set group =>   1
Atom   6C    basis set group =>   1
Atom   7C    basis set group =>   1
Atom   8N    basis set group =>   3
Atom   9C    basis set group =>   1
Atom  10S    basis set group =>   4
Atom  11N    basis set group =>   3
Atom  12C    basis set group =>   1
Atom  13C    basis set group =>   1
Atom  14C    basis set group =>   1
Atom  15C    basis set group =>   1
Atom  16C    basis set group =>   1
Atom  17C    basis set group =>   1
Atom  18O    basis set group =>   2
Atom  19C    basis set group =>   1
Atom  20H    basis set group =>   5
Atom  21H    basis set group =>   5
Atom  22H    basis set group =>   5
Atom  23H    basis set group =>   5
Atom  24H    basis set group =>   5
Atom  25H    basis set group =>   5
Atom  26H    basis set group =>   5
Atom  27H    basis set group =>   5
Atom  28H    basis set group =>   5
Atom  29H    basis set group =>   5
Atom  30H    basis set group =>   5
Atom  31H    basis set group =>   5
Atom  32H    basis set group =>   5
Atom  33H    basis set group =>   5
Atom  34H    basis set group =>   5
Atom  35H    basis set group =>   5
---------------------------------
AUXILIARY/C BASIS SET INFORMATION
---------------------------------
There are 5 groups of distinct atoms

 Group   1 Type C   : 8s6p5d3f1g contracted to 8s6p5d3f1g pattern {11111111/111111/11111/111/1}
 Group   2 Type O   : 8s6p5d3f1g contracted to 8s6p5d3f1g pattern {11111111/111111/11111/111/1}
 Group   3 Type N   : 8s6p5d3f1g contracted to 8s6p5d3f1g pattern {11111111/111111/11111/111/1}
 Group   4 Type S   : 10s8p7d5f2g contracted to 10s8p7d5f2g pattern {1111111111/11111111/1111111/11111/11}
 Group   5 Type H   : 4s3p2d1f contracted to 4s3p2d1f pattern {1111/111/11/1}

Atom   0C    basis set group =>   1
Atom   1C    basis set group =>   1
Atom   2O    basis set group =>   2
Atom   3C    basis set group =>   1
Atom   4O    basis set group =>   2
Atom   5C    basis set group =>   1
Atom   6C    basis set group =>   1
Atom   7C    basis set group =>   1
Atom   8N    basis set group =>   3
Atom   9C    basis set group =>   1
Atom  10S    basis set group =>   4
Atom  11N    basis set group =>   3
Atom  12C    basis set group =>   1
Atom  13C    basis set group =>   1
Atom  14C    basis set group =>   1
Atom  15C    basis set group =>   1
Atom  16C    basis set group =>   1
Atom  17C    basis set group =>   1
Atom  18O    basis set group =>   2
Atom  19C    basis set group =>   1
Atom  20H    basis set group =>   5
Atom  21H    basis set group =>   5
Atom  22H    basis set group =>   5
Atom  23H    basis set group =>   5
Atom  24H    basis set group =>   5
Atom  25H    basis set group =>   5
Atom  26H    basis set group =>   5
Atom  27H    basis set group =>   5
Atom  28H    basis set group =>   5
Atom  29H    basis set group =>   5
Atom  30H    basis set group =>   5
Atom  31H    basis set group =>   5
Atom  32H    basis set group =>   5
Atom  33H    basis set group =>   5
Atom  34H    basis set group =>   5
Atom  35H    basis set group =>   5
------------------------------------------------------------------------------
                           ORCA GTO INTEGRAL CALCULATION
------------------------------------------------------------------------------
------------------------------------------------------------------------------
                   ___                                                        
                  /   \      - P O W E R E D   B Y -                         
                 /     \                                                     
                 |  |  |   _    _      __       _____    __    __             
                 |  |  |  | |  | |    /  \     |  _  \  |  |  /  |          
                  \  \/   | |  | |   /    \    | | | |  |  | /  /          
                 / \  \   | |__| |  /  /\  \   | |_| |  |  |/  /          
                |  |  |   |  __  | /  /__\  \  |    /   |      \           
                |  |  |   | |  | | |   __   |  |    \   |  |\   \          
                \     /   | |  | | |  |  |  |  | |\  \  |  | \   \       
                 \___/    |_|  |_| |__|  |__|  |_| \__\ |__|  \__/        
                                                                              
                      - O R C A' S   B I G   F R I E N D -                    
                                      &                                       
                       - I N T E G R A L  F E E D E R -                       
                                                                              
 v1 FN, 2020, v2 2021                                                         
------------------------------------------------------------------------------


Reading SHARK input file qm_input.solv.SHARKINP.tmp ... ok
----------------------
SHARK INTEGRAL PACKAGE
----------------------

Number of atoms                             ...     36
Number of basis functions                   ...    828
Number of shells                            ...    298
Maximum angular momentum                    ...      3
Integral batch strategy                     ... SHARK/LIBINT Hybrid
RI-J (if used) integral strategy            ... SPLIT-RIJ (Revised 2003 algorithm where possible)
Printlevel                                  ...      1
Contraction scheme used                     ... SEGMENTED contraction
Coulomb Range Separation                    ... NOT USED
Exchange Range Separation                   ... NOT USED
Finite Nucleus Model                        ... NOT USED
Auxiliary Coulomb fitting basis             ... NOT available
Auxiliary J/K fitting basis                 ... NOT available
Auxiliary Correlation fitting basis         ... AVAILABLE
   # of basis functions in Aux-C            ...   2141
   # of shells in Aux-C                     ...    629
   Maximum angular momentum in Aux-C        ...      4
Auxiliary 'external' fitting basis          ... NOT available
Integral threshold                          ...     2.500000e-11
Primitive cut-off                           ...     2.500000e-12
Primitive pair pre-selection threshold      ...     2.500000e-12

Calculating pre-screening integrals         ... done (  0.6 sec) Dimension = 298
Organizing shell pair data                  ... done (  0.4 sec)
Shell pair information
Total number of shell pairs                 ...     44551
Shell pairs after pre-screening             ...     33869
Total number of primitive shell pairs       ...    234348
Primitive shell pairs kept                  ...     97289
          la=0 lb=0:   6764 shell pairs
          la=1 lb=0:   9396 shell pairs
          la=1 lb=1:   3327 shell pairs
          la=2 lb=0:   5410 shell pairs
          la=2 lb=1:   3709 shell pairs
          la=2 lb=2:   1049 shell pairs
          la=3 lb=0:   1955 shell pairs
          la=3 lb=1:   1345 shell pairs
          la=3 lb=2:    760 shell pairs
          la=3 lb=3:    154 shell pairs

Reading point charge file                   ... ok (42091 point charges)
Calculating one electron integrals          ... done (226.1 sec)
Calculating RI/C V-Matrix + Cholesky decomp.... done (  0.3 sec)
Calculating Nuclear repulsion               ... (+Point charges) done (  0.0 sec) ENN=   2149.116212489333 Eh

SHARK setup successfully completed in 227.6 seconds

Maximum memory used throughout the entire GTOINT-calculation: 503.5 MB
ENUC WAS=  0.000000000
ENUC IS =  0.000000000
-------------------------------------------------------------------------------
                                 ORCA SCF
-------------------------------------------------------------------------------

------------
SCF SETTINGS
------------
Hamiltonian:
 Ab initio Hamiltonian  Method          .... Hartree-Fock(GTOs)


General Settings:
 Integral files         IntName         .... qm_input.solv
 Hartree-Fock type      HFTyp           .... RHF
 Total Charge           Charge          ....    0
 Multiplicity           Mult            ....    1
 Number of Electrons    NEL             ....  154
 Basis Dimension        Dim             ....  828
 Nuclear Repulsion      ENuc            ....   2149.1162124893 Eh

Convergence Acceleration:
 DIIS                   CNVDIIS         .... on
   Start iteration      DIISMaxIt       ....    12
   Startup error        DIISStart       ....  0.200000
   # of expansion vecs  DIISMaxEq       ....     5
   Bias factor          DIISBfac        ....   1.050
   Max. coefficient     DIISMaxC        ....  10.000
 Trust-Rad. Augm. Hess. CNVTRAH         .... auto
   Auto Start mean grad. ratio tolernc. ....  1.125000
   Auto Start start iteration           ....    20
   Auto Start num. interpolation iter.  ....    10
   Max. Number of Micro iterations      ....    16
   Max. Number of Macro iterations      .... Maxiter - #DIIS iter
   Number of Davidson start vectors     ....     2
   Converg. threshold I  (grad. norm)   ....   1.000e-05
   Converg. threshold II (energy diff.) ....   1.000e-08
   Grad. Scal. Fac. for Micro threshold ....   0.100
   Minimum threshold for Micro iter.    ....   0.010
   NR start threshold (gradient norm)   ....   0.001
   Initial trust radius                 ....   0.400
   Minimum AH scaling param. (alpha)    ....   1.000
   Maximum AH scaling param. (alpha)    .... 1000.000
   Orbital update algorithm             .... Taylor
   White noise on init. David. guess    .... on
   Maximum white noise                  ....   0.010
   Quad. conv. algorithm                .... NR
 SOSCF                  CNVSOSCF        .... on
   Start iteration      SOSCFMaxIt      ....   150
   Startup grad/error   SOSCFStart      ....  0.003300
 Level Shifting         CNVShift        .... on
   Level shift para.    LevelShift      ....    0.2500
   Turn off err/grad.   ShiftErr        ....    0.0010
 Zerner damping         CNVZerner       .... off
 Static damping         CNVDamp         .... on
   Fraction old density DampFac         ....    0.7000
   Max. Damping (<1)    DampMax         ....    0.9800
   Min. Damping (>=0)   DampMin         ....    0.0000
   Turn off err/grad.   DampErr         ....    0.1000
 Fernandez-Rico         CNVRico         .... off

SCF Procedure:
 Maximum # iterations   MaxIter         ....   125
 SCF integral mode      SCFMode         .... Direct
   Integral package                     .... SHARK and LIBINT hybrid scheme
 Reset frequency        DirectResetFreq ....    20
 Integral Threshold     Thresh          ....  2.500e-11 Eh
 Primitive CutOff       TCut            ....  2.500e-12 Eh

Convergence Tolerance:
 Convergence Check Mode ConvCheckMode   .... Total+1el-Energy
 Convergence forced     ConvForced      .... 1
 Energy Change          TolE            ....  1.000e-08 Eh
 1-El. energy change                    ....  1.000e-05 Eh
 Orbital Gradient       TolG            ....  1.000e-05
 Orbital Rotation angle TolX            ....  1.000e-05
 DIIS Error             TolErr          ....  5.000e-07


Diagonalization of the overlap matrix:
Smallest eigenvalue                        ... 4.334e-05
Time for diagonalization                   ...    0.137 sec
Threshold for overlap eigenvalues          ... 1.000e-08
Number of eigenvalues below threshold      ... 0
Time for construction of square roots      ...    0.072 sec
Total time needed                          ...    0.211 sec

Time for model grid setup =    1.433 sec

------------------------------
INITIAL GUESS: MODEL POTENTIAL
------------------------------
Loading Hartree-Fock densities                     ... done
Calculating cut-offs                               ... done
Initializing the effective Hamiltonian             ... done
Setting up the integral package (SHARK)            ... done
Starting the Coulomb interaction                   ... done (   4.6 sec)
Reading the grid                                   ... done
Mapping shells                                     ... done
Starting the XC term evaluation                    ... done (   1.5 sec)
Transforming the Hamiltonian                       ... done (   0.1 sec)
Diagonalizing the Hamiltonian                      ... done (   0.1 sec)
Back transforming the eigenvectors                 ... done (   0.0 sec)
Now organizing SCF variables                       ... done
                      ------------------
                      INITIAL GUESS DONE (   7.8 sec)
                      ------------------
--------------
SCF ITERATIONS
--------------
ITER       Energy         Delta-E        Max-DP      RMS-DP      [F,P]     Damp
               ***  Starting incremental Fock matrix formation  ***
  0  -1270.0303179049   0.000000000000 0.07749587  0.00051012  0.3691667 0.7000
  1  -1270.3198594596  -0.289541554724 0.07150302  0.00042192  0.2141411 0.7000
                               ***Turning on DIIS***
  2  -1270.4986489354  -0.178789475732 0.03628537  0.00027055  0.1130602 0.7000
  3  -1272.6383641891  -2.139715253745 0.06425946  0.00053622  0.0845082 0.0000
  4  -1270.8380663997   1.800297789373 0.03292265  0.00013170  0.0074330 0.0000
  5  -1270.8900962833  -0.052029883593 0.01268524  0.00006239  0.0042515 0.0000
  6  -1270.8684538032   0.021642480153 0.00449630  0.00003006  0.0037520 0.0000
                      *** Initiating the SOSCF procedure ***
                           *** Shutting down DIIS ***
                      *** Re-Reading the Fockian *** 
                      *** Removing any level shift *** 
ITER      Energy       Delta-E        Grad      Rot      Max-DP    RMS-DP
  7  -1270.88580185  -0.0173480487  0.001000  0.001000  0.001909  0.000016
               *** Restarting incremental Fock matrix formation ***
  8  -1270.88539216   0.0004096887  0.000535  0.001230  0.000734  0.000009
  9  -1270.88540731  -0.0000151466  0.000282  0.001547  0.000933  0.000011
 10  -1270.88541336  -0.0000060507  0.000085  0.000120  0.000169  0.000002
 11  -1270.88541391  -0.0000005488  0.000033  0.000053  0.000077  0.000001
 12  -1270.88541403  -0.0000001198  0.000012  0.000041  0.000028  0.000000
 13  -1270.88541405  -0.0000000235  0.000009  0.000041  0.000017  0.000000
 14  -1270.88541406  -0.0000000074  0.000003  0.000007  0.000003  0.000000
                  ***Gradient check signals convergence***
              ***Rediagonalizing the Fockian in SOSCF/NRSCF***

               *****************************************************
               *                     SUCCESS                       *
               *           SCF CONVERGED AFTER  15 CYCLES          *
               *****************************************************


----------------
TOTAL SCF ENERGY
----------------

Total Energy       :        -1270.88541406 Eh          -34582.55026 eV

Components:
Nuclear Repulsion  :         2149.11621249 Eh           58480.42523 eV
Electronic Energy  :        -3420.00162655 Eh          -93062.97549 eV
One Electron Energy:        -5592.91749661 Eh         -152191.02232 eV
Two Electron Energy:         2172.91587006 Eh           59128.04684 eV

Virial components:
Potential Energy   :        -2540.11577674 Eh          -69120.06428 eV
Kinetic Energy     :         1269.23036268 Eh           34537.51402 eV
Virial Ratio       :            2.00130398


---------------
SCF CONVERGENCE
---------------

  Last Energy change         ...   -1.7344e-09  Tolerance :   1.0000e-08
  Last MAX-Density change    ...    2.7569e-06  Tolerance :   1.0000e-07
  Last RMS-Density change    ...    3.1317e-08  Tolerance :   5.0000e-09
  Last Orbital Gradient      ...    1.2311e-06  Tolerance :   1.0000e-05
  Last Orbital Rotation      ...    2.9614e-06  Tolerance :   1.0000e-05

             **** THE GBW FILE WAS UPDATED (qm_input.solv.gbw) ****
             **** DENSITY qm_input.solv.scfp WAS UPDATED ****
             **** ENERGY FILE WAS UPDATED (qm_input.solv.en.tmp) ****
             **** THE GBW FILE WAS UPDATED (qm_input.solv.gbw) ****
             **** DENSITY qm_input.solv.scfp WAS UPDATED ****
----------------
ORBITAL ENERGIES
----------------

  NO   OCC          E(Eh)            E(eV) 
   0   2.0000     -94.662417     -2575.8953 
   1   2.0000     -23.392518      -636.5428 
   2   2.0000     -23.352459      -635.4527 
   3   2.0000     -23.336791      -635.0264 
   4   2.0000     -18.383962      -500.2530 
   5   2.0000     -18.371620      -499.9172 
   6   2.0000     -14.195036      -386.2666 
   7   2.0000     -14.150916      -385.0660 
   8   2.0000     -14.100261      -383.6876 
   9   2.0000     -14.079488      -383.1224 
  10   2.0000     -14.076020      -383.0280 
  11   2.0000     -14.063165      -382.6782 
  12   2.0000     -14.033234      -381.8637 
  13   2.0000     -14.032680      -381.8486 
  14   2.0000     -14.015103      -381.3703 
  15   2.0000     -14.009064      -381.2060 
  16   2.0000     -14.005361      -381.1053 
  17   2.0000     -14.005080      -381.0976 
  18   2.0000     -14.001437      -380.9985 
  19   2.0000     -13.991300      -380.7226 
  20   2.0000     -11.668673      -317.5207 
  21   2.0000      -9.350583      -254.4423 
  22   2.0000      -9.348533      -254.3865 
  23   2.0000      -9.348099      -254.3747 
  24   2.0000      -4.235517      -115.2543 
  25   2.0000      -4.172793      -113.5475 
  26   2.0000      -4.133621      -112.4816 
  27   2.0000      -4.110807      -111.8607 
  28   2.0000      -4.005499      -108.9952 
  29   2.0000      -3.929283      -106.9212 
  30   2.0000      -3.897609      -106.0593 
  31   2.0000      -3.817969      -103.8922 
  32   2.0000      -3.807877      -103.6176 
  33   2.0000      -3.789924      -103.1291 
  34   2.0000      -3.768252      -102.5394 
  35   2.0000      -3.751975      -102.0964 
  36   2.0000      -3.693358      -100.5014 
  37   2.0000      -3.661261       -99.6280 
  38   2.0000      -3.609894       -98.2302 
  39   2.0000      -3.603917       -98.0676 
  40   2.0000      -3.596446       -97.8643 
  41   2.0000      -3.586373       -97.5902 
  42   2.0000      -3.541076       -96.3576 
  43   2.0000      -3.500041       -95.2410 
  44   2.0000      -3.495773       -95.1248 
  45   2.0000      -3.469662       -94.4143 
  46   2.0000      -3.463314       -94.2416 
  47   2.0000      -3.457526       -94.0841 
  48   2.0000      -3.449991       -93.8790 
  49   2.0000      -3.430637       -93.3524 
  50   2.0000      -3.416695       -92.9730 
  51   2.0000      -3.412174       -92.8500 
  52   2.0000      -3.399926       -92.5167 
  53   2.0000      -3.389874       -92.2432 
  54   2.0000      -3.372142       -91.7606 
  55   2.0000      -3.365693       -91.5852 
  56   2.0000      -3.357997       -91.3757 
  57   2.0000      -3.353292       -91.2477 
  58   2.0000      -3.340892       -90.9103 
  59   2.0000      -3.331793       -90.6627 
  60   2.0000      -3.325872       -90.5016 
  61   2.0000      -3.310892       -90.0940 
  62   2.0000      -3.300925       -89.8227 
  63   2.0000      -3.299800       -89.7921 
  64   2.0000      -3.294676       -89.6527 
  65   2.0000      -3.280822       -89.2757 
  66   2.0000      -3.270703       -89.0003 
  67   2.0000      -3.266031       -88.8732 
  68   2.0000      -3.253576       -88.5343 
  69   2.0000      -3.240647       -88.1825 
  70   2.0000      -3.234824       -88.0240 
  71   2.0000      -3.224014       -87.7299 
  72   2.0000      -3.130052       -85.1731 
  73   2.0000      -3.116265       -84.7979 
  74   2.0000      -3.106899       -84.5430 
  75   2.0000      -3.101281       -84.3902 
  76   2.0000      -3.090958       -84.1092 
  77   0.0000      -2.694831       -73.3301 
  78   0.0000      -2.666272       -72.5529 
  79   0.0000      -2.636736       -71.7492 
  80   0.0000      -2.631119       -71.5964 
  81   0.0000      -2.613589       -71.1194 
  82   0.0000      -2.608039       -70.9684 
  83   0.0000      -2.602757       -70.8246 
  84   0.0000      -2.594580       -70.6021 
  85   0.0000      -2.578734       -70.1709 
  86   0.0000      -2.571767       -69.9813 
  87   0.0000      -2.565054       -69.7987 
  88   0.0000      -2.563960       -69.7689 
  89   0.0000      -2.559143       -69.6378 
  90   0.0000      -2.553044       -69.4719 
  91   0.0000      -2.546547       -69.2951 
  92   0.0000      -2.544202       -69.2313 
  93   0.0000      -2.534330       -68.9626 
  94   0.0000      -2.526145       -68.7399 
  95   0.0000      -2.523619       -68.6712 
  96   0.0000      -2.507778       -68.2401 
  97   0.0000      -2.502789       -68.1044 
  98   0.0000      -2.492437       -67.8227 
  99   0.0000      -2.490364       -67.7662 
 100   0.0000      -2.467926       -67.1557 
 101   0.0000      -2.459488       -66.9261 
 102   0.0000      -2.453654       -66.7673 
 103   0.0000      -2.453125       -66.7529 
 104   0.0000      -2.437818       -66.3364 
 105   0.0000      -2.433873       -66.2290 
 106   0.0000      -2.427013       -66.0424 
 107   0.0000      -2.418852       -65.8203 
 108   0.0000      -2.410425       -65.5910 
 109   0.0000      -2.405192       -65.4486 
 110   0.0000      -2.396255       -65.2054 
 111   0.0000      -2.384742       -64.8921 
 112   0.0000      -2.378939       -64.7342 
 113   0.0000      -2.363926       -64.3257 
 114   0.0000      -2.363262       -64.3076 
 115   0.0000      -2.356658       -64.1279 
 116   0.0000      -2.345767       -63.8316 
 117   0.0000      -2.341020       -63.7024 
 118   0.0000      -2.338095       -63.6228 
 119   0.0000      -2.330685       -63.4212 
 120   0.0000      -2.324856       -63.2626 
 121   0.0000      -2.322597       -63.2011 
 122   0.0000      -2.315284       -63.0021 
 123   0.0000      -2.311841       -62.9084 
 124   0.0000      -2.302622       -62.6575 
 125   0.0000      -2.301508       -62.6272 
 126   0.0000      -2.289731       -62.3067 
 127   0.0000      -2.283317       -62.1322 
 128   0.0000      -2.276050       -61.9345 
 129   0.0000      -2.272602       -61.8406 
 130   0.0000      -2.269895       -61.7670 
 131   0.0000      -2.259603       -61.4869 
 132   0.0000      -2.247306       -61.1523 
 133   0.0000      -2.242513       -61.0219 
 134   0.0000      -2.241684       -60.9993 
 135   0.0000      -2.229044       -60.6554 
 136   0.0000      -2.224855       -60.5414 
 137   0.0000      -2.224160       -60.5225 
 138   0.0000      -2.218293       -60.3628 
 139   0.0000      -2.215936       -60.2987 
 140   0.0000      -2.208072       -60.0847 
 141   0.0000      -2.204886       -59.9980 
 142   0.0000      -2.201854       -59.9155 
 143   0.0000      -2.191628       -59.6372 
 144   0.0000      -2.185499       -59.4705 
 145   0.0000      -2.183910       -59.4272 
 146   0.0000      -2.177493       -59.2526 
 147   0.0000      -2.170724       -59.0684 
 148   0.0000      -2.168708       -59.0136 
 149   0.0000      -2.160913       -58.8014 
 150   0.0000      -2.155710       -58.6598 
 151   0.0000      -2.152212       -58.5647 
 152   0.0000      -2.149925       -58.5024 
 153   0.0000      -2.145723       -58.3881 
 154   0.0000      -2.142506       -58.3006 
 155   0.0000      -2.139778       -58.2263 
 156   0.0000      -2.131172       -57.9921 
 157   0.0000      -2.126414       -57.8627 
 158   0.0000      -2.121459       -57.7278 
 159   0.0000      -2.119166       -57.6654 
 160   0.0000      -2.113831       -57.5203 
 161   0.0000      -2.109019       -57.3893 
 162   0.0000      -2.104816       -57.2750 
 163   0.0000      -2.099660       -57.1347 
 164   0.0000      -2.093847       -56.9765 
 165   0.0000      -2.087097       -56.7928 
 166   0.0000      -2.085896       -56.7601 
 167   0.0000      -2.083885       -56.7054 
 168   0.0000      -2.078163       -56.5497 
 169   0.0000      -2.067162       -56.2503 
 170   0.0000      -2.058063       -56.0027 
 171   0.0000      -2.055370       -55.9295 
 172   0.0000      -2.051874       -55.8343 
 173   0.0000      -2.046563       -55.6898 
 174   0.0000      -2.038394       -55.4675 
 175   0.0000      -2.027560       -55.1727 
 176   0.0000      -2.025647       -55.1207 
 177   0.0000      -2.022250       -55.0282 
 178   0.0000      -2.016881       -54.8821 
 179   0.0000      -2.008329       -54.6494 
 180   0.0000      -1.999553       -54.4106 
 181   0.0000      -1.990923       -54.1758 
 182   0.0000      -1.980517       -53.8926 
 183   0.0000      -1.979065       -53.8531 
 184   0.0000      -1.968272       -53.5594 
 185   0.0000      -1.962127       -53.3922 
 186   0.0000      -1.950206       -53.0678 
 187   0.0000      -1.947158       -52.9849 
 188   0.0000      -1.943680       -52.8902 
 189   0.0000      -1.939349       -52.7724 
 190   0.0000      -1.926639       -52.4265 
 191   0.0000      -1.921919       -52.2981 
 192   0.0000      -1.915575       -52.1255 
 193   0.0000      -1.907481       -51.9052 
 194   0.0000      -1.903165       -51.7878 
 195   0.0000      -1.893812       -51.5332 
 196   0.0000      -1.879775       -51.1513 
 197   0.0000      -1.875648       -51.0390 
 198   0.0000      -1.857710       -50.5508 
 199   0.0000      -1.852549       -50.4104 
 200   0.0000      -1.844716       -50.1973 
 201   0.0000      -1.840684       -50.0875 
 202   0.0000      -1.834456       -49.9181 
 203   0.0000      -1.831267       -49.8313 
 204   0.0000      -1.826622       -49.7049 
 205   0.0000      -1.820802       -49.5465 
 206   0.0000      -1.807614       -49.1877 
 207   0.0000      -1.795331       -48.8534 
 208   0.0000      -1.790890       -48.7326 
 209   0.0000      -1.786594       -48.6157 
 210   0.0000      -1.783707       -48.5371 
 211   0.0000      -1.778223       -48.3879 
 212   0.0000      -1.772779       -48.2398 
 213   0.0000      -1.763764       -47.9945 
 214   0.0000      -1.749972       -47.6192 
 215   0.0000      -1.742933       -47.4276 
 216   0.0000      -1.736663       -47.2570 
 217   0.0000      -1.731797       -47.1246 
 218   0.0000      -1.725751       -46.9601 
 219   0.0000      -1.716233       -46.7011 
 220   0.0000      -1.709937       -46.5298 
 221   0.0000      -1.707787       -46.4712 
 222   0.0000      -1.700056       -46.2609 
 223   0.0000      -1.690816       -46.0094 
 224   0.0000      -1.683615       -45.8135 
 225   0.0000      -1.678455       -45.6731 
 226   0.0000      -1.673641       -45.5421 
 227   0.0000      -1.661324       -45.2069 
 228   0.0000      -1.650156       -44.9030 
 229   0.0000      -1.640746       -44.6470 
 230   0.0000      -1.638197       -44.5776 
 231   0.0000      -1.635680       -44.5091 
 232   0.0000      -1.626479       -44.2587 
 233   0.0000      -1.614677       -43.9376 
 234   0.0000      -1.604840       -43.6699 
 235   0.0000      -1.600769       -43.5591 
 236   0.0000      -1.596132       -43.4330 
 237   0.0000      -1.584044       -43.1040 
 238   0.0000      -1.582517       -43.0625 
 239   0.0000      -1.577046       -42.9136 
 240   0.0000      -1.561866       -42.5005 
 241   0.0000      -1.553246       -42.2660 
 242   0.0000      -1.549682       -42.1690 
 243   0.0000      -1.538983       -41.8778 
 244   0.0000      -1.533885       -41.7391 
 245   0.0000      -1.526259       -41.5316 
 246   0.0000      -1.525935       -41.5228 
 247   0.0000      -1.518606       -41.3234 
 248   0.0000      -1.511475       -41.1293 
 249   0.0000      -1.501938       -40.8698 
 250   0.0000      -1.491461       -40.5847 
 251   0.0000      -1.486142       -40.4400 
 252   0.0000      -1.476754       -40.1845 
 253   0.0000      -1.472192       -40.0604 
 254   0.0000      -1.468257       -39.9533 
 255   0.0000      -1.460768       -39.7495 
 256   0.0000      -1.453450       -39.5504 
 257   0.0000      -1.443875       -39.2898 
 258   0.0000      -1.432242       -38.9733 
 259   0.0000      -1.427079       -38.8328 
 260   0.0000      -1.410678       -38.3865 
 261   0.0000      -1.401893       -38.1475 
 262   0.0000      -1.393973       -37.9319 
 263   0.0000      -1.386047       -37.7162 
 264   0.0000      -1.380937       -37.5772 
 265   0.0000      -1.380823       -37.5741 
 266   0.0000      -1.366252       -37.1776 
 267   0.0000      -1.357718       -36.9454 
 268   0.0000      -1.350163       -36.7398 
 269   0.0000      -1.347774       -36.6748 
 270   0.0000      -1.341382       -36.5009 
 271   0.0000      -1.332106       -36.2484 
 272   0.0000      -1.324559       -36.0431 
 273   0.0000      -1.317162       -35.8418 
 274   0.0000      -1.307273       -35.5727 
 275   0.0000      -1.302092       -35.4317 
 276   0.0000      -1.298887       -35.3445 
 277   0.0000      -1.289121       -35.0788 
 278   0.0000      -1.278537       -34.7908 
 279   0.0000      -1.265244       -34.4290 
 280   0.0000      -1.261905       -34.3382 
 281   0.0000      -1.255360       -34.1601 
 282   0.0000      -1.243571       -33.8393 
 283   0.0000      -1.241489       -33.7826 
 284   0.0000      -1.234025       -33.5795 
 285   0.0000      -1.230477       -33.4830 
 286   0.0000      -1.225069       -33.3358 
 287   0.0000      -1.218087       -33.1458 
 288   0.0000      -1.214661       -33.0526 
 289   0.0000      -1.206057       -32.8185 
 290   0.0000      -1.203737       -32.7553 
 291   0.0000      -1.199072       -32.6284 
 292   0.0000      -1.184615       -32.2350 
 293   0.0000      -1.180812       -32.1315 
 294   0.0000      -1.174782       -31.9674 
 295   0.0000      -1.169805       -31.8320 
 296   0.0000      -1.163270       -31.6542 
 297   0.0000      -1.154865       -31.4255 
 298   0.0000      -1.142842       -31.0983 
 299   0.0000      -1.139354       -31.0034 
 300   0.0000      -1.126287       -30.6478 
 301   0.0000      -1.114242       -30.3201 
 302   0.0000      -1.107065       -30.1248 
 303   0.0000      -1.100609       -29.9491 
 304   0.0000      -1.089782       -29.6545 
 305   0.0000      -1.077742       -29.3268 
 306   0.0000      -1.070661       -29.1342 
 307   0.0000      -1.061603       -28.8877 
 308   0.0000      -1.055259       -28.7151 
 309   0.0000      -1.050415       -28.5832 
 310   0.0000      -1.042183       -28.3592 
 311   0.0000      -1.039069       -28.2745 
 312   0.0000      -1.027137       -27.9498 
 313   0.0000      -1.016014       -27.6472 
 314   0.0000      -1.000678       -27.2298 
 315   0.0000      -0.995790       -27.0968 
 316   0.0000      -0.987278       -26.8652 
 317   0.0000      -0.968465       -26.3533 
 318   0.0000      -0.966717       -26.3057 
 319   0.0000      -0.956086       -26.0164 
 320   0.0000      -0.952765       -25.9261 
 321   0.0000      -0.926250       -25.2045 
 322   0.0000      -0.917295       -24.9609 
 323   0.0000      -0.905795       -24.6479 
 324   0.0000      -0.903253       -24.5788 
 325   0.0000      -0.899691       -24.4818 
 326   0.0000      -0.885619       -24.0989 
 327   0.0000      -0.878057       -23.8931 
 328   0.0000      -0.875877       -23.8338 
 329   0.0000      -0.868452       -23.6318 
 330   0.0000      -0.851460       -23.1694 
 331   0.0000      -0.846443       -23.0329 
 332   0.0000      -0.835528       -22.7359 
 333   0.0000      -0.817016       -22.2321 
 334   0.0000      -0.812552       -22.1107 
 335   0.0000      -0.792068       -21.5533 
 336   0.0000      -0.783512       -21.3205 
 337   0.0000      -0.776512       -21.1300 
 338   0.0000      -0.770740       -20.9729 
 339   0.0000      -0.764213       -20.7953 
 340   0.0000      -0.752926       -20.4881 
 341   0.0000      -0.747360       -20.3367 
 342   0.0000      -0.728633       -19.8271 
 343   0.0000      -0.711584       -19.3632 
 344   0.0000      -0.699692       -19.0396 
 345   0.0000      -0.671269       -18.2662 
 346   0.0000      -0.668607       -18.1937 
 347   0.0000      -0.648940       -17.6586 
 348   0.0000      -0.625175       -17.0119 
 349   0.0000      -0.614417       -16.7191 
 350   0.0000      -0.597783       -16.2665 
 351   0.0000      -0.580787       -15.8040 
 352   0.0000      -0.559995       -15.2383 
 353   0.0000      -0.533789       -14.5251 
 354   0.0000      -0.532658       -14.4943 
 355   0.0000      -0.513768       -13.9803 
 356   0.0000      -0.496189       -13.5020 
 357   0.0000      -0.487346       -13.2613 
 358   0.0000      -0.474996       -12.9253 
 359   0.0000      -0.463037       -12.5999 
 360   0.0000      -0.451881       -12.2963 
 361   0.0000      -0.446609       -12.1528 
 362   0.0000      -0.433920       -11.8076 
 363   0.0000      -0.423519       -11.5245 
 364   0.0000      -0.410797       -11.1784 
 365   0.0000      -0.401185       -10.9168 
 366   0.0000      -0.389914       -10.6101 
 367   0.0000      -0.375576       -10.2199 
 368   0.0000      -0.370515       -10.0822 
 369   0.0000      -0.345272        -9.3953 
 370   0.0000      -0.337638        -9.1876 
 371   0.0000      -0.328034        -8.9263 
 372   0.0000      -0.305315        -8.3080 
 373   0.0000      -0.288269        -7.8442 
 374   0.0000      -0.282331        -7.6826 
 375   0.0000      -0.268886        -7.3168 
 376   0.0000      -0.250834        -6.8255 
 377   0.0000      -0.246859        -6.7174 
 378   0.0000      -0.223607        -6.0847 
 379   0.0000      -0.217484        -5.9180 
 380   0.0000      -0.207064        -5.6345 
 381   0.0000      -0.202174        -5.5014 
 382   0.0000      -0.181521        -4.9394 
 383   0.0000      -0.163655        -4.4533 
 384   0.0000      -0.157724        -4.2919 
 385   0.0000      -0.127632        -3.4730 
 386   0.0000      -0.114163        -3.1065 
 387   0.0000      -0.108927        -2.9641 
 388   0.0000      -0.104422        -2.8415 
 389   0.0000      -0.083946        -2.2843 
 390   0.0000      -0.079105        -2.1526 
 391   0.0000      -0.076890        -2.0923 
 392   0.0000      -0.064075        -1.7436 
 393   0.0000      -0.051236        -1.3942 
 394   0.0000      -0.046033        -1.2526 
 395   0.0000      -0.026860        -0.7309 
 396   0.0000      -0.018660        -0.5078 
 397   0.0000      -0.010857        -0.2954 
 398   0.0000      -0.004964        -0.1351 
 399   0.0000      -0.002508        -0.0682 
 400   0.0000       0.016031         0.4362 
 401   0.0000       0.019572         0.5326 
 402   0.0000       0.029548         0.8040 
 403   0.0000       0.044777         1.2184 
 404   0.0000       0.049538         1.3480 
 405   0.0000       0.057922         1.5761 
 406   0.0000       0.071232         1.9383 
 407   0.0000       0.076640         2.0855 
 408   0.0000       0.089260         2.4289 
 409   0.0000       0.092169         2.5080 
 410   0.0000       0.100939         2.7467 
 411   0.0000       0.112577         3.0634 
 412   0.0000       0.125510         3.4153 
 413   0.0000       0.137959         3.7541 
 414   0.0000       0.150517         4.0958 
 415   0.0000       0.158014         4.2998 
 416   0.0000       0.163526         4.4498 
 417   0.0000       0.176540         4.8039 
 418   0.0000       0.178888         4.8678 
 419   0.0000       0.182466         4.9652 
 420   0.0000       0.202073         5.4987 
 421   0.0000       0.209371         5.6973 
 422   0.0000       0.213544         5.8108 
 423   0.0000       0.233022         6.3408 
 424   0.0000       0.245258         6.6738 
 425   0.0000       0.249685         6.7943 
 426   0.0000       0.252683         6.8758 
 427   0.0000       0.254499         6.9253 
 428   0.0000       0.269381         7.3302 
 429   0.0000       0.271837         7.3970 
 430   0.0000       0.290371         7.9014 
 431   0.0000       0.304576         8.2879 
 432   0.0000       0.309591         8.4244 
 433   0.0000       0.315673         8.5899 
 434   0.0000       0.322412         8.7733 
 435   0.0000       0.323936         8.8147 
 436   0.0000       0.330600         8.9961 
 437   0.0000       0.339001         9.2247 
 438   0.0000       0.345132         9.3915 
 439   0.0000       0.347663         9.4604 
 440   0.0000       0.358655         9.7595 
 441   0.0000       0.372932        10.1480 
 442   0.0000       0.377252        10.2655 
 443   0.0000       0.379742        10.3333 
 444   0.0000       0.387964        10.5570 
 445   0.0000       0.395968        10.7748 
 446   0.0000       0.411917        11.2088 
 447   0.0000       0.415458        11.3052 
 448   0.0000       0.419549        11.4165 
 449   0.0000       0.434266        11.8170 
 450   0.0000       0.437126        11.8948 
 451   0.0000       0.442008        12.0277 
 452   0.0000       0.448432        12.2025 
 453   0.0000       0.458376        12.4731 
 454   0.0000       0.463917        12.6238 
 455   0.0000       0.473610        12.8876 
 456   0.0000       0.482185        13.1209 
 457   0.0000       0.491520        13.3749 
 458   0.0000       0.504441        13.7265 
 459   0.0000       0.508695        13.8423 
 460   0.0000       0.516565        14.0564 
 461   0.0000       0.529118        14.3980 
 462   0.0000       0.532014        14.4768 
 463   0.0000       0.539968        14.6933 
 464   0.0000       0.541259        14.7284 
 465   0.0000       0.552047        15.0220 
 466   0.0000       0.555789        15.1238 
 467   0.0000       0.558601        15.2003 
 468   0.0000       0.562645        15.3103 
 469   0.0000       0.573291        15.6000 
 470   0.0000       0.575276        15.6541 
 471   0.0000       0.581504        15.8235 
 472   0.0000       0.589930        16.0528 
 473   0.0000       0.596234        16.2244 
 474   0.0000       0.599494        16.3131 
 475   0.0000       0.605725        16.4826 
 476   0.0000       0.608520        16.5587 
 477   0.0000       0.612143        16.6572 
 478   0.0000       0.620070        16.8730 
 479   0.0000       0.624156        16.9841 
 480   0.0000       0.627750        17.0820 
 481   0.0000       0.635673        17.2975 
 482   0.0000       0.641192        17.4477 
 483   0.0000       0.646559        17.5938 
 484   0.0000       0.650129        17.6909 
 485   0.0000       0.657516        17.8919 
 486   0.0000       0.658518        17.9192 
 487   0.0000       0.665808        18.1176 
 488   0.0000       0.667138        18.1538 
 489   0.0000       0.671916        18.2838 
 490   0.0000       0.680958        18.5298 
 491   0.0000       0.687176        18.6990 
 492   0.0000       0.695848        18.9350 
 493   0.0000       0.701973        19.1017 
 494   0.0000       0.705581        19.1998 
 495   0.0000       0.716137        19.4871 
 496   0.0000       0.720521        19.6064 
 497   0.0000       0.726604        19.7719 
 498   0.0000       0.731837        19.9143 
 499   0.0000       0.741957        20.1897 
 500   0.0000       0.745241        20.2790 
 501   0.0000       0.758060        20.6279 
 502   0.0000       0.765670        20.8349 
 503   0.0000       0.775304        21.0971 
 504   0.0000       0.778289        21.1783 
 505   0.0000       0.784546        21.3486 
 506   0.0000       0.785187        21.3660 
 507   0.0000       0.799734        21.7619 
 508   0.0000       0.805255        21.9121 
 509   0.0000       0.816338        22.2137 
 510   0.0000       0.825035        22.4503 
 511   0.0000       0.827740        22.5239 
 512   0.0000       0.835311        22.7300 
 513   0.0000       0.847461        23.0606 
 514   0.0000       0.848494        23.0887 
 515   0.0000       0.855332        23.2748 
 516   0.0000       0.864658        23.5285 
 517   0.0000       0.867202        23.5978 
 518   0.0000       0.872879        23.7522 
 519   0.0000       0.887126        24.1399 
 520   0.0000       0.894794        24.3486 
 521   0.0000       0.897060        24.4102 
 522   0.0000       0.904916        24.6240 
 523   0.0000       0.908193        24.7132 
 524   0.0000       0.914341        24.8805 
 525   0.0000       0.918127        24.9835 
 526   0.0000       0.930586        25.3225 
 527   0.0000       0.939343        25.5608 
 528   0.0000       0.949918        25.8486 
 529   0.0000       0.951599        25.8943 
 530   0.0000       0.952777        25.9264 
 531   0.0000       0.963893        26.2289 
 532   0.0000       0.966440        26.2982 
 533   0.0000       0.972781        26.4707 
 534   0.0000       0.984252        26.7829 
 535   0.0000       0.986841        26.8533 
 536   0.0000       1.002311        27.2743 
 537   0.0000       1.011673        27.5290 
 538   0.0000       1.014350        27.6019 
 539   0.0000       1.020489        27.7689 
 540   0.0000       1.028419        27.9847 
 541   0.0000       1.035332        28.1728 
 542   0.0000       1.037298        28.2263 
 543   0.0000       1.044976        28.4352 
 544   0.0000       1.054989        28.7077 
 545   0.0000       1.060014        28.8445 
 546   0.0000       1.061506        28.8850 
 547   0.0000       1.068678        29.0802 
 548   0.0000       1.074605        29.2415 
 549   0.0000       1.085818        29.5466 
 550   0.0000       1.095291        29.8044 
 551   0.0000       1.096109        29.8266 
 552   0.0000       1.113772        30.3073 
 553   0.0000       1.121915        30.5289 
 554   0.0000       1.129530        30.7361 
 555   0.0000       1.134223        30.8638 
 556   0.0000       1.153184        31.3797 
 557   0.0000       1.155770        31.4501 
 558   0.0000       1.164034        31.6750 
 559   0.0000       1.179543        32.0970 
 560   0.0000       1.182073        32.1658 
 561   0.0000       1.191951        32.4346 
 562   0.0000       1.207223        32.8502 
 563   0.0000       1.209971        32.9250 
 564   0.0000       1.221288        33.2329 
 565   0.0000       1.232208        33.5301 
 566   0.0000       1.240998        33.7693 
 567   0.0000       1.252174        34.0734 
 568   0.0000       1.255057        34.1518 
 569   0.0000       1.267975        34.5034 
 570   0.0000       1.271732        34.6056 
 571   0.0000       1.273515        34.6541 
 572   0.0000       1.289526        35.0898 
 573   0.0000       1.299023        35.3482 
 574   0.0000       1.310171        35.6516 
 575   0.0000       1.323013        36.0010 
 576   0.0000       1.330676        36.2095 
 577   0.0000       1.332418        36.2569 
 578   0.0000       1.336970        36.3808 
 579   0.0000       1.345330        36.6083 
 580   0.0000       1.351769        36.7835 
 581   0.0000       1.356081        36.9008 
 582   0.0000       1.373697        37.3802 
 583   0.0000       1.380473        37.5646 
 584   0.0000       1.386090        37.7174 
 585   0.0000       1.393580        37.9212 
 586   0.0000       1.403660        38.1955 
 587   0.0000       1.407123        38.2898 
 588   0.0000       1.413711        38.4690 
 589   0.0000       1.414911        38.5017 
 590   0.0000       1.421949        38.6932 
 591   0.0000       1.429433        38.8968 
 592   0.0000       1.438793        39.1516 
 593   0.0000       1.441615        39.2283 
 594   0.0000       1.446099        39.3504 
 595   0.0000       1.455880        39.6165 
 596   0.0000       1.463482        39.8234 
 597   0.0000       1.468201        39.9518 
 598   0.0000       1.474944        40.1353 
 599   0.0000       1.495470        40.6938 
 600   0.0000       1.497959        40.7615 
 601   0.0000       1.507780        41.0288 
 602   0.0000       1.517118        41.2829 
 603   0.0000       1.518772        41.3279 
 604   0.0000       1.527562        41.5671 
 605   0.0000       1.532969        41.7142 
 606   0.0000       1.542424        41.9715 
 607   0.0000       1.546626        42.0858 
 608   0.0000       1.553855        42.2825 
 609   0.0000       1.566267        42.6203 
 610   0.0000       1.582062        43.0501 
 611   0.0000       1.583187        43.0807 
 612   0.0000       1.597544        43.4714 
 613   0.0000       1.598906        43.5084 
 614   0.0000       1.610542        43.8251 
 615   0.0000       1.615341        43.9557 
 616   0.0000       1.622574        44.1525 
 617   0.0000       1.627819        44.2952 
 618   0.0000       1.640624        44.6436 
 619   0.0000       1.645324        44.7715 
 620   0.0000       1.658462        45.1290 
 621   0.0000       1.663018        45.2530 
 622   0.0000       1.669026        45.4165 
 623   0.0000       1.676634        45.6235 
 624   0.0000       1.688517        45.9469 
 625   0.0000       1.695232        46.1296 
 626   0.0000       1.696748        46.1709 
 627   0.0000       1.706350        46.4322 
 628   0.0000       1.715639        46.6849 
 629   0.0000       1.728895        47.0456 
 630   0.0000       1.736938        47.2645 
 631   0.0000       1.743550        47.4444 
 632   0.0000       1.764404        48.0119 
 633   0.0000       1.775792        48.3218 
 634   0.0000       1.777248        48.3614 
 635   0.0000       1.789029        48.6820 
 636   0.0000       1.797301        48.9070 
 637   0.0000       1.799924        48.9784 
 638   0.0000       1.811135        49.2835 
 639   0.0000       1.822959        49.6052 
 640   0.0000       1.829982        49.7963 
 641   0.0000       1.836442        49.9721 
 642   0.0000       1.844333        50.1868 
 643   0.0000       1.849245        50.3205 
 644   0.0000       1.856196        50.5096 
 645   0.0000       1.863786        50.7162 
 646   0.0000       1.869775        50.8792 
 647   0.0000       1.878150        51.1071 
 648   0.0000       1.884563        51.2816 
 649   0.0000       1.889966        51.4286 
 650   0.0000       1.898776        51.6683 
 651   0.0000       1.901635        51.7461 
 652   0.0000       1.929022        52.4914 
 653   0.0000       1.940654        52.8079 
 654   0.0000       1.944221        52.9050 
 655   0.0000       1.954070        53.1730 
 656   0.0000       1.968611        53.5686 
 657   0.0000       1.981302        53.9140 
 658   0.0000       1.995125        54.2901 
 659   0.0000       2.007578        54.6290 
 660   0.0000       2.026180        55.1352 
 661   0.0000       2.027915        55.1824 
 662   0.0000       2.045569        55.6628 
 663   0.0000       2.053953        55.8909 
 664   0.0000       2.063889        56.1613 
 665   0.0000       2.073760        56.4299 
 666   0.0000       2.079937        56.5980 
 667   0.0000       2.091805        56.9209 
 668   0.0000       2.115677        57.5705 
 669   0.0000       2.139585        58.2211 
 670   0.0000       2.145837        58.3912 
 671   0.0000       2.178790        59.2879 
 672   0.0000       2.190167        59.5975 
 673   0.0000       2.196335        59.7653 
 674   0.0000       2.212844        60.2145 
 675   0.0000       2.235428        60.8291 
 676   0.0000       2.254583        61.3503 
 677   0.0000       2.279416        62.0261 
 678   0.0000       2.291365        62.3512 
 679   0.0000       2.302234        62.6470 
 680   0.0000       2.311369        62.8955 
 681   0.0000       2.314471        62.9800 
 682   0.0000       2.318729        63.0958 
 683   0.0000       2.326796        63.3153 
 684   0.0000       2.335194        63.5439 
 685   0.0000       2.346562        63.8532 
 686   0.0000       2.358694        64.1833 
 687   0.0000       2.370092        64.4935 
 688   0.0000       2.396943        65.2241 
 689   0.0000       2.398666        65.2710 
 690   0.0000       2.410267        65.5867 
 691   0.0000       2.423929        65.9585 
 692   0.0000       2.431392        66.1615 
 693   0.0000       2.449482        66.6538 
 694   0.0000       2.453611        66.7661 
 695   0.0000       2.462288        67.0023 
 696   0.0000       2.466129        67.1068 
 697   0.0000       2.469344        67.1943 
 698   0.0000       2.487956        67.7007 
 699   0.0000       2.494255        67.8721 
 700   0.0000       2.513930        68.4075 
 701   0.0000       2.525324        68.7176 
 702   0.0000       2.535424        68.9924 
 703   0.0000       2.557954        69.6055 
 704   0.0000       2.562646        69.7331 
 705   0.0000       2.568889        69.9030 
 706   0.0000       2.600913        70.7744 
 707   0.0000       2.617294        71.2202 
 708   0.0000       2.623649        71.3931 
 709   0.0000       2.640252        71.8449 
 710   0.0000       2.648733        72.0757 
 711   0.0000       2.655812        72.2683 
 712   0.0000       2.670240        72.6609 
 713   0.0000       2.675447        72.8026 
 714   0.0000       2.691594        73.2420 
 715   0.0000       2.712672        73.8156 
 716   0.0000       2.758800        75.0708 
 717   0.0000       2.762439        75.1698 
 718   0.0000       2.777301        75.5742 
 719   0.0000       2.788134        75.8690 
 720   0.0000       2.801431        76.2308 
 721   0.0000       2.803908        76.2982 
 722   0.0000       2.816991        76.6542 
 723   0.0000       2.819880        76.7328 
 724   0.0000       2.837031        77.1995 
 725   0.0000       2.844205        77.3947 
 726   0.0000       2.850002        77.5525 
 727   0.0000       2.865434        77.9724 
 728   0.0000       2.873596        78.1945 
 729   0.0000       2.883400        78.4613 
 730   0.0000       2.900875        78.9368 
 731   0.0000       2.901483        78.9534 
 732   0.0000       2.912161        79.2439 
 733   0.0000       2.942906        80.0805 
 734   0.0000       2.960876        80.5695 
 735   0.0000       2.978508        81.0493 
 736   0.0000       2.989004        81.3349 
 737   0.0000       2.992147        81.4205 
 738   0.0000       2.995673        81.5164 
 739   0.0000       3.013494        82.0013 
 740   0.0000       3.016755        82.0901 
 741   0.0000       3.024488        82.3005 
 742   0.0000       3.049697        82.9865 
 743   0.0000       3.059904        83.2642 
 744   0.0000       3.071670        83.5844 
 745   0.0000       3.093137        84.1685 
 746   0.0000       3.109107        84.6031 
 747   0.0000       3.130549        85.1866 
 748   0.0000       3.137216        85.3680 
 749   0.0000       3.155005        85.8521 
 750   0.0000       3.174907        86.3936 
 751   0.0000       3.185451        86.6805 
 752   0.0000       3.204493        87.1987 
 753   0.0000       3.225423        87.7682 
 754   0.0000       3.256584        88.6161 
 755   0.0000       3.265732        88.8651 
 756   0.0000       3.278664        89.2170 
 757   0.0000       3.300614        89.8143 
 758   0.0000       3.318436        90.2992 
 759   0.0000       3.340733        90.9060 
 760   0.0000       3.382987        92.0557 
 761   0.0000       3.399567        92.5069 
 762   0.0000       3.429790        93.3293 
 763   0.0000       3.441345        93.6438 
 764   0.0000       3.472393        94.4886 
 765   0.0000       3.494160        95.0809 
 766   0.0000       3.499446        95.2248 
 767   0.0000       3.538147        96.2779 
 768   0.0000       3.547128        96.5223 
 769   0.0000       3.591530        97.7305 
 770   0.0000       3.604279        98.0774 
 771   0.0000       3.620416        98.5165 
 772   0.0000       3.653464        99.4158 
 773   0.0000       3.683977       100.2461 
 774   0.0000       3.686759       100.3218 
 775   0.0000       3.714640       101.0805 
 776   0.0000       3.726481       101.4027 
 777   0.0000       3.754624       102.1685 
 778   0.0000       3.811956       103.7286 
 779   0.0000       3.839636       104.4818 
 780   0.0000       3.843893       104.5976 
 781   0.0000       3.875807       105.4661 
 782   0.0000       3.934980       107.0762 
 783   0.0000       3.983210       108.3887 
 784   0.0000       4.051495       110.2468 
 785   0.0000       4.084995       111.1584 
 786   0.0000       4.100648       111.5843 
 787   0.0000       4.123869       112.2162 
 788   0.0000       4.171659       113.5166 
 789   0.0000       4.215649       114.7136 
 790   0.0000       4.266720       116.1034 
 791   0.0000       4.335996       117.9884 
 792   0.0000       4.353155       118.4554 
 793   0.0000       4.389488       119.4440 
 794   0.0000       4.423796       120.3776 
 795   0.0000       4.449387       121.0740 
 796   0.0000       4.491884       122.2304 
 797   0.0000       4.504006       122.5602 
 798   0.0000       4.546049       123.7043 
 799   0.0000       4.576995       124.5464 
 800   0.0000       4.586778       124.8126 
 801   0.0000       4.716224       128.3350 
 802   0.0000       4.758362       129.4816 
 803   0.0000       4.798175       130.5650 
 804   0.0000       4.845104       131.8420 
 805   0.0000       4.945542       134.5750 
 806   0.0000       5.069241       137.9410 
 807   0.0000       5.168546       140.6433 
 808   0.0000       5.190534       141.2416 
 809   0.0000       6.592219       179.3834 
 810   0.0000       6.903993       187.8672 
 811   0.0000       8.059965       219.3228 
 812   0.0000       8.363045       227.5700 
 813   0.0000       9.098180       247.5741 
 814   0.0000       9.967291       271.2238 
 815   0.0000      10.067038       273.9380 
 816   0.0000      10.152806       276.2719 
 817   0.0000      10.289278       279.9855 
 818   0.0000      10.514413       286.1117 
 819   0.0000      10.586784       288.0810 
 820   0.0000      10.762040       292.8500 
 821   0.0000      11.053867       300.7910 
 822   0.0000      11.340906       308.6017 
 823   0.0000      11.407122       310.4036 
 824   0.0000      11.542572       314.0894 
 825   0.0000      11.972846       325.7977 
 826   0.0000      12.519269       340.6666 
 827   0.0000      13.133998       357.3943 

                    ********************************
                    * MULLIKEN POPULATION ANALYSIS *
                    ********************************

-----------------------
MULLIKEN ATOMIC CHARGES
-----------------------
   0 C :   -0.272343
   1 C :    0.008891
   2 O :   -0.351606
   3 C :    0.536998
   4 O :   -0.575424
   5 C :   -0.218575
   6 C :    0.201994
   7 C :   -0.301534
   8 N :   -0.148063
   9 C :    0.294500
  10 S :   -0.639449
  11 N :   -0.214511
  12 C :    0.079883
  13 C :    0.004243
  14 C :   -0.191479
  15 C :   -0.133625
  16 C :   -0.289427
  17 C :    0.250728
  18 O :   -0.470724
  19 C :   -0.253748
  20 H :    0.116559
  21 H :    0.092940
  22 H :    0.118475
  23 H :    0.130512
  24 H :    0.088162
  25 H :    0.128149
  26 H :    0.131272
  27 H :    0.130242
  28 H :    0.256339
  29 H :    0.245324
  30 H :    0.174610
  31 H :    0.181919
  32 H :    0.188165
  33 H :    0.175681
  34 H :    0.333280
  35 H :    0.191642
Sum of atomic charges:   -0.0000000

--------------------------------
MULLIKEN REDUCED ORBITAL CHARGES
--------------------------------
  0 C s       :     3.257207  s :     3.257207
      pz      :     1.021186  p :     2.935922
      px      :     1.009420
      py      :     0.905317
      dz2     :     0.019413  d :     0.074609
      dxz     :     0.005026
      dyz     :     0.007157
      dx2y2   :     0.015670
      dxy     :     0.027343
      f0      :     0.001251  f :     0.004605
      f+1     :     0.000153
      f-1     :     0.000392
      f+2     :     0.000571
      f-2     :     0.000220
      f+3     :     0.000645
      f-3     :     0.001374
  1 C s       :     3.190284  s :     3.190284
      pz      :     0.621748  p :     2.644215
      px      :     1.025670
      py      :     0.996798
      dz2     :     0.044062  d :     0.144856
      dxz     :     0.022943
      dyz     :     0.030343
      dx2y2   :     0.018561
      dxy     :     0.028947
      f0      :     0.003423  f :     0.011753
      f+1     :     0.002509
      f-1     :     0.002607
      f+2     :     0.000851
      f-2     :     0.000311
      f+3     :     0.000743
      f-3     :     0.001309
  2 O s       :     3.711353  s :     3.711353
      pz      :     1.395206  p :     4.601548
      px      :     1.734526
      py      :     1.471815
      dz2     :     0.011151  d :     0.036441
      dxz     :     0.004469
      dyz     :     0.008638
      dx2y2   :     0.006668
      dxy     :     0.005515
      f0      :     0.000517  f :     0.002264
      f+1     :     0.000305
[...]
 15 C s       :     2.698261  s :     2.698261
      pz      :     0.878210  p :     2.792408
      px      :     0.933998
      py      :     0.980199
      dz2     :     0.086010  d :     0.432824
      dxz     :     0.068486
      dyz     :     0.057508
      dx2y2   :     0.118682
      dxy     :     0.102139
      f0      :     0.002987  f :     0.044306
      f+1     :     0.004910
      f-1     :     0.006475
      f+2     :     0.006525
      f-2     :     0.007522
      f+3     :     0.007623
      f-3     :     0.008263
 16 C s       :     2.706034  s :     2.706034
      pz      :     0.936382  p :     2.856515
      px      :     0.955623
      py      :     0.964511
      dz2     :     0.048893  d :     0.381491
      dxz     :     0.055101
      dyz     :     0.086591
      dx2y2   :     0.088089
      dxy     :     0.102816
      f0      :     0.004355  f :     0.039193
      f+1     :     0.004756
      f-1     :     0.003318
      f+2     :     0.005587
      f-2     :     0.005848
      f+3     :     0.007595
      f-3     :     0.007735
 17 C s       :     2.703720  s :     2.703720
      pz      :     0.846533  p :     2.704883
      px      :     0.819190
      py      :     1.039160
      dz2     :     0.128990  d :     0.710346
      dxz     :     0.106919
      dyz     :     0.154707
      dx2y2   :     0.157617
      dxy     :     0.162114
      f0      :     0.012712  f :     0.101464
      f+1     :     0.012842
      f-1     :     0.012341
      f+2     :     0.015676
      f-2     :     0.017823
      f+3     :     0.014071
      f-3     :     0.015999
 18 O s       :     3.173743  s :     3.173743
      pz      :     1.290394  p :     4.403301
      px      :     1.537097
      py      :     1.575810
      dz2     :     0.015959  d :     0.072326
      dxz     :     0.018153
      dyz     :     0.019719
      dx2y2   :     0.010630
      dxy     :     0.007866
      f0      :     0.000678  f :     0.004770
      f+1     :     0.000730
      f-1     :     0.000638
      f+2     :     0.000736
      f-2     :     0.001239
      f+3     :     0.000344
      f-3     :     0.000406
 19 C s       :     2.699013  s :     2.699013
      pz      :     0.928104  p :     2.851234
      px      :     0.947841
      py      :     0.975288
      dz2     :     0.068082  d :     0.396251
      dxz     :     0.068792
      dyz     :     0.057619
      dx2y2   :     0.100395
      dxy     :     0.101363
      f0      :     0.003241  f :     0.042486
      f+1     :     0.004905
      f-1     :     0.005619
      f+2     :     0.006944
      f-2     :     0.007205
      f+3     :     0.006993
      f-3     :     0.007581
 20 H s       :     0.844968  s :     0.844968
      pz      :     0.040608  p :     0.149933
      px      :     0.066959
      py      :     0.042366
      dz2     :     0.003268  d :     0.027129
      dxz     :     0.007181
      dyz     :     0.001560
      dx2y2   :     0.007425
      dxy     :     0.007694
 21 H s       :     0.846692  s :     0.846692
      pz      :     0.045121  p :     0.153157
      px      :     0.057138
      py      :     0.050897
      dz2     :     0.004621  d :     0.027764
      dxz     :     0.005230
      dyz     :     0.003433
      dx2y2   :     0.007960
      dxy     :     0.006520
 22 H s       :     0.831951  s :     0.831951
      pz      :     0.072626  p :     0.152012
      px      :     0.040362
      py      :     0.039024
      dz2     :     0.009110  d :     0.027939
      dxz     :     0.009282
      dyz     :     0.009169
      dx2y2   :     0.000227
      dxy     :     0.000149
 23 H s       :     0.850538  s :     0.850538
      pz      :     0.025686  p :     0.143334
      px      :     0.072577
      py      :     0.045071
      dz2     :     0.003122  d :     0.026663
      dxz     :     0.005684
      dyz     :     0.001078
      dx2y2   :     0.008258
      dxy     :     0.008520
 24 H s       :     0.851057  s :     0.851057
      pz      :     0.033538  p :     0.147679
      px      :     0.057794
      py      :     0.056347
      dz2     :     0.004354  d :     0.027991
      dxz     :     0.004793
      dyz     :     0.003904
      dx2y2   :     0.008588
      dxy     :     0.006352
 25 H s       :     0.823225  s :     0.823225
      pz      :     0.050262  p :     0.147952
      px      :     0.056792
      py      :     0.040898
      dz2     :     0.006521  d :     0.027815
      dxz     :     0.005670
      dyz     :     0.003738
      dx2y2   :     0.006031
      dxy     :     0.005856
 26 H s       :     0.824509  s :     0.824509
      pz      :     0.072626  p :     0.150029
      px      :     0.042537
      py      :     0.034866
      dz2     :     0.009203  d :     0.027588
      dxz     :     0.009075
      dyz     :     0.007588
      dx2y2   :     0.000916
      dxy     :     0.000807
 27 H s       :     0.812037  s :     0.812037
      pz      :     0.041955  p :     0.155584
      px      :     0.062142
      py      :     0.051487
      dz2     :     0.002495  d :     0.028585
      dxz     :     0.007221
      dyz     :     0.002731
      dx2y2   :     0.008940
      dxy     :     0.007199
 28 H s       :     0.714414  s :     0.714414
      pz      :     0.069789  p :     0.252583
      px      :     0.092496
      py      :     0.090298
      dz2     :     0.009939  d :     0.061221
      dxz     :     0.007473
      dyz     :     0.015440
      dx2y2   :     0.014087
      dxy     :     0.014282
 29 H s       :     0.721913  s :     0.721913
      pz      :     0.073802  p :     0.249733
      px      :     0.076197
      py      :     0.099734
      dz2     :     0.010372  d :     0.060761
      dxz     :     0.006850
      dyz     :     0.016330
      dx2y2   :     0.011879
      dxy     :     0.015331
 30 H s       :     0.831842  s :     0.831842
      pz      :     0.031328  p :     0.149023
      px      :     0.079418
      py      :     0.038277
      dz2     :     0.002611  d :     0.027923
      dxz     :     0.007692
      dyz     :     0.000765
      dx2y2   :     0.008463
      dxy     :     0.008392
 31 H s       :     0.833322  s :     0.833322
      pz      :     0.056018  p :     0.155874
      px      :     0.065798
      py      :     0.034057
      dz2     :     0.005206  d :     0.027513
      dxz     :     0.007356
      dyz     :     0.003044
      dx2y2   :     0.005665
      dxy     :     0.006243
 32 H s       :     0.832668  s :     0.832668
      pz      :     0.036196  p :     0.150156
      px      :     0.040071
      py      :     0.073890
      dz2     :     0.002593  d :     0.026624
      dxz     :     0.000914
      dyz     :     0.007005
      dx2y2   :     0.007971
      dxy     :     0.008141
 33 H s       :     0.837574  s :     0.837574
      pz      :     0.057202  p :     0.157962
      px      :     0.046162
      py      :     0.054598
      dz2     :     0.006261  d :     0.027567
      dxz     :     0.004416
      dyz     :     0.006623
      dx2y2   :     0.005282
      dxy     :     0.004984
 34 H s       :     0.671364  s :     0.671364
      pz      :     0.130678  p :     0.344496
      px      :     0.087324
      py      :     0.126495
      dz2     :     0.027882  d :     0.098496
      dxz     :     0.022875
      dyz     :     0.026653
      dx2y2   :     0.010885
      dxy     :     0.010201
 35 H s       :     0.833447  s :     0.833447
      pz      :     0.042619  p :     0.163225
      px      :     0.043019
      py      :     0.077587
      dz2     :     0.002573  d :     0.028139
      dxz     :     0.001325
      dyz     :     0.007719
      dx2y2   :     0.007812
      dxy     :     0.008709


                      *****************************
                      * MAYER POPULATION ANALYSIS *
                      *****************************

  NA   - Mulliken gross atomic population
  ZA   - Total nuclear charge
  QA   - Mulliken gross atomic charge
  VA   - Mayer's total valence
  BVA  - Mayer's bonded valence
  FA   - Mayer's free valence

  ATOM       NA         ZA         QA         VA         BVA        FA
  0 C      6.2723     6.0000    -0.2723     3.8837     3.8837     0.0000
  1 C      5.9911     6.0000     0.0089     3.8359     3.8359    -0.0000
  2 O      8.3516     8.0000    -0.3516     2.0597     2.0597    -0.0000
  3 C      5.4630     6.0000     0.5370     4.1630     4.1630     0.0000
  4 O      8.5754     8.0000    -0.5754     1.9469     1.9469    -0.0000
  5 C      6.2186     6.0000    -0.2186     3.6892     3.6892     0.0000
  6 C      5.7980     6.0000     0.2020     3.8208     3.8208    -0.0000
  7 C      6.3015     6.0000    -0.3015     3.8833     3.8833    -0.0000
  8 N      7.1481     7.0000    -0.1481     3.3495     3.3495    -0.0000
  9 C      5.7055     6.0000     0.2945     4.1136     4.1136    -0.0000
 10 S     16.6394    16.0000    -0.6394     1.5201     1.5201    -0.0000
 11 N      7.2145     7.0000    -0.2145     3.3032     3.3032    -0.0000
 12 C      5.9201     6.0000     0.0799     3.9419     3.9419     0.0000
 13 C      5.9958     6.0000     0.0042     3.6648     3.6648    -0.0000
 14 C      6.1915     6.0000    -0.1915     3.8394     3.8394     0.0000
 15 C      6.1336     6.0000    -0.1336     3.7658     3.7658     0.0000
 16 C      6.2894     6.0000    -0.2894     3.7720     3.7720    -0.0000
 17 C      5.7493     6.0000     0.2507     3.8748     3.8748    -0.0000
 18 O      8.4707     8.0000    -0.4707     1.9997     1.9997     0.0000
 19 C      6.2537     6.0000    -0.2537     3.7526     3.7526    -0.0000
 20 H      0.8834     1.0000     0.1166     0.9720     0.9720     0.0000
 21 H      0.9071     1.0000     0.0929     0.9876     0.9876     0.0000
 22 H      0.8815     1.0000     0.1185     0.9804     0.9804    -0.0000
 23 H      0.8695     1.0000     0.1305     0.9760     0.9760    -0.0000
 24 H      0.9118     1.0000     0.0882     0.9827     0.9827    -0.0000
 25 H      0.8719     1.0000     0.1281     0.9870     0.9870    -0.0000
 26 H      0.8687     1.0000     0.1313     0.9851     0.9851    -0.0000
 27 H      0.8698     1.0000     0.1302     0.9775     0.9775    -0.0000
 28 H      0.7437     1.0000     0.2563     0.9687     0.9687    -0.0000
 29 H      0.7547     1.0000     0.2453     0.9746     0.9746     0.0000
 30 H      0.8254     1.0000     0.1746     0.9793     0.9793     0.0000
 31 H      0.8181     1.0000     0.1819     0.9713     0.9713     0.0000
 32 H      0.8118     1.0000     0.1882     0.9653     0.9653    -0.0000
 33 H      0.8243     1.0000     0.1757     0.9790     0.9790    -0.0000
 34 H      0.6667     1.0000     0.3333     0.9329     0.9329    -0.0000
 35 H      0.8084     1.0000     0.1916     0.9793     0.9793    -0.0000

  Mayer bond orders larger than 0.100000
B(  0-C ,  1-C ) :   0.9767 B(  0-C , 20-H ) :   0.9710 B(  0-C , 21-H ) :   0.9771 
B(  0-C , 22-H ) :   0.9756 B(  1-C ,  2-O ) :   0.8802 B(  1-C , 23-H ) :   0.9732 
B(  1-C , 24-H ) :   0.9752 B(  2-O ,  3-C ) :   1.2015 B(  3-C ,  4-O ) :   1.8390 
B(  3-C ,  5-C ) :   1.0861 B(  5-C ,  6-C ) :   1.6582 B(  5-C , 12-C ) :   0.9798 
B(  6-C ,  7-C ) :   0.9652 B(  6-C ,  8-N ) :   1.1123 B(  7-C , 25-H ) :   0.9878 
B(  7-C , 26-H ) :   0.9629 B(  7-C , 27-H ) :   0.9506 B(  8-N ,  9-C ) :   1.2851 
B(  8-N , 28-H ) :   0.9204 B(  9-C , 10-S ) :   1.3737 B(  9-C , 11-N ) :   1.3856 
B( 11-N , 12-C ) :   0.9501 B( 11-N , 29-H ) :   0.9264 B( 12-C , 13-C ) :   0.9746 
B( 12-C , 30-H ) :   0.9958 B( 13-C , 14-C ) :   1.3650 B( 13-C , 19-C ) :   1.2966 
B( 14-C , 15-C ) :   1.3807 B( 14-C , 31-H ) :   0.9606 B( 15-C , 16-C ) :   1.3496 
B( 15-C , 32-H ) :   0.9627 B( 16-C , 17-C ) :   1.3498 B( 16-C , 33-H ) :   0.9702 
B( 17-C , 18-O ) :   1.0634 B( 17-C , 19-C ) :   1.3852 B( 18-O , 34-H ) :   0.9110 
B( 19-C , 35-H ) :   0.9469 

-------
TIMINGS
-------

Total SCF time: 0 days 2 hours 9 min 8 sec 

Total time                  ....    7748.332 sec
Sum of individual times     ....    7744.818 sec  (100.0%)

Fock matrix formation       ....    7731.207 sec  ( 99.8%)
Diagonalization             ....       1.636 sec  (  0.0%)
Density matrix formation    ....       0.203 sec  (  0.0%)
Population analysis         ....       0.217 sec  (  0.0%)
Initial guess               ....       6.364 sec  (  0.1%)
Orbital Transformation      ....       0.000 sec  (  0.0%)
Orbital Orthonormalization  ....       0.000 sec  (  0.0%)
DIIS solution               ....       1.929 sec  (  0.0%)
SOSCF solution              ....       1.829 sec  (  0.0%)

Maximum memory used throughout the entire SCF-calculation: 745.9 MB

------------------------------------------------------------------------------
                                ORCA  MP2 
------------------------------------------------------------------------------

Freezing NCore=48 chemical core electrons

-------------
RI-MP2 ENERGY
-------------
Dimension of the basis                    ...  828
Memory devoted to MP2                     ...  256 MB   
Data format for buffers                   ... DOUBLE
Compression type for matrix containers    ... UNCOMPRESSED
Overall scaling of the MP2 energy         ...   1.000e+00
Calculating two index integrals           ... done (    0.046 sec)
Cholesky decomposition of V**-1           ... done (    0.576 sec)

-----------------
RI-TRANSFORMATION (AUX index driven)
-----------------

Dimension of the orbital-basis         ... 828
Dimension of the aux-basis             ... 2141
Transformation of internal/external MOs...   24-  76 to   77- 827
Number Format for Storage              ... Double (8 Byte)
Integral mode                          ... Direct

First Phase: integral generation and transformation of MO indices
  Aux angular momentum 0               ... done (    5.545 sec)
  Aux angular momentum 1               ... done (    9.199 sec)
  Aux angular momentum 2               ... done (   11.990 sec)
  Aux angular momentum 3               ... done (    9.516 sec)
  Aux angular momentum 4               ... done (    3.254 sec)
Closing buffer VIA ( 0.63 GB; CompressionRatio= 1.00)
  Phase 1 completed in    39.685 sec
Second Phase: sorting and transformation of aux index

IA-Transformation
Memory available                       ... 157 MB 
Max. # MO pairs treated in a batch     ... 11    
# of internal orbitals                 ... 53
# batches for internal orbitals        ... 5
Closing buffer IAV ( 0.63 GB; CompressionRatio= 1.00)
(ia|v) transformation done in    18.712 sec

  Phase 2 completed in    18.720 sec
RI-Integral transformation completed in    58.410 sec
Opening buffers                              ... done

Starting loop over batches of integrals:

Operator 0  - window                       ... ( 24- 76)x( 77-827)
Operator 0  - Memory available             ...   256 MB
Operator 0  - Memory needed per MO         ...  12.3 MB
Operator 0  - Number of orbitals per batch ... 13
Operator 0  - Number of batches            ... 5

OPERATOR  0   PASS   0:  MOs    24 ...   36
  Reading integrals       ... ok
  Internal MO  26
  Internal MO  29
  Internal MO  32
  Internal MO  35
OPERATOR  0   PASS   1:  MOs    37 ...   49
  Reading integrals       ... ok
  Internal MO  38
  Internal MO  41
  Internal MO  44
  Internal MO  47
OPERATOR  0   PASS   2:  MOs    50 ...   62
  Reading integrals       ... ok
  Internal MO  50
  Internal MO  53
  Internal MO  56
  Internal MO  59
  Internal MO  62
OPERATOR  0   PASS   3:  MOs    63 ...   75
  Reading integrals       ... ok
  Internal MO  65
  Internal MO  68
  Internal MO  71
  Internal MO  74
OPERATOR  0   PASS   4:  MOs    76 ...   76
  Reading integrals       ... ok
Time spent in pair loops =    94.487 sec
Deleting buffer (Ka|jb)[aa] ...done

-----------------------------------------------
 RI-MP2 CORRELATION ENERGY:     -3.530385921 Eh
-----------------------------------------------


-------
TIMINGS
-------

Total time                :  153.616 sec
Integral trafo            :   58.431 sec ( 38.0%)
I/O of integrals          :    0.938 sec (  0.6%)
K(i,j) Operators          :   65.862 sec ( 42.9%)
T(i,j) pair energies      :    9.917 sec (  6.5%)
V-calculation             :    0.046 sec (  0.0%)
V**(-1/2)                 :    0.576 sec (  0.4%)
Gamma(ia|P)               :    0.000 sec (  0.0%)
Gamma-Trafo               :    0.000 sec (  0.0%)
D(virtual)                :    0.000 sec (  0.0%)
D(internal)               :    0.000 sec (  0.0%)
W(virtual)                :    0.000 sec (  0.0%)
W(internal)               :    0.000 sec (  0.0%)
L(virtual)                :    0.000 sec (  0.0%)
L(internal)               :    0.000 sec (  0.0%)
G(D)                      :    0.000 sec (  0.0%)
G(Z)                      :    0.000 sec (  0.0%)
Z-Vector Solution         :    0.000 sec (  0.0%)
3-Index Derivative        :    0.000 sec (  0.0%)
2-Index Derivative        :    0.000 sec (  0.0%)
Separable Gradient        :    0.000 sec (  0.0%)


---------------------------------------
MP2 TOTAL ENERGY:    -1274.415799982 Eh
---------------------------------------

Maximum memory used throughout the entire MP2-calculation: 305.1 MB

-------------------------   --------------------
FINAL SINGLE POINT ENERGY     -1274.415799982326
-------------------------   --------------------


                            ***************************************
                            *     ORCA property calculations      *
                            ***************************************


  WARNING: The energy has been calculated at the MP2 level but the densities
           used in the property calculations are still SCF densities
           MP2 response densities have not been calculated 
           use %mp2 Density relaxed end
           or  %mp2 Density unrelaxed end

                                    ---------------------
                                    Active property flags
                                    ---------------------
   (+) Dipole Moment


------------------------------------------------------------------------------
                       ORCA ELECTRIC PROPERTIES CALCULATION
------------------------------------------------------------------------------

Dipole Moment Calculation                       ... on
Quadrupole Moment Calculation                   ... off
Polarizability Calculation                      ... off
GBWName                                         ... qm_input.solv.gbw
Electron density file                           ... qm_input.solv.scfp
The origin for moment calculation is the CENTER OF MASS  = (-9.855529,  6.093583 -1.278841)

-------------
DIPOLE MOMENT
-------------
                                X             Y             Z
Electronic contribution:      3.81176       2.55850     -13.99610
Nuclear contribution   :     -4.58460      -3.86459      16.71070
                        -----------------------------------------
Total Dipole Moment    :     -0.77284      -1.30609       2.71459
                        -----------------------------------------
Magnitude (a.u.)       :      3.11001
Magnitude (Debye)      :      7.90501



--------------------
Rotational spectrum 
--------------------
 
Rotational constants in cm-1:     0.014025     0.008135     0.006252 
Rotational constants in MHz :   420.447779   243.896117   187.433249 

 Dipole components along the rotational axes: 
x,y,z [a.u.] :     3.067668     0.436070     0.267221 
x,y,z [Debye]:     7.797393     1.108402     0.679221 

 

Timings for individual modules:

Sum of individual times         ...     8130.210 sec (= 135.504 min)
GTO integral calculation        ...      227.675 sec (=   3.795 min)   2.8 %
SCF iterations                  ...     7748.414 sec (= 129.140 min)  95.3 %
MP2 module                      ...      154.121 sec (=   2.569 min)   1.9 %
                             ****ORCA TERMINATED NORMALLY****
TOTAL RUN TIME: 0 days 2 hours 15 minutes 31 seconds 130 msec
